 vasp.6.2.1 16May21 (build Nov 06 2021 14:46:37) complex                        
  
 executed on             LinuxIFC date 2025.04.16  17:02:52
 running on  112 total cores
 distrk:  each k-point on  112 cores,    1 groups
 distr:  one band on NCORE=   4 cores,   28 groups


--------------------------------------------------------------------------------------------------------


 INCAR:
   ALGO = Conjugate
   NCORE = 4
   ISMEAR = 0
   SIGMA = 0.01
   PREC = Accurate
   EDIFF = 1E-6
   ENCUT = 1000
   ISIF = 0
   LWAVE = .FALSE.
   LCHARGE = .FALSE.
   SYMPREC = 1E-6

 POTCAR:    PAW_PBE C_h 06Feb2004                 
 POTCAR:    PAW_PBE O_h 06Feb2004                 
 -----------------------------------------------------------------------------
|                                                                             |
|           W    W    AA    RRRRR   N    N  II  N    N   GGGG   !!!           |
|           W    W   A  A   R    R  NN   N  II  NN   N  G    G  !!!           |
|           W    W  A    A  R    R  N N  N  II  N N  N  G       !!!           |
|           W WW W  AAAAAA  RRRRR   N  N N  II  N  N N  G  GGG   !            |
|           WW  WW  A    A  R   R   N   NN  II  N   NN  G    G                |
|           W    W  A    A  R    R  N    N  II  N    N   GGGG   !!!           |
|                                                                             |
|     For optimal performance we recommend to set                             |
|       NCORE = 2 up to number-of-cores-per-socket                            |
|     NCORE specifies how many cores store one orbital (NPAR=cpu/NCORE).      |
|     This setting can greatly improve the performance of VASP for DFT.       |
|     The default, NCORE=1 might be grossly inefficient on modern             |
|     multi-core architectures or massively parallel machines. Do your        |
|     own testing! More info at https://www.vasp.at/wiki/index.php/NCORE      |
|     Unfortunately you need to use the default for GW and RPA                |
|     calculations (for HF NCORE is supported but not extensively tested      |
|     yet).                                                                   |
|                                                                             |
 -----------------------------------------------------------------------------

 POTCAR:    PAW_PBE C_h 06Feb2004                 
   VRHFIN =C: s2p2                                                                                  
   LEXCH  = PE                                                                                      
   EATOM  =   147.1560 eV,   10.8157 Ry                                                             
                                                                                                    
   TITEL  = PAW_PBE C_h 06Feb2004                                                                   
   LULTRA =        F    use ultrasoft PP ?                                                          
   IUNSCR =        1    unscreen: 0-lin 1-nonlin 2-no                                               
   RPACOR =    0.800    partial core radius                                                         
   POMASS =   12.011; ZVAL   =    4.000    mass and valenz                                          
   RCORE  =    1.100    outmost cutoff radius                                                       
   RWIGS  =    1.630; RWIGS  =    0.863    wigner-seitz radius (au A)                               
   ENMAX  =  700.000; ENMIN  =  500.000 eV                                                          
   ICORE  =        2    local potential                                                             
   LCOR   =        T    correct aug charges                                                         
   LPAW   =        T    paw PP                                                                      
   EAUG   =  946.768                                                                                
   DEXC   =    0.000                                                                                
   RMAX   =    1.128    core radius for proj-oper                                                   
   RAUG   =    1.300    factor for augmentation sphere                                              
   RDEP   =    1.162    radius for radial grids                                                     
   RDEPT  =    1.088    core radius for aug-charge                                                  
                                                                                                    
   Atomic configuration                                                                             
    4 entries                                                                                       
     n  l   j            E        occ.                                                              
     1  0  0.50      -273.3789   2.0000                                                             
     2  0  0.50       -13.7508   2.0000                                                             
     2  1  0.50        -5.2854   2.0000                                                             
     3  2  1.50        -5.4423   0.0000                                                             
   Description                                                                                      
     l       E           TYP  RCUT    TYP  RCUT                                                     
     0    -13.7508458     23  1.100                                                                 
     0     -8.2022199     23  1.100                                                                 
     1     -5.2854383     23  1.100                                                                 
     1      1.1560700     23  1.100                                                                 
     2     -5.4423304      7  1.100                                                                 
  local pseudopotential read in
  partial core-charges read in
  partial kinetic energy density read in
  atomic valenz-charges read in
  non local Contribution for L=           0  read in
    real space projection operators read in
  non local Contribution for L=           0  read in
    real space projection operators read in
  non local Contribution for L=           1  read in
    real space projection operators read in
  non local Contribution for L=           1  read in
    real space projection operators read in
    PAW grid and wavefunctions read in
 
   number of l-projection  operators is LMAX  =           4
   number of lm-projection operators is LMMAX =           8
 
 POTCAR:    PAW_PBE O_h 06Feb2004                 
   VRHFIN =O: s2p4                                                                                  
   LEXCH  = PE                                                                                      
   EATOM  =   432.3788 eV,   31.7789 Ry                                                             
                                                                                                    
   TITEL  = PAW_PBE O_h 06Feb2004                                                                   
   LULTRA =        F    use ultrasoft PP ?                                                          
   IUNSCR =        1    unscreen: 0-lin 1-nonlin 2-no                                               
   RPACOR =    0.800    partial core radius                                                         
   POMASS =   16.000; ZVAL   =    6.000    mass and valenz                                          
   RCORE  =    1.100    outmost cutoff radius                                                       
   RWIGS  =    1.400; RWIGS  =    0.741    wigner-seitz radius (au A)                               
   ENMAX  =  700.000; ENMIN  =  500.000 eV                                                          
   ICORE  =        2    local potential                                                             
   LCOR   =        T    correct aug charges                                                         
   LPAW   =        T    paw PP                                                                      
   EAUG   =  888.804                                                                                
   DEXC   =    0.000                                                                                
   RMAX   =    1.128    core radius for proj-oper                                                   
   RAUG   =    1.300    factor for augmentation sphere                                              
   RDEP   =    1.125    radius for radial grids                                                     
   RDEPT  =    1.088    core radius for aug-charge                                                  
                                                                                                    
   Atomic configuration                                                                             
    4 entries                                                                                       
     n  l   j            E        occ.                                                              
     1  0  0.50      -514.6923   2.0000                                                             
     2  0  0.50       -23.9615   2.0000                                                             
     2  1  0.50        -9.0305   4.0000                                                             
     3  2  1.50        -9.5241   0.0000                                                             
   Description                                                                                      
     l       E           TYP  RCUT    TYP  RCUT                                                     
     0    -23.9615319     23  1.100                                                                 
     0    -25.3221145     23  1.100                                                                 
     1     -9.0304911     23  1.100                                                                 
     1     -5.4802209     23  1.100                                                                 
     2     -9.5240782      7  1.100                                                                 
  local pseudopotential read in
  partial core-charges read in
  partial kinetic energy density read in
  atomic valenz-charges read in
  non local Contribution for L=           0  read in
    real space projection operators read in
  non local Contribution for L=           0  read in
    real space projection operators read in
  non local Contribution for L=           1  read in
    real space projection operators read in
  non local Contribution for L=           1  read in
    real space projection operators read in
    PAW grid and wavefunctions read in
 
   number of l-projection  operators is LMAX  =           4
   number of lm-projection operators is LMMAX =           8
 
 -----------------------------------------------------------------------------
|                                                                             |
|               ----> ADVICE to this user running VASP <----                  |
|                                                                             |
|     You have a (more or less) 'large supercell' and for larger cells it     |
|     might be more efficient to use real-space projection operators.         |
|     Therefore, try LREAL= Auto in the INCAR file.                           |
|     Mind: For very accurate calculation, you might also keep the            |
|     reciprocal projection scheme (i.e. LREAL=.FALSE.).                      |
|                                                                             |
 -----------------------------------------------------------------------------

  PAW_PBE C_h 06Feb2004                 :
 energy of atom  1       EATOM= -147.1560
 kinetic energy error for atom=    0.0031 (will be added to EATOM!!)
  PAW_PBE O_h 06Feb2004                 :
 energy of atom  2       EATOM= -432.3788
 kinetic energy error for atom=    0.0171 (will be added to EATOM!!)
 
 
 POSCAR:  C  O
  positions in cartesian coordinates
  No initial velocities read in
 exchange correlation table for  LEXCH =        8
   RHO(1)=    0.500       N(1)  =     2000
   RHO(2)=  100.500       N(2)  =     4000
 


--------------------------------------------------------------------------------------------------------


 ion  position               nearest neighbor table
   1  0.972  0.000  0.001-  50 1.42   2 1.42  42 1.42
   2  0.039  0.134  0.000-   5 1.42   7 1.42   1 1.42
   3  0.172  0.000  0.000-  42 1.42  44 1.42   4 1.42
   4  0.239  0.134  0.000-   7 1.42   3 1.42  23 1.42
   5  0.972  0.200  0.000-   6 1.42   2 1.42  34 1.42
   6  0.039  0.334  0.000-   5 1.42  21 1.42  11 1.42
   7  0.172  0.200  0.000-   8 1.42   2 1.42   4 1.42
   8  0.239  0.334  0.000-  13 1.42   7 1.42  21 1.42
   9  0.372  0.000  0.000-  10 1.42  44 1.42  46 1.42
  10  0.439  0.134  0.000-  27 1.42   9 1.42  23 1.42
  11  0.972  0.400  0.001-  12 1.42  36 1.42   6 1.42
  12  0.039  0.534  0.001-  25 1.42  11 1.42  17 1.42
  13  0.372  0.400  0.000-   8 1.42  14 1.42  24 1.42
  14  0.439  0.534  0.000-  13 1.42  29 1.42  19 1.42
  15  0.572  0.000  0.001-  46 1.42  16 1.42  48 1.42
  16  0.639  0.134  0.001-  15 1.42  35 1.42  27 1.42
  17  0.972  0.600  0.001-  38 1.42  18 1.42  12 1.42
  18  0.039  0.734  0.001-  43 1.42  41 1.42  17 1.42
  19  0.572  0.600  0.000-  14 1.42  20 1.42  32 1.42
  20  0.639  0.734  0.001-  49 1.42  19 1.42  47 1.42
  21  0.172  0.400  0.000-  22 1.42   8 1.42   6 1.42
  22  0.239  0.534  0.000-  21 1.42  29 1.42  25 1.42
  23  0.372  0.200  0.000-  10 1.42   4 1.42  24 1.42
  24  0.439  0.334  0.000-  13 1.42  31 1.42  23 1.42
  25  0.172  0.600  0.001-  26 1.42  12 1.42  22 1.42
  26  0.239  0.734  0.001-  25 1.42  45 1.42  43 1.42
  27  0.572  0.200  0.000-  10 1.42  28 1.42  16 1.42
  28  0.639  0.334  0.000-  27 1.42  37 1.42  31 1.42
  29  0.372  0.600  0.000-  22 1.42  14 1.42  30 1.42
  30  0.439  0.734  0.000-  47 1.42  29 1.42  45 1.42
  31  0.572  0.400  0.000-  32 1.42  28 1.42  24 1.42
  32  0.639  0.534  0.000-  31 1.42  39 1.42  19 1.42
  33  0.772  0.000  0.001-  34 1.42  48 1.42  50 1.42
  34  0.839  0.134  0.001-  33 1.42   5 1.42  35 1.42
  35  0.772  0.200  0.001-  36 1.42  16 1.42  34 1.42
  36  0.839  0.334  0.001-  35 1.42  11 1.42  37 1.42
  37  0.772  0.400  0.001-  28 1.42  38 1.42  36 1.42
  38  0.839  0.534  0.001-  17 1.42  37 1.42  39 1.42
  39  0.772  0.600  0.001-  40 1.42  38 1.42  32 1.42
  40  0.839  0.734  0.001-  39 1.42  49 1.42  41 1.42
  41  0.972  0.800  0.001-  18 1.42  42 1.42  40 1.42
  42  0.039  0.934  0.001-   3 1.42  41 1.42   1 1.42
  43  0.172  0.800  0.001-  18 1.42  44 1.42  26 1.42
  44  0.239  0.934  0.001-   9 1.42  43 1.42   3 1.42
  45  0.372  0.800  0.001-  26 1.42  46 1.42  30 1.42
  46  0.439  0.934  0.001-  15 1.42  45 1.42   9 1.42
  47  0.572  0.800  0.001-  30 1.42  48 1.42  20 1.42
  48  0.639  0.934  0.001-  47 1.42  33 1.42  15 1.42
  49  0.772  0.800  0.001-  50 1.42  20 1.42  40 1.42
  50  0.839  0.934  0.001-  49 1.42   1 1.42  33 1.42
  51  0.373  0.251  0.133-  52 1.18  53 1.18
  52  0.421  0.189  0.136-  51 1.18
  53  0.325  0.313  0.131-  51 1.18
 
  LATTYP: Found a hexagonal cell.
 ALAT       =    12.3250000000
 C/A-ratio  =     2.0283975659
  
  Lattice vectors:
  
 A1 = (  12.3250000000,   0.0000000000,   0.0000000000)
 A2 = (  -6.1625000000,  10.6737631016,   0.0000000000)
 A3 = (   0.0000000000,   0.0000000000,  25.0000000000)


Analysis of symmetry for initial positions (statically):
=====================================================================
 Subroutine PRICEL returns:
 Original cell was already a primitive cell.
 

 Routine SETGRP: Setting up the symmetry group for a 
 hexagonal supercell.


 Subroutine GETGRP returns: Found  1 space group operations
 (whereof  1 operations were pure point group operations)
 out of a pool of 24 trial point group operations.


The static configuration has the point symmetry C_1 .


Analysis of symmetry for dynamics (positions and initial velocities):
=====================================================================
 Subroutine PRICEL returns:
 Original cell was already a primitive cell.
 

 Routine SETGRP: Setting up the symmetry group for a 
 hexagonal supercell.


 Subroutine GETGRP returns: Found  1 space group operations
 (whereof  1 operations were pure point group operations)
 out of a pool of 24 trial point group operations.


The dynamic configuration has the point symmetry C_1 .


 Subroutine INISYM returns: Found  1 space group operations
 (whereof  1 operations are pure point group operations),
 and found     1 'primitive' translations


----------------------------------------------------------------------------------------

                                     Primitive cell                                     

  volume of cell :    3288.8533

  direct lattice vectors                    reciprocal lattice vectors
    12.325000000  0.000000000  0.000000000     0.081135903  0.046843835  0.000000000
    -6.162500000 10.673763102  0.000000000     0.000000000  0.093687670  0.000000000
     0.000000000  0.000000000 25.000000000     0.000000000  0.000000000  0.040000000

  length of vectors
    12.325000000 12.325000000 25.000000000     0.093687670  0.093687670  0.040000000

  position of ions in fractional coordinates (direct lattice)
     0.972450841  0.000320818  0.000566711
     0.039118382  0.133659505  0.000440173
     0.172443627  0.000295449  0.000499628
     0.239096278  0.133647917  0.000256468
     0.972452058  0.200322012  0.000485219
     0.039128360  0.333643771  0.000444150
     0.172451764  0.200354552  0.000219167
     0.239124359  0.333665720  0.000072260
     0.372465565  0.000324403  0.000453913
     0.439137473  0.133619939  0.000258338
     0.972449824  0.400309362  0.000547611
     0.039124981  0.533636789  0.000573410
     0.372416176  0.400329481  0.000000000
     0.439099602  0.533638981  0.000232414
     0.572443676  0.000312125  0.000559580
     0.639110207  0.133631751  0.000547275
     0.972452703  0.600305653  0.000640289
     0.039124495  0.733640359  0.000654513
     0.572433471  0.600306242  0.000402895
     0.639111888  0.733641879  0.000527905
     0.172454630  0.400318228  0.000289045
     0.239120185  0.533636548  0.000378509
     0.372459750  0.200295993  0.000088997
     0.439107096  0.333673419  0.000055762
     0.172452155  0.600311506  0.000524340
     0.239123371  0.733638574  0.000575129
     0.572431082  0.200289171  0.000413296
     0.639112773  0.333618630  0.000462376
     0.372439808  0.600308022  0.000362844
     0.439116090  0.733637858  0.000494190
     0.572469358  0.400320504  0.000339918
     0.639119408  0.533650873  0.000459610
     0.772445723  0.000315427  0.000596161
     0.839116277  0.133640203  0.000575306
     0.772440513  0.200307432  0.000581033
     0.839120241  0.333635728  0.000585467
     0.772446320  0.400298367  0.000582978
     0.839118980  0.533633964  0.000621100
     0.772456143  0.600308173  0.000595712
     0.839115033  0.733643180  0.000631512
     0.972455313  0.800305582  0.000652233
     0.039114714  0.933643289  0.000598051
     0.172457971  0.800312211  0.000623372
     0.239134551  0.933647193  0.000544850
     0.372451396  0.800316674  0.000551399
     0.439124489  0.933644769  0.000541430
     0.572441101  0.800310054  0.000534535
     0.639115067  0.933638985  0.000587644
     0.772445098  0.800313187  0.000602062
     0.839116614  0.933644338  0.000606830
     0.373021009  0.251226878  0.133483986
     0.420879805  0.189313152  0.136060860
     0.325156981  0.313167186  0.131105791

  ion indices of the primitive-cell ions
   primitive index   ion index
                 1           1
                 2           2
                 3           3
                 4           4
                 5           5
                 6           6
                 7           7
                 8           8
                 9           9
                10          10
                11          11
                12          12
                13          13
                14          14
                15          15
                16          16
                17          17
                18          18
                19          19
                20          20
                21          21
                22          22
                23          23
                24          24
                25          25
                26          26
                27          27
                28          28
                29          29
                30          30
                31          31
                32          32
                33          33
                34          34
                35          35
                36          36
                37          37
                38          38
                39          39
                40          40
                41          41
                42          42
                43          43
                44          44
                45          45
                46          46
                47          47
                48          48
                49          49
                50          50
                51          51
                52          52
                53          53

----------------------------------------------------------------------------------------

 
 
 KPOINTS: auto                                    

Automatic generation of k-mesh.
 Grid dimensions read from file:
 generate k-points for:    1    1    1

 Generating k-lattice:

  Cartesian coordinates                     Fractional coordinates (reciprocal lattice)
     0.081135903  0.046843835  0.000000000     1.000000000 -0.000000000  0.000000000
     0.000000000  0.093687670  0.000000000     0.000000000  1.000000000  0.000000000
     0.000000000  0.000000000  0.040000000     0.000000000  0.000000000  1.000000000

  Length of vectors
     0.093687670  0.093687670  0.040000000

  Shift w.r.t. Gamma in fractional coordinates (k-lattice)
     0.000000000  0.000000000  0.000000000

 
 Subroutine IBZKPT returns following result:
 ===========================================
 
 Found      1 irreducible k-points:
 
 Following reciprocal coordinates:
            Coordinates               Weight
  0.000000  0.000000  0.000000      1.000000
 
 Following cartesian coordinates:
            Coordinates               Weight
  0.000000  0.000000  0.000000      1.000000
 


--------------------------------------------------------------------------------------------------------




 Dimension of arrays:
   k-points           NKPTS =      1   k-points in BZ     NKDIM =      1   number of bands    NBANDS=    140
   number of dos      NEDOS =    301   number of ions     NIONS =     53
   non local maximal  LDIM  =      4   non local SUM 2l+1 LMDIM =      8
   total plane-waves  NPLWV = ******
   max r-space proj   IRMAX =      1   max aug-charges    IRDMAX=  10008
   dimension x,y,z NGX =   128 NGY =  128 NGZ =  270
   dimension x,y,z NGXF=   256 NGYF=  256 NGZF=  540
   support grid    NGXF=   256 NGYF=  256 NGZF=  540
   ions per type =              51   2
   NGX,Y,Z   is equivalent  to a cutoff of  17.27, 17.27, 17.95 a.u.
   NGXF,Y,Z  is equivalent  to a cutoff of  34.53, 34.53, 35.91 a.u.

 SYSTEM =  unknown system                          
 POSCAR =   C  O                                   

 Startparameter for this run:
   NWRITE =      2    write-flag & timer
   PREC   = accura    normal or accurate (medium, high low for compatibility)
   ISTART =      0    job   : 0-new  1-cont  2-samecut
   ICHARG =      2    charge: 1-file 2-atom 10-const
   ISPIN  =      1    spin polarized calculation?
   LNONCOLLINEAR =      F non collinear calculations
   LSORBIT =      F    spin-orbit coupling
   INIWAV =      1    electr: 0-lowe 1-rand  2-diag
   LASPH  =      F    aspherical Exc in radial PAW
 Electronic Relaxation 1
   ENCUT  = 1000.0 eV  73.50 Ry    8.57 a.u.  31.78 31.78 64.46*2*pi/ulx,y,z
   ENINI  = 1000.0     initial cutoff
   ENAUG  =  946.8 eV  augmentation charge cutoff
   NELM   =     60;   NELMIN=  2; NELMDL= -5     # of ELM steps 
   EDIFF  = 0.1E-05   stopping-criterion for ELM
   LREAL  =      F    real-space projection
   NLSPLINE    = F    spline interpolate recip. space projectors
   LCOMPAT=      F    compatible to vasp.4.4
   GGA_COMPAT  = T    GGA compatible to vasp.4.4-vasp.4.6
   LMAXPAW     = -100 max onsite density
   LMAXMIX     =    2 max onsite mixed and CHGCAR
   VOSKOWN=      0    Vosko Wilk Nusair interpolation
   ROPT   =    0.00000   0.00000
 Ionic relaxation
   EDIFFG = 0.1E-04   stopping-criterion for IOM
   NSW    =      0    number of steps for IOM
   NBLOCK =      1;   KBLOCK =      1    inner block; outer block 
   IBRION =     -1    ionic relax: 0-MD 1-quasi-New 2-CG
   NFREE  =      0    steps in history (QN), initial steepest desc. (CG)
   ISIF   =      0    stress and relaxation
   IWAVPR =     10    prediction:  0-non 1-charg 2-wave 3-comb
   ISYM   =      2    0-nonsym 1-usesym 2-fastsym
   LCORR  =      T    Harris-Foulkes like correction to forces

   POTIM  = 0.5000    time-step for ionic-motion
   TEIN   =    0.0    initial temperature
   TEBEG  =    0.0;   TEEND  =   0.0 temperature during run
   SMASS  =  -3.00    Nose mass-parameter (am)
   estimated Nose-frequenzy (Omega)   =  0.10E-29 period in steps = 0.13E+47 mass=  -0.347E-26a.u.
   SCALEE = 1.0000    scale energy and forces
   NPACO  =    256;   APACO  = 16.0  distance and # of slots for P.C.
   PSTRESS=    0.0 pullay stress

  Mass of Ions in am
   POMASS =  12.01 16.00
  Ionic Valenz
   ZVAL   =   4.00  6.00
  Atomic Wigner-Seitz radii
   RWIGS  =  -1.00 -1.00
  virtual crystal weights 
   VCA    =   1.00  1.00
   NELECT =     216.0000    total number of electrons
   NUPDOWN=      -1.0000    fix difference up-down

 DOS related values:
   EMIN   =  10.00;   EMAX   =-10.00  energy-range for DOS
   EFERMI =   0.00
   ISMEAR =     0;   SIGMA  =   0.01  broadening in eV -4-tet -1-fermi 0-gaus

 Electronic relaxation 2 (details)
   IALGO  =     58    algorithm
   LDIAG  =      T    sub-space diagonalisation (order eigenvalues)
   LSUBROT=      F    optimize rotation matrix (better conditioning)
   TURBO    =      0    0=normal 1=particle mesh
   IRESTART =      0    0=no restart 2=restart with 2 vectors
   NREBOOT  =      0    no. of reboots
   NMIN     =      0    reboot dimension
   EREF     =   0.00    reference energy to select bands
   IMIX   =      4    mixing-type and parameters
     AMIX     =   0.40;   BMIX     =  1.00
     AMIX_MAG =   1.60;   BMIX_MAG =  1.00
     AMIN     =   0.10
     WC   =   100.;   INIMIX=   1;  MIXPRE=   1;  MAXMIX= -45

 Intra band minimization:
   WEIMIN = 0.0000     energy-eigenvalue tresh-hold
   EBREAK =  0.18E-08  absolut break condition
   DEPER  =   0.30     relativ break condition  

   TIME   =   0.40     timestep for ELM

  volume/ion in A,a.u.               =      62.05       418.76
  Fermi-wavevector in a.u.,A,eV,Ry     =   0.660508  1.248179  5.935820  0.436270
  Thomas-Fermi vector in A             =   1.732977
 
 Write flags
   LWAVE        =      F    write WAVECAR
   LDOWNSAMPLE  =      F    k-point downsampling of WAVECAR
   LCHARG       =      T    write CHGCAR
   LVTOT        =      F    write LOCPOT, total local potential
   LVHAR        =      F    write LOCPOT, Hartree potential only
   LELF         =      F    write electronic localiz. function (ELF)
   LORBIT       =      0    0 simple, 1 ext, 2 COOP (PROOUT), +10 PAW based schemes


 Dipole corrections
   LMONO  =      F    monopole corrections only (constant potential shift)
   LDIPOL =      F    correct potential (dipole corrections)
   IDIPOL =      0    1-x, 2-y, 3-z, 4-all directions 
   EPSILON=  1.0000000 bulk dielectric constant

 Exchange correlation treatment:
   GGA     =    --    GGA type
   LEXCH   =     8    internal setting for exchange type
   VOSKOWN=      0    Vosko Wilk Nusair interpolation
   LHFCALC =     F    Hartree Fock is set to
   LHFONE  =     F    Hartree Fock one center treatment
   AEXX    =    0.0000 exact exchange contribution

 Linear response parameters
   LEPSILON=     F    determine dielectric tensor
   LRPA    =     F    only Hartree local field effects (RPA)
   LNABLA  =     F    use nabla operator in PAW spheres
   LVEL    =     F    velocity operator in full k-point grid
   LINTERFAST=   F  fast interpolation
   KINTER  =     0    interpolate to denser k-point grid
   CSHIFT  =0.1000    complex shift for real part using Kramers Kronig
   OMEGAMAX=  -1.0    maximum frequency
   DEG_THRESHOLD= 0.2000000E-02 threshold for treating states as degnerate
   RTIME   =   -0.100 relaxation time in fs
  (WPLASMAI=    0.000 imaginary part of plasma frequency in eV, 0.658/RTIME)
   DFIELD  = 0.0000000 0.0000000 0.0000000 field for delta impulse in time
 
 Orbital magnetization related:
   ORBITALMAG=     F  switch on orbital magnetization
   LCHIMAG   =     F  perturbation theory with respect to B field
   DQ        =  0.001000  dq finite difference perturbation B field
   LLRAUG    =     F  two centre corrections for induced B field



--------------------------------------------------------------------------------------------------------


 Static calculation
 charge density and potential will be updated during run
 non-spin polarized calculation
 Conjugate gradient for all bands (Freysoldt, et al. PRB 79, 241103 (2009))
 preconditioned conjugated gradient                                        
 perform sub-space diagonalisation
    before iterative eigenvector-optimisation
 modified Broyden-mixing scheme, WC =      100.0
 initial mixing is a Kerker type mixing with AMIX =  0.4000 and BMIX =      1.0000
 Hartree-type preconditioning will be used
 using additional bands           32
 reciprocal scheme for non local part
 use partial core corrections
 no Harris-corrections to forces 
 use gradient corrections 
 use of overlap-Matrix (Vanderbilt PP)
 Gauss-broadening in eV      SIGMA  =   0.01


--------------------------------------------------------------------------------------------------------


  energy-cutoff  :     1000.00
  volume of cell :     3288.85
      direct lattice vectors                 reciprocal lattice vectors
    12.325000000  0.000000000  0.000000000     0.081135903  0.046843835  0.000000000
    -6.162500000 10.673763102  0.000000000     0.000000000  0.093687670  0.000000000
     0.000000000  0.000000000 25.000000000     0.000000000  0.000000000  0.040000000

  length of vectors
    12.325000000 12.325000000 25.000000000     0.093687670  0.093687670  0.040000000


 
 k-points in units of 2pi/SCALE and weight: auto                                    
   0.00000000  0.00000000  0.00000000       1.000
 
 k-points in reciprocal lattice and weights: auto                                    
   0.00000000  0.00000000  0.00000000       1.000
 
 position of ions in fractional coordinates (direct lattice) 
   0.97245084  0.00032082  0.00056671
   0.03911838  0.13365950  0.00044017
   0.17244363  0.00029545  0.00049963
   0.23909628  0.13364792  0.00025647
   0.97245206  0.20032201  0.00048522
   0.03912836  0.33364377  0.00044415
   0.17245176  0.20035455  0.00021917
   0.23912436  0.33366572  0.00007226
   0.37246557  0.00032440  0.00045391
   0.43913747  0.13361994  0.00025834
   0.97244982  0.40030936  0.00054761
   0.03912498  0.53363679  0.00057341
   0.37241618  0.40032948  0.00000000
   0.43909960  0.53363898  0.00023241
   0.57244368  0.00031213  0.00055958
   0.63911021  0.13363175  0.00054727
   0.97245270  0.60030565  0.00064029
   0.03912449  0.73364036  0.00065451
   0.57243347  0.60030624  0.00040289
   0.63911189  0.73364188  0.00052791
   0.17245463  0.40031823  0.00028904
   0.23912018  0.53363655  0.00037851
   0.37245975  0.20029599  0.00008900
   0.43910710  0.33367342  0.00005576
   0.17245216  0.60031151  0.00052434
   0.23912337  0.73363857  0.00057513
   0.57243108  0.20028917  0.00041330
   0.63911277  0.33361863  0.00046238
   0.37243981  0.60030802  0.00036284
   0.43911609  0.73363786  0.00049419
   0.57246936  0.40032050  0.00033992
   0.63911941  0.53365087  0.00045961
   0.77244572  0.00031543  0.00059616
   0.83911628  0.13364020  0.00057531
   0.77244051  0.20030743  0.00058103
   0.83912024  0.33363573  0.00058547
   0.77244632  0.40029837  0.00058298
   0.83911898  0.53363396  0.00062110
   0.77245614  0.60030817  0.00059571
   0.83911503  0.73364318  0.00063151
   0.97245531  0.80030558  0.00065223
   0.03911471  0.93364329  0.00059805
   0.17245797  0.80031221  0.00062337
   0.23913455  0.93364719  0.00054485
   0.37245140  0.80031667  0.00055140
   0.43912449  0.93364477  0.00054143
   0.57244110  0.80031005  0.00053453
   0.63911507  0.93363899  0.00058764
   0.77244510  0.80031319  0.00060206
   0.83911661  0.93364434  0.00060683
   0.37302101  0.25122688  0.13348399
   0.42087980  0.18931315  0.13606086
   0.32515698  0.31316719  0.13110579
 
 position of ions in cartesian coordinates  (Angst):
  11.98347958  0.00342433  0.01416777
  -0.34154264  1.42664989  0.01100432
   2.12354700  0.00315355  0.01249070
   2.12325634  1.42652621  0.00641170
  10.75098721  2.13818970  0.01213047
  -1.57382270  3.56123457  0.01110375
   0.89078307  2.13853702  0.00547917
   0.89099273  3.56146885  0.00180651
   4.58863896  0.00346260  0.01134782
   4.58893648  1.42622757  0.00645846
   9.51853763  4.27280730  0.01369027
  -2.80632132  5.69591267  0.01433526
   2.12299894  4.27302204  0.00000000
   2.12335237  5.69593607  0.00581036
   7.05344483  0.00333155  0.01398950
   7.05352764  1.42635365  0.01368187
   8.28609598  6.40752033  0.01600723
  -4.03884931  7.83070339  0.01636283
   3.35585531  6.40752662  0.01007237
   3.35598594  7.83071962  0.01319763
  -0.34145776  4.27290193  0.00722612
  -0.34137895  5.69591010  0.00946273
   3.35624236  2.13791198  0.00222492
   3.35573251  3.56155103  0.00139405
  -1.57394684  6.40758280  0.01310850
  -1.57385216  7.83068434  0.01437823
   5.82093107  2.13783916  0.01033241
   5.82114012  3.56096622  0.01155939
   0.89092245  6.40754561  0.00907111
   0.89106251  7.83067670  0.01235474
   4.58870974  4.27292622  0.00849795
   4.58852320  5.69606300  0.01149026
   9.51844972  0.00336679  0.01490402
   9.51855036  1.42644387  0.01438264
   8.28593477  2.13803408  0.01452582
   8.28612680  3.56114872  0.01463668
   7.05356221  4.27268994  0.01457444
   7.05362213  5.69588251  0.01552751
   5.82112285  6.40754723  0.01489279
   5.82101669  7.83073350  0.01578780
   7.05362858  8.54227219  0.01630582
  -5.27148792  9.96548729  0.01495127
  -2.80637951  8.54234295  0.01558431
  -2.80626749  9.96552896  0.01362126
  -0.34148805  8.54239058  0.01378498
  -0.34137657  9.96550309  0.01353576
   2.12342586  8.54231992  0.01336337
   2.12354296  9.96544135  0.01469111
   4.58845581  8.54235337  0.01505154
   4.58852904  9.96549848  0.01517076
   3.04929830  2.68153618  3.33709964
   4.02070129  2.02068374  3.40152150
   2.07766701  3.34267235  3.27764477
 


--------------------------------------------------------------------------------------------------------


 k-point   1 :   0.0000 0.0000 0.0000  plane waves:  236157

 maximum and minimum number of plane-waves per node :     59046    59034

 maximum number of plane-waves:    236157
 maximum index in each direction: 
   IXMAX=   31   IYMAX=   31   IZMAX=   64
   IXMIN=  -31   IYMIN=  -31   IZMIN=  -64


 parallel 3D FFT for wavefunctions:
    minimum data exchange during FFTs selected (reduces bandwidth)
 parallel 3D FFT for charge:
    minimum data exchange during FFTs selected (reduces bandwidth)


 total amount of memory used by VASP MPI-rank0   215378. kBytes
=======================================================================

   base      :      30000. kBytes
   nonl-proj :      57634. kBytes
   fftplans  :      45914. kBytes
   grid      :      67588. kBytes
   one-center:         43. kBytes
   wavefun   :      14199. kBytes
 
     INWAV:  cpu time    0.0000: real time    0.0000
 Broyden mixing: mesh for mixing (old mesh)
   NGX = 63   NGY = 63   NGZ =129
  (NGX  =256   NGY  =256   NGZ  =540)
  gives a total of 512001 points

 initial charge density was supplied:
 charge density of overlapping atoms calculated
 number of electron     216.0000000 magnetization 
 keeping initial charge density in first step


--------------------------------------------------------------------------------------------------------


 Maximum index for augmentation-charges          471 (set IRDMAX)


--------------------------------------------------------------------------------------------------------


 First call to EWALD:  gamma=   0.119
 Maximum number of real-space cells 4x 4x 2
 Maximum number of reciprocal cells 2x 2x 4

    FEWALD:  cpu time    0.0024: real time    0.0024


--------------------------------------- Iteration      1(   1)  ---------------------------------------


    POTLOK:  cpu time    0.3977: real time    0.4030
    SETDIJ:  cpu time    0.0051: real time    0.0052
    TRIAL :  cpu time    5.5765: real time    5.6471
    CORREC:  cpu time    0.0004: real time    0.0006
    --------------------------------------------
      LOOP:  cpu time    5.9880: real time    6.0667

 eigenvalue-minimisations  :   280
 total energy-change (2. order) : 0.2779722E+04  (-0.1023700E+05)
 number of electron     216.0000000 magnetization 
 augmentation part      216.0000000 magnetization 

 Free energy of the ion-electron system (eV)
  ---------------------------------------------------
  alpha Z        PSCENC =        47.94900195
  Ewald energy   TEWEN  =     47232.99051633
  -Hartree energ DENC   =    -53301.77898108
  -exchange      EXHF   =         0.00000000
  -V(xc)+E(xc)   XCENC  =       420.95684052
  PAW double counting   =      6525.96553977    -6260.36035765
  entropy T*S    EENTRO =        -0.00000000
  eigenvalues    EBANDS =      -255.52389848
  atomic energy  EATOM  =      8369.52358910
  ---------------------------------------------------
  free energy    TOTEN  =      2779.72225047 eV

  energy without entropy =     2779.72225047  energy(sigma->0) =     2779.72225047


--------------------------------------------------------------------------------------------------------




--------------------------------------- Iteration      1(   2)  ---------------------------------------


    TRIAL :  cpu time    8.0671: real time    8.1463
    CORREC:  cpu time    0.0001: real time    0.0001
    --------------------------------------------
      LOOP:  cpu time    8.1026: real time    8.1862

 eigenvalue-minimisations  :   448
 total energy-change (2. order) :-0.2446089E+04  (-0.2287224E+04)
 number of electron     216.0000000 magnetization 
 augmentation part      216.0000000 magnetization 

 Free energy of the ion-electron system (eV)
  ---------------------------------------------------
  alpha Z        PSCENC =        47.94900195
  Ewald energy   TEWEN  =     47232.99051633
  -Hartree energ DENC   =    -53301.77898108
  -exchange      EXHF   =         0.00000000
  -V(xc)+E(xc)   XCENC  =       420.95684052
  PAW double counting   =      6525.96553977    -6260.36035765
  entropy T*S    EENTRO =        -0.00000000
  eigenvalues    EBANDS =     -2701.61273172
  atomic energy  EATOM  =      8369.52358910
  ---------------------------------------------------
  free energy    TOTEN  =       333.63341723 eV

  energy without entropy =      333.63341723  energy(sigma->0) =      333.63341723


--------------------------------------------------------------------------------------------------------




--------------------------------------- Iteration      1(   3)  ---------------------------------------


    TRIAL :  cpu time    7.2271: real time    7.2970
    CORREC:  cpu time    0.0001: real time    0.0001
    --------------------------------------------
      LOOP:  cpu time    7.2712: real time    7.3424

 eigenvalue-minimisations  :   392
 total energy-change (2. order) :-0.7985088E+03  (-0.7863975E+03)
 number of electron     216.0000000 magnetization 
 augmentation part      216.0000000 magnetization 

 Free energy of the ion-electron system (eV)
  ---------------------------------------------------
  alpha Z        PSCENC =        47.94900195
  Ewald energy   TEWEN  =     47232.99051633
  -Hartree energ DENC   =    -53301.77898108
  -exchange      EXHF   =         0.00000000
  -V(xc)+E(xc)   XCENC  =       420.95684052
  PAW double counting   =      6525.96553977    -6260.36035765
  entropy T*S    EENTRO =        -0.00000000
  eigenvalues    EBANDS =     -3500.12157068
  atomic energy  EATOM  =      8369.52358910
  ---------------------------------------------------
  free energy    TOTEN  =      -464.87542173 eV

  energy without entropy =     -464.87542173  energy(sigma->0) =     -464.87542173


--------------------------------------------------------------------------------------------------------




--------------------------------------- Iteration      1(   4)  ---------------------------------------


    TRIAL :  cpu time    6.3954: real time    6.4556
    CORREC:  cpu time    0.0001: real time    0.0001
    --------------------------------------------
      LOOP:  cpu time    6.4702: real time    6.5310

 eigenvalue-minimisations  :   336
 total energy-change (2. order) :-0.5153277E+02  (-0.5119205E+02)
 number of electron     216.0000000 magnetization 
 augmentation part      216.0000000 magnetization 

 Free energy of the ion-electron system (eV)
  ---------------------------------------------------
  alpha Z        PSCENC =        47.94900195
  Ewald energy   TEWEN  =     47232.99051633
  -Hartree energ DENC   =    -53301.77898108
  -exchange      EXHF   =         0.00000000
  -V(xc)+E(xc)   XCENC  =       420.95684052
  PAW double counting   =      6525.96553977    -6260.36035765
  entropy T*S    EENTRO =        -0.00000000
  eigenvalues    EBANDS =     -3551.65434268
  atomic energy  EATOM  =      8369.52358910
  ---------------------------------------------------
  free energy    TOTEN  =      -516.40819373 eV

  energy without entropy =     -516.40819373  energy(sigma->0) =     -516.40819373


--------------------------------------------------------------------------------------------------------




--------------------------------------- Iteration      1(   5)  ---------------------------------------


    TRIAL :  cpu time    7.2401: real time    7.3116
    CORREC:  cpu time    0.0001: real time    0.0001
    CHARGE:  cpu time    0.3127: real time    0.3159
    --------------------------------------------
      LOOP:  cpu time    7.6244: real time    7.7020

 eigenvalue-minimisations  :   392
 total energy-change (2. order) :-0.1513911E+01  (-0.1508443E+01)
 number of electron     216.0000000 magnetization 
 augmentation part       -0.2708171 magnetization 

 Free energy of the ion-electron system (eV)
  ---------------------------------------------------
  alpha Z        PSCENC =        47.94900195
  Ewald energy   TEWEN  =     47232.99051633
  -Hartree energ DENC   =    -53301.77898108
  -exchange      EXHF   =         0.00000000
  -V(xc)+E(xc)   XCENC  =       420.95684052
  PAW double counting   =      6525.96553977    -6260.36035765
  entropy T*S    EENTRO =        -0.00000000
  eigenvalues    EBANDS =     -3553.16825381
  atomic energy  EATOM  =      8369.52358910
  ---------------------------------------------------
  free energy    TOTEN  =      -517.92210486 eV

  energy without entropy =     -517.92210486  energy(sigma->0) =     -517.92210486


--------------------------------------------------------------------------------------------------------




--------------------------------------- Iteration      1(   6)  ---------------------------------------


    POTLOK:  cpu time    0.3773: real time    0.3802
    SETDIJ:  cpu time    0.0029: real time    0.0029
    TRIAL :  cpu time    2.6752: real time    2.7038
    CORREC:  cpu time    1.0685: real time    1.0777
    CHARGE:  cpu time    0.3107: real time    0.3131
    --------------------------------------------
      LOOP:  cpu time    4.4624: real time    4.5067

 eigenvalue-minimisations  :     0
 total energy-change (2. order) : 0.5102502E+02  (-0.1541414E+02)
 number of electron     216.0000000 magnetization 
 augmentation part       -0.3672271 magnetization 

 Free energy of the ion-electron system (eV)
  ---------------------------------------------------
  alpha Z        PSCENC =        47.94900195
  Ewald energy   TEWEN  =     47232.99051633
  -Hartree energ DENC   =    -54740.05165209
  -exchange      EXHF   =         0.00000000
  -V(xc)+E(xc)   XCENC  =       468.89882899
  PAW double counting   =     89771.63507374   -89514.28109180
  entropy T*S    EENTRO =        -0.00000000
  eigenvalues    EBANDS =     -2103.56135547
  atomic energy  EATOM  =      8369.52358910
  ---------------------------------------------------
  free energy    TOTEN  =      -466.89708925 eV

  energy without entropy =     -466.89708925  energy(sigma->0) =     -466.89708925


--------------------------------------------------------------------------------------------------------




--------------------------------------- Iteration      1(   7)  ---------------------------------------


    POTLOK:  cpu time    0.3857: real time    0.3889
    SETDIJ:  cpu time    0.0027: real time    0.0028
    TRIAL :  cpu time    2.6766: real time    2.7002
    CORREC:  cpu time    1.0662: real time    1.0748
    CHARGE:  cpu time    0.3112: real time    0.3135
    --------------------------------------------
      LOOP:  cpu time    4.5120: real time    4.5516

 eigenvalue-minimisations  :     0
 total energy-change (2. order) :-0.1544848E+02  (-0.1742500E+01)
 number of electron     216.0000000 magnetization 
 augmentation part       -0.4136809 magnetization 

 Free energy of the ion-electron system (eV)
  ---------------------------------------------------
  alpha Z        PSCENC =        47.94900195
  Ewald energy   TEWEN  =     47232.99051633
  -Hartree energ DENC   =    -54227.47991619
  -exchange      EXHF   =         0.00000000
  -V(xc)+E(xc)   XCENC  =       451.95088023
  PAW double counting   =    105885.11647571  -105624.94220996
  entropy T*S    EENTRO =        -0.00000000
  eigenvalues    EBANDS =     -2617.45390930
  atomic energy  EATOM  =      8369.52358910
  ---------------------------------------------------
  free energy    TOTEN  =      -482.34557212 eV

  energy without entropy =     -482.34557212  energy(sigma->0) =     -482.34557212


--------------------------------------------------------------------------------------------------------




--------------------------------------- Iteration      1(   8)  ---------------------------------------


    POTLOK:  cpu time    0.3844: real time    0.3872
    SETDIJ:  cpu time    0.0028: real time    0.0028
    TRIAL :  cpu time    2.6759: real time    2.7004
    CORREC:  cpu time    1.0628: real time    1.0742
    CHARGE:  cpu time    0.3111: real time    0.3134
    --------------------------------------------
      LOOP:  cpu time    4.5017: real time    4.5589

 eigenvalue-minimisations  :     0
 total energy-change (2. order) :-0.1742313E+01  (-0.4469484E+00)
 number of electron     216.0000000 magnetization 
 augmentation part       -0.4297982 magnetization 

 Free energy of the ion-electron system (eV)
  ---------------------------------------------------
  alpha Z        PSCENC =        47.94900195
  Ewald energy   TEWEN  =     47232.99051633
  -Hartree energ DENC   =    -54205.14886621
  -exchange      EXHF   =         0.00000000
  -V(xc)+E(xc)   XCENC  =       451.43367779
  PAW double counting   =    110274.78850606  -110014.21715521
  entropy T*S    EENTRO =        -0.00000000
  eigenvalues    EBANDS =     -2641.40715483
  atomic energy  EATOM  =      8369.52358910
  ---------------------------------------------------
  free energy    TOTEN  =      -484.08788501 eV

  energy without entropy =     -484.08788501  energy(sigma->0) =     -484.08788501


--------------------------------------------------------------------------------------------------------




--------------------------------------- Iteration      1(   9)  ---------------------------------------


    POTLOK:  cpu time    0.3851: real time    0.3878
    SETDIJ:  cpu time    0.0028: real time    0.0028
    TRIAL :  cpu time    2.6760: real time    2.7000
    CORREC:  cpu time    1.0645: real time    1.0738
    CHARGE:  cpu time    0.3111: real time    0.3135
    --------------------------------------------
      LOOP:  cpu time    4.5117: real time    4.5530

 eigenvalue-minimisations  :     0
 total energy-change (2. order) :-0.4467751E+00  (-0.1433407E+00)
 number of electron     216.0000000 magnetization 
 augmentation part       -0.4368597 magnetization 

 Free energy of the ion-electron system (eV)
  ---------------------------------------------------
  alpha Z        PSCENC =        47.94900195
  Ewald energy   TEWEN  =     47232.99051633
  -Hartree energ DENC   =    -54220.06206119
  -exchange      EXHF   =         0.00000000
  -V(xc)+E(xc)   XCENC  =       451.59747583
  PAW double counting   =    112923.78918272  -112663.07077876
  entropy T*S    EENTRO =        -0.00000000
  eigenvalues    EBANDS =     -2627.25158607
  atomic energy  EATOM  =      8369.52358910
  ---------------------------------------------------
  free energy    TOTEN  =      -484.53466009 eV

  energy without entropy =     -484.53466009  energy(sigma->0) =     -484.53466009


--------------------------------------------------------------------------------------------------------




--------------------------------------- Iteration      1(  10)  ---------------------------------------


    POTLOK:  cpu time    0.3831: real time    0.3860
    SETDIJ:  cpu time    0.0029: real time    0.0029
    TRIAL :  cpu time    2.6758: real time    2.7001
    CORREC:  cpu time    1.0644: real time    1.0742
    CHARGE:  cpu time    0.3140: real time    0.3211
    --------------------------------------------
      LOOP:  cpu time    4.4442: real time    4.5326

 eigenvalue-minimisations  :     0
 total energy-change (2. order) :-0.1431539E+00  (-0.5688795E-01)
 number of electron     216.0000000 magnetization 
 augmentation part       -0.4376251 magnetization 

 Free energy of the ion-electron system (eV)
  ---------------------------------------------------
  alpha Z        PSCENC =        47.94900195
  Ewald energy   TEWEN  =     47232.99051633
  -Hartree energ DENC   =    -54221.19844147
  -exchange      EXHF   =         0.00000000
  -V(xc)+E(xc)   XCENC  =       451.53666452
  PAW double counting   =    113354.00877679  -113093.21341337
  entropy T*S    EENTRO =        -0.00000000
  eigenvalues    EBANDS =     -2626.27450787
  atomic energy  EATOM  =      8369.52358910
  ---------------------------------------------------
  free energy    TOTEN  =      -484.67781401 eV

  energy without entropy =     -484.67781401  energy(sigma->0) =     -484.67781401


--------------------------------------------------------------------------------------------------------




--------------------------------------- Iteration      1(  11)  ---------------------------------------


    POTLOK:  cpu time    0.3847: real time    0.3876
    SETDIJ:  cpu time    0.0027: real time    0.0028
    TRIAL :  cpu time    2.6772: real time    2.7076
    CORREC:  cpu time    1.0636: real time    1.0735
    CHARGE:  cpu time    0.3103: real time    0.3129
    --------------------------------------------
      LOOP:  cpu time    4.4589: real time    4.5079

 eigenvalue-minimisations  :     0
 total energy-change (2. order) :-0.5675222E-01  (-0.2287411E-01)
 number of electron     216.0000000 magnetization 
 augmentation part       -0.4371331 magnetization 

 Free energy of the ion-electron system (eV)
  ---------------------------------------------------
  alpha Z        PSCENC =        47.94900195
  Ewald energy   TEWEN  =     47232.99051633
  -Hartree energ DENC   =    -54217.29633366
  -exchange      EXHF   =         0.00000000
  -V(xc)+E(xc)   XCENC  =       451.47768604
  PAW double counting   =    112915.38647863  -112654.59080141
  entropy T*S    EENTRO =        -0.00000000
  eigenvalues    EBANDS =     -2630.17470322
  atomic energy  EATOM  =      8369.52358910
  ---------------------------------------------------
  free energy    TOTEN  =      -484.73456623 eV

  energy without entropy =     -484.73456623  energy(sigma->0) =     -484.73456623


--------------------------------------------------------------------------------------------------------




--------------------------------------- Iteration      1(  12)  ---------------------------------------


    POTLOK:  cpu time    0.3830: real time    0.3856
    SETDIJ:  cpu time    0.0028: real time    0.0028
    TRIAL :  cpu time    2.6832: real time    2.7070
    CORREC:  cpu time    1.0599: real time    1.0691
    CHARGE:  cpu time    0.3108: real time    0.3133
    --------------------------------------------
      LOOP:  cpu time    4.4770: real time    4.5187

 eigenvalue-minimisations  :     0
 total energy-change (2. order) :-0.2279688E-01  (-0.7886879E-02)
 number of electron     216.0000000 magnetization 
 augmentation part       -0.4373719 magnetization 

 Free energy of the ion-electron system (eV)
  ---------------------------------------------------
  alpha Z        PSCENC =        47.94900195
  Ewald energy   TEWEN  =     47232.99051633
  -Hartree energ DENC   =    -54215.33052728
  -exchange      EXHF   =         0.00000000
  -V(xc)+E(xc)   XCENC  =       451.44487207
  PAW double counting   =    112564.06589748  -112303.29208216
  entropy T*S    EENTRO =        -0.00000000
  eigenvalues    EBANDS =     -2632.10863059
  atomic energy  EATOM  =      8369.52358910
  ---------------------------------------------------
  free energy    TOTEN  =      -484.75736310 eV

  energy without entropy =     -484.75736310  energy(sigma->0) =     -484.75736310


--------------------------------------------------------------------------------------------------------




--------------------------------------- Iteration      1(  13)  ---------------------------------------


    POTLOK:  cpu time    0.3810: real time    0.3835
    SETDIJ:  cpu time    0.0028: real time    0.0028
    TRIAL :  cpu time    2.6554: real time    2.7012
    CORREC:  cpu time    1.0580: real time    1.0668
    CHARGE:  cpu time    0.3108: real time    0.3133
    --------------------------------------------
      LOOP:  cpu time    4.4541: real time    4.5143

 eigenvalue-minimisations  :     0
 total energy-change (2. order) :-0.7872051E-02  (-0.2341167E-02)
 number of electron     216.0000000 magnetization 
 augmentation part       -0.4371246 magnetization 

 Free energy of the ion-electron system (eV)
  ---------------------------------------------------
  alpha Z        PSCENC =        47.94900195
  Ewald energy   TEWEN  =     47232.99051633
  -Hartree energ DENC   =    -54215.07429997
  -exchange      EXHF   =         0.00000000
  -V(xc)+E(xc)   XCENC  =       451.43133256
  PAW double counting   =    112457.75228454  -112196.98788705
  entropy T*S    EENTRO =        -0.00000000
  eigenvalues    EBANDS =     -2632.34977261
  atomic energy  EATOM  =      8369.52358910
  ---------------------------------------------------
  free energy    TOTEN  =      -484.76523515 eV

  energy without entropy =     -484.76523515  energy(sigma->0) =     -484.76523515


--------------------------------------------------------------------------------------------------------




--------------------------------------- Iteration      1(  14)  ---------------------------------------


    POTLOK:  cpu time    0.3785: real time    0.3812
    SETDIJ:  cpu time    0.0030: real time    0.0030
    TRIAL :  cpu time    2.6723: real time    2.6970
    CORREC:  cpu time    1.0552: real time    1.0639
    CHARGE:  cpu time    0.3116: real time    0.3139
    --------------------------------------------
      LOOP:  cpu time    4.4809: real time    4.5213

 eigenvalue-minimisations  :     0
 total energy-change (2. order) :-0.2341004E-02  (-0.6591442E-03)
 number of electron     216.0000000 magnetization 
 augmentation part       -0.4369179 magnetization 

 Free energy of the ion-electron system (eV)
  ---------------------------------------------------
  alpha Z        PSCENC =        47.94900195
  Ewald energy   TEWEN  =     47232.99051633
  -Hartree energ DENC   =    -54215.09928574
  -exchange      EXHF   =         0.00000000
  -V(xc)+E(xc)   XCENC  =       451.43126782
  PAW double counting   =    112493.21559909  -112232.45386266
  entropy T*S    EENTRO =        -0.00000000
  eigenvalues    EBANDS =     -2632.32440205
  atomic energy  EATOM  =      8369.52358910
  ---------------------------------------------------
  free energy    TOTEN  =      -484.76757616 eV

  energy without entropy =     -484.76757616  energy(sigma->0) =     -484.76757616


--------------------------------------------------------------------------------------------------------




--------------------------------------- Iteration      1(  15)  ---------------------------------------


    POTLOK:  cpu time    0.3763: real time    0.3789
    SETDIJ:  cpu time    0.0030: real time    0.0030
    TRIAL :  cpu time    2.6691: real time    2.6966
    CORREC:  cpu time    1.0594: real time    1.0692
    CHARGE:  cpu time    0.3109: real time    0.3136
    --------------------------------------------
      LOOP:  cpu time    4.4435: real time    4.5314

 eigenvalue-minimisations  :     0
 total energy-change (2. order) :-0.6604725E-03  (-0.2145940E-03)
 number of electron     216.0000000 magnetization 
 augmentation part       -0.4366492 magnetization 

 Free energy of the ion-electron system (eV)
  ---------------------------------------------------
  alpha Z        PSCENC =        47.94900195
  Ewald energy   TEWEN  =     47232.99051633
  -Hartree energ DENC   =    -54214.76400317
  -exchange      EXHF   =         0.00000000
  -V(xc)+E(xc)   XCENC  =       451.41802475
  PAW double counting   =    112526.43086540  -112265.66734133
  entropy T*S    EENTRO =        -0.00000000
  eigenvalues    EBANDS =     -2632.64888967
  atomic energy  EATOM  =      8369.52358910
  ---------------------------------------------------
  free energy    TOTEN  =      -484.76823663 eV

  energy without entropy =     -484.76823663  energy(sigma->0) =     -484.76823663


--------------------------------------------------------------------------------------------------------




--------------------------------------- Iteration      1(  16)  ---------------------------------------


    POTLOK:  cpu time    0.3759: real time    0.3784
    SETDIJ:  cpu time    0.0029: real time    0.0029
    TRIAL :  cpu time    2.6739: real time    2.6978
    CORREC:  cpu time    1.0556: real time    1.0645
    CHARGE:  cpu time    0.3108: real time    0.3132
    --------------------------------------------
      LOOP:  cpu time    4.4731: real time    4.5230

 eigenvalue-minimisations  :     0
 total energy-change (2. order) :-0.2155684E-03  (-0.8105686E-04)
 number of electron     216.0000000 magnetization 
 augmentation part       -0.4364955 magnetization 

 Free energy of the ion-electron system (eV)
  ---------------------------------------------------
  alpha Z        PSCENC =        47.94900195
  Ewald energy   TEWEN  =     47232.99051633
  -Hartree energ DENC   =    -54214.84066514
  -exchange      EXHF   =         0.00000000
  -V(xc)+E(xc)   XCENC  =       451.42125641
  PAW double counting   =    112508.78954891  -112248.02661872
  entropy T*S    EENTRO =        -0.00000000
  eigenvalues    EBANDS =     -2632.57508104
  atomic energy  EATOM  =      8369.52358910
  ---------------------------------------------------
  free energy    TOTEN  =      -484.76845220 eV

  energy without entropy =     -484.76845220  energy(sigma->0) =     -484.76845220


--------------------------------------------------------------------------------------------------------




--------------------------------------- Iteration      1(  17)  ---------------------------------------


    POTLOK:  cpu time    0.3745: real time    0.3771
    SETDIJ:  cpu time    0.0028: real time    0.0028
    TRIAL :  cpu time    2.6756: real time    2.7071
    CORREC:  cpu time    1.0590: real time    1.0681
    CHARGE:  cpu time    0.3104: real time    0.3128
    --------------------------------------------
      LOOP:  cpu time    4.4484: real time    4.5599

 eigenvalue-minimisations  :     0
 total energy-change (2. order) :-0.8161244E-04  (-0.3176488E-04)
 number of electron     216.0000000 magnetization 
 augmentation part       -0.4364882 magnetization 

 Free energy of the ion-electron system (eV)
  ---------------------------------------------------
  alpha Z        PSCENC =        47.94900195
  Ewald energy   TEWEN  =     47232.99051633
  -Hartree energ DENC   =    -54214.94923272
  -exchange      EXHF   =         0.00000000
  -V(xc)+E(xc)   XCENC  =       451.42434113
  PAW double counting   =    112481.76276226  -112221.00021875
  entropy T*S    EENTRO =        -0.00000000
  eigenvalues    EBANDS =     -2632.46929311
  atomic energy  EATOM  =      8369.52358910
  ---------------------------------------------------
  free energy    TOTEN  =      -484.76853381 eV

  energy without entropy =     -484.76853381  energy(sigma->0) =     -484.76853381


--------------------------------------------------------------------------------------------------------




--------------------------------------- Iteration      1(  18)  ---------------------------------------


    POTLOK:  cpu time    0.3781: real time    0.3805
    SETDIJ:  cpu time    0.0027: real time    0.0027
    TRIAL :  cpu time    2.6770: real time    2.7006
    CORREC:  cpu time    1.0552: real time    1.0640
    CHARGE:  cpu time    0.3112: real time    0.3134
    --------------------------------------------
      LOOP:  cpu time    4.4557: real time    4.4931

 eigenvalue-minimisations  :     0
 total energy-change (2. order) :-0.3196656E-04  (-0.1267401E-04)
 number of electron     216.0000000 magnetization 
 augmentation part       -0.4365294 magnetization 

 Free energy of the ion-electron system (eV)
  ---------------------------------------------------
  alpha Z        PSCENC =        47.94900195
  Ewald energy   TEWEN  =     47232.99051633
  -Hartree energ DENC   =    -54214.94221661
  -exchange      EXHF   =         0.00000000
  -V(xc)+E(xc)   XCENC  =       451.42389223
  PAW double counting   =    112473.95332252  -112213.19041739
  entropy T*S    EENTRO =        -0.00000000
  eigenvalues    EBANDS =     -2632.47625391
  atomic energy  EATOM  =      8369.52358910
  ---------------------------------------------------
  free energy    TOTEN  =      -484.76856578 eV

  energy without entropy =     -484.76856578  energy(sigma->0) =     -484.76856578


--------------------------------------------------------------------------------------------------------




--------------------------------------- Iteration      1(  19)  ---------------------------------------


    POTLOK:  cpu time    0.3770: real time    0.3796
    SETDIJ:  cpu time    0.0028: real time    0.0029
    TRIAL :  cpu time    2.6721: real time    2.7002
    CORREC:  cpu time    1.0479: real time    1.0707
    CHARGE:  cpu time    0.3072: real time    0.3135
    --------------------------------------------
      LOOP:  cpu time    4.4368: real time    4.5009

 eigenvalue-minimisations  :     0
 total energy-change (2. order) :-0.1252361E-04  (-0.4783694E-05)
 number of electron     216.0000000 magnetization 
 augmentation part       -0.4365877 magnetization 

 Free energy of the ion-electron system (eV)
  ---------------------------------------------------
  alpha Z        PSCENC =        47.94900195
  Ewald energy   TEWEN  =     47232.99051633
  -Hartree energ DENC   =    -54214.95772007
  -exchange      EXHF   =         0.00000000
  -V(xc)+E(xc)   XCENC  =       451.42462201
  PAW double counting   =    112478.66787420  -112217.90479464
  entropy T*S    EENTRO =        -0.00000000
  eigenvalues    EBANDS =     -2632.46166720
  atomic energy  EATOM  =      8369.52358910
  ---------------------------------------------------
  free energy    TOTEN  =      -484.76857830 eV

  energy without entropy =     -484.76857830  energy(sigma->0) =     -484.76857830


--------------------------------------------------------------------------------------------------------




--------------------------------------- Iteration      1(  20)  ---------------------------------------


    POTLOK:  cpu time    0.3758: real time    0.3784
    SETDIJ:  cpu time    0.0029: real time    0.0029
    TRIAL :  cpu time    2.6911: real time    2.7150
    CORREC:  cpu time    1.0608: real time    1.0698
    CHARGE:  cpu time    0.3116: real time    0.3139
    --------------------------------------------
      LOOP:  cpu time    4.4836: real time    4.5250

 eigenvalue-minimisations  :     0
 total energy-change (2. order) :-0.4554342E-05  (-0.1693788E-05)
 number of electron     216.0000000 magnetization 
 augmentation part       -0.4366004 magnetization 

 Free energy of the ion-electron system (eV)
  ---------------------------------------------------
  alpha Z        PSCENC =        47.94900195
  Ewald energy   TEWEN  =     47232.99051633
  -Hartree energ DENC   =    -54214.96199905
  -exchange      EXHF   =         0.00000000
  -V(xc)+E(xc)   XCENC  =       451.42435389
  PAW double counting   =    112484.33266312  -112223.56934430
  entropy T*S    EENTRO =        -0.00000000
  eigenvalues    EBANDS =     -2632.45736390
  atomic energy  EATOM  =      8369.52358910
  ---------------------------------------------------
  free energy    TOTEN  =      -484.76858286 eV

  energy without entropy =     -484.76858286  energy(sigma->0) =     -484.76858286


--------------------------------------------------------------------------------------------------------




--------------------------------------- Iteration      1(  21)  ---------------------------------------


    POTLOK:  cpu time    0.3780: real time    0.3805
    SETDIJ:  cpu time    0.0028: real time    0.0028
    TRIAL :  cpu time    2.6813: real time    2.7056
    CORREC:  cpu time    1.0566: real time    1.0656
    CHARGE:  cpu time    0.3090: real time    0.3140
    --------------------------------------------
      LOOP:  cpu time    4.4724: real time    4.5183

 eigenvalue-minimisations  :     0
 total energy-change (2. order) :-0.1607958E-05  (-0.7299511E-06)
 number of electron     216.0000000 magnetization 
 augmentation part       -0.4366044 magnetization 

 Free energy of the ion-electron system (eV)
  ---------------------------------------------------
  alpha Z        PSCENC =        47.94900195
  Ewald energy   TEWEN  =     47232.99051633
  -Hartree energ DENC   =    -54214.97310048
  -exchange      EXHF   =         0.00000000
  -V(xc)+E(xc)   XCENC  =       451.42482205
  PAW double counting   =    112486.05194455  -112225.28870726
  entropy T*S    EENTRO =        -0.00000000
  eigenvalues    EBANDS =     -2632.44665072
  atomic energy  EATOM  =      8369.52358910
  ---------------------------------------------------
  free energy    TOTEN  =      -484.76858446 eV

  energy without entropy =     -484.76858446  energy(sigma->0) =     -484.76858446


--------------------------------------------------------------------------------------------------------




--------------------------------------- Iteration      1(  22)  ---------------------------------------


    POTLOK:  cpu time    0.3775: real time    0.3800
    SETDIJ:  cpu time    0.0028: real time    0.0029
    TRIAL :  cpu time    2.6754: real time    2.6996
    CORREC:  cpu time    1.0552: real time    1.0638
    EDDIAG:  cpu time    0.5906: real time    0.5965
    CHARGE:  cpu time    0.3107: real time    0.3130
    --------------------------------------------
      LOOP:  cpu time    5.0630: real time    5.1085

 eigenvalue-minimisations  :     0
 total energy-change (2. order) :-0.7026683E-06  (-0.3293428E-06)
 number of electron     216.0000000 magnetization 
 augmentation part       -0.4366014 magnetization 

 Free energy of the ion-electron system (eV)
  ---------------------------------------------------
  alpha Z        PSCENC =        47.94900195
  Ewald energy   TEWEN  =     47232.99051633
  -Hartree energ DENC   =    -54214.96676088
  -exchange      EXHF   =         0.00000000
  -V(xc)+E(xc)   XCENC  =       451.42457466
  PAW double counting   =    112485.63096182  -112224.86773939
  entropy T*S    EENTRO =        -0.00000000
  eigenvalues    EBANDS =     -2632.45272876
  atomic energy  EATOM  =      8369.52358910
  ---------------------------------------------------
  free energy    TOTEN  =      -484.76858517 eV

  energy without entropy =     -484.76858517  energy(sigma->0) =     -484.76858517


--------------------------------------------------------------------------------------------------------


  average scaling for gradient   0.9392


 average (electrostatic) potential at core
  the test charge radii are     0.5770  0.5955
  (the norm of the test charge is              1.0000)
       1 -85.6427       2 -85.6384       3 -85.6480       4 -85.6557       5 -85.6353
       6 -85.6324       7 -85.6443       8 -85.6318       9 -85.6354      10 -85.6409
      11 -85.6347      12 -85.6382      13 -85.6394      14 -85.6345      15 -85.6324
      16 -85.6326      17 -85.6378      18 -85.6396      19 -85.6419      20 -85.6377
      21 -85.6290      22 -85.6306      23 -85.6573      24 -85.6557      25 -85.6339
      26 -85.6359      27 -85.6363      28 -85.6452      29 -85.6321      30 -85.6338
      31 -85.6523      32 -85.6447      33 -85.6391      34 -85.6354      35 -85.6341
      36 -85.6365      37 -85.6385      38 -85.6411      39 -85.6413      40 -85.6397
      41 -85.6402      42 -85.6428      43 -85.6373      44 -85.6424      45 -85.6335
      46 -85.6325      47 -85.6374      48 -85.6351      49 -85.6402      50 -85.6384
      51 -89.5323      52-120.3075      53-120.3091
 
 
 
 E-fermi :  -4.2269     XC(G=0):  -1.8767     alpha+bet : -1.6890

 Fermi energy:        -4.2269134261

 k-point     1 :       0.0000    0.0000    0.0000
  band No.  band energies     occupation 
      1     -27.6336      2.00000
      2     -26.6281      2.00000
      3     -22.3890      2.00000
      4     -21.4569      2.00000
      5     -21.4521      2.00000
      6     -21.4467      2.00000
      7     -21.4465      2.00000
      8     -21.4440      2.00000
      9     -21.4430      2.00000
     10     -19.6078      2.00000
     11     -19.6068      2.00000
     12     -19.6031      2.00000
     13     -19.6029      2.00000
     14     -19.6015      2.00000
     15     -19.6014      2.00000
     16     -18.7083      2.00000
     17     -18.7074      2.00000
     18     -18.7063      2.00000
     19     -18.7048      2.00000
     20     -18.7043      2.00000
     21     -18.7040      2.00000
     22     -16.5409      2.00000
     23     -16.5402      2.00000
     24     -16.5384      2.00000
     25     -16.5378      2.00000
     26     -16.5345      2.00000
     27     -16.5343      2.00000
     28     -15.5545      2.00000
     29     -15.5540      2.00000
     30     -15.5513      2.00000
     31     -15.5511      2.00000
     32     -15.5504      2.00000
     33     -15.5501      2.00000
     34     -14.1996      2.00000
     35     -14.1995      2.00000
     36     -14.1990      2.00000
     37     -14.1980      2.00000
     38     -14.1979      2.00000
     39     -14.1973      2.00000
     40     -12.4467      2.00000
     41     -11.8107      2.00000
     42     -11.8106      2.00000
     43     -11.8088      2.00000
     44     -11.8087      2.00000
     45     -11.8086      2.00000
     46     -11.8083      2.00000
     47     -11.7151      2.00000
     48     -11.7147      2.00000
     49     -11.7128      2.00000
     50     -11.7126      2.00000
     51     -11.7103      2.00000
     52     -11.7100      2.00000
     53     -11.2597      2.00000
     54     -11.2306      2.00000
     55     -11.1888      2.00000
     56     -10.4643      2.00000
     57     -10.3356      2.00000
     58     -10.3355      2.00000
     59     -10.3351      2.00000
     60     -10.3348      2.00000
     61     -10.3337      2.00000
     62     -10.3336      2.00000
     63      -9.3683      2.00000
     64      -9.3620      2.00000
     65      -9.3618      2.00000
     66      -9.3579      2.00000
     67      -9.3566      2.00000
     68      -9.3518      2.00000
     69      -9.0588      2.00000
     70      -9.0560      2.00000
     71      -9.0556      2.00000
     72      -9.0539      2.00000
     73      -9.0534      2.00000
     74      -9.0524      2.00000
     75      -9.0084      2.00000
     76      -9.0082      2.00000
     77      -9.0078      2.00000
     78      -9.0058      2.00000
     79      -9.0050      2.00000
     80      -9.0044      2.00000
     81      -7.6778      2.00000
     82      -7.6466      2.00000
     83      -7.4000      2.00000
     84      -7.3997      2.00000
     85      -7.3997      2.00000
     86      -7.3982      2.00000
     87      -7.3953      2.00000
     88      -7.3952      2.00000
     89      -7.2403      2.00000
     90      -7.2392      2.00000
     91      -7.2303      2.00000
     92      -7.2300      2.00000
     93      -7.2283      2.00000
     94      -7.1965      2.00000
     95      -6.3444      2.00000
     96      -6.3416      2.00000
     97      -6.3385      2.00000
     98      -6.3340      2.00000
     99      -6.3328      2.00000
    100      -6.3239      2.00000
    101      -5.9105      2.00000
    102      -5.9083      2.00000
    103      -4.3618      2.00000
    104      -4.3591      2.00000
    105      -4.3561      2.00000
    106      -4.3546      2.00000
    107      -4.3497      2.00000
    108      -4.3492      2.00000
    109      -1.5605      0.00000
    110      -1.5592      0.00000
    111      -1.5516      0.00000
    112      -1.5505      0.00000
    113      -1.5485      0.00000
    114      -1.5475      0.00000
    115       0.1815      0.00000
    116       0.3016      0.00000
    117       0.3052      0.00000
    118       0.3078      0.00000
    119       0.3141      0.00000
    120       0.3151      0.00000
    121       0.3169      0.00000
    122       0.8190      0.00000
    123       0.8514      0.00000
    124       0.8631      0.00000
    125       1.3791      0.00000
    126       1.4597      0.00000
    127       1.5998      0.00000
    128       1.6707      0.00000
    129       1.6812      0.00000
    130       1.6827      0.00000
    131       1.7239      0.00000
    132       2.0482      0.00000
    133       2.0551      0.00000
    134       2.0577      0.00000
    135       2.0598      0.00000
    136       2.0754      0.00000
    137       2.0815      0.00000
    138       2.1197      0.00000
    139       2.5266      0.00000
    140       3.0418      0.00000


--------------------------------------------------------------------------------------------------------


 soft charge-density along one line, spin component           1
         0         1         2         3         4         5         6         7         8         9
 total charge-density along one line
 
 pseudopotential strength for first ion, spin component:           1
 12.703  21.376  -0.000   0.000   0.000  -0.000   0.000   0.000
 21.376  35.971  -0.000   0.000   0.000  -0.000   0.000   0.000
 -0.000  -0.000  -3.170  -0.000   0.000  -5.681  -0.000   0.000
  0.000   0.000  -0.000  -3.171  -0.000  -0.000  -5.683  -0.000
  0.000   0.000   0.000  -0.000  -3.170   0.000  -0.000  -5.681
 -0.000  -0.000  -5.681  -0.000   0.000 -10.161  -0.000   0.000
  0.000   0.000  -0.000  -5.683  -0.000  -0.000 -10.164  -0.000
  0.000   0.000   0.000  -0.000  -5.681   0.000  -0.000 -10.161
 total augmentation occupancy for first ion, spin component:           1
  7.879  -2.765  -0.000  -0.002   0.000   0.000   0.001  -0.000
 -2.765   1.007   0.000   0.001  -0.000  -0.000  -0.000   0.000
 -0.000   0.000   7.263  -0.008   0.000  -2.462   0.003  -0.000
 -0.002   0.001  -0.008   3.234  -0.000   0.003  -0.862   0.000
  0.000  -0.000   0.000  -0.000   7.263  -0.000   0.000  -2.461
  0.000  -0.000  -2.462   0.003  -0.000   0.849  -0.001   0.000
  0.001  -0.000   0.003  -0.862   0.000  -0.001   0.236  -0.000
 -0.000   0.000  -0.000   0.000  -2.461   0.000  -0.000   0.849


------------------------ aborting loop because EDIFF is reached ----------------------------------------


    FORLOC:  cpu time    0.0663: real time    0.0669
    FORNL :  cpu time    1.0801: real time    1.0932
    FORCOR:  cpu time    0.3958: real time    0.3986
    OFIELD:  cpu time    0.0017: real time    0.0018

 VOLUME and BASIS-vectors are now :
 -----------------------------------------------------------------------------
  energy-cutoff  :     1000.00
  volume of cell :     3288.85
      direct lattice vectors                 reciprocal lattice vectors
    12.325000000  0.000000000  0.000000000     0.081135903  0.046843835  0.000000000
    -6.162500000 10.673763102  0.000000000     0.000000000  0.093687670  0.000000000
     0.000000000  0.000000000 25.000000000     0.000000000  0.000000000  0.040000000

  length of vectors
    12.325000000 12.325000000 25.000000000     0.093687670  0.093687670  0.040000000


 FORCES acting on ions:
    Electron-Ion                     Ewald-Force                    Non-Local-Force
 -----------------------------------------------------------------------------------------------
   0.103E+02 0.901E+01 0.257E+02   -.103E+02 -.901E+01 -.257E+02   0.135E-01 -.441E-02 0.104E-01
   0.167E+02 0.823E+01 0.329E+02   -.167E+02 -.822E+01 -.329E+02   0.193E-01 -.113E-01 -.101E-01
   0.812E+01 0.209E+02 0.402E+02   -.812E+01 -.209E+02 -.402E+02   -.244E-02 0.423E-01 0.239E-01
   0.126E+02 0.185E+02 0.621E+02   -.127E+02 -.185E+02 -.622E+02   0.470E-01 0.191E-01 0.642E-01
   0.112E+02 0.264E+01 0.258E+02   -.112E+02 -.263E+01 -.257E+02   0.400E-02 -.157E-01 -.597E-02
   0.117E+02 -.202E+01 0.263E+02   -.117E+02 0.203E+01 -.263E+02   -.171E-01 -.231E-02 -.155E-01
   0.219E+02 0.877E+01 0.539E+02   -.219E+02 -.872E+01 -.539E+02   0.484E-01 -.538E-01 -.760E-02
   0.215E+02 -.734E+01 0.570E+02   -.215E+02 0.737E+01 -.569E+02   0.926E-02 -.271E-01 -.745E-01
   -.908E+01 0.192E+02 0.410E+02   0.911E+01 -.192E+02 -.410E+02   -.187E-01 -.565E-02 -.350E-01
   -.162E+02 0.138E+02 0.602E+02   0.163E+02 -.139E+02 -.601E+02   -.690E-01 0.407E-01 -.455E-01
   0.275E+01 -.246E+01 0.211E+02   -.274E+01 0.245E+01 -.211E+02   -.376E-02 0.242E-02 -.575E-02
   0.221E+01 -.180E+01 0.197E+02   -.220E+01 0.180E+01 -.197E+02   -.146E-01 0.637E-02 0.160E-02
   0.835E+01 -.196E+02 0.645E+02   -.843E+01 0.196E+02 -.644E+02   0.805E-01 -.274E-01 -.522E-01
   0.394E+01 -.210E+02 0.410E+02   -.397E+01 0.210E+02 -.409E+02   0.240E-01 0.389E-03 -.387E-01
   -.997E+01 0.626E+01 0.252E+02   0.996E+01 -.626E+01 -.252E+02   0.139E-01 -.725E-02 -.787E-02
   -.147E+02 0.416E+01 0.291E+02   0.147E+02 -.417E+01 -.291E+02   -.267E-02 0.111E-01 -.256E-01
   -.152E+01 -.619E+00 0.190E+02   0.152E+01 0.616E+00 -.190E+02   -.575E-02 0.112E-02 0.886E-03
   0.825E+00 0.555E+01 0.202E+02   -.819E+00 -.555E+01 -.202E+02   -.822E-02 0.391E-02 0.860E-02
   -.301E+01 -.176E+02 0.316E+02   0.299E+01 0.176E+02 -.316E+02   0.239E-01 -.716E-02 0.413E-02
   -.131E+01 -.859E+01 0.222E+02   0.130E+01 0.860E+01 -.222E+02   0.585E-02 -.578E-02 -.211E-02
   0.172E+02 -.751E+01 0.355E+02   -.172E+02 0.751E+01 -.354E+02   -.417E-02 -.601E-02 -.493E-01
   0.103E+02 -.889E+01 0.281E+02   -.103E+02 0.888E+01 -.281E+02   -.124E-01 0.143E-01 -.193E-01
   -.413E+01 0.903E+01 0.779E+02   0.418E+01 -.907E+01 -.780E+02   -.527E-01 0.447E-01 0.794E-01
   -.696E+01 -.143E+02 0.740E+02   0.692E+01 0.144E+02 -.741E+02   0.365E-01 -.572E-01 0.687E-01
   0.483E+01 -.212E+01 0.212E+02   -.481E+01 0.211E+01 -.212E+02   -.770E-02 0.131E-02 -.991E-02
   0.908E+00 0.432E+01 0.214E+02   -.901E+00 -.433E+01 -.214E+02   -.125E-01 0.620E-02 -.931E-03
   -.220E+02 0.262E+01 0.451E+02   0.220E+02 -.265E+01 -.451E+02   -.356E-02 0.256E-01 -.359E-01
   -.202E+02 -.858E+01 0.409E+02   0.203E+02 0.855E+01 -.410E+02   -.350E-01 0.284E-01 0.691E-02
   0.628E+01 -.128E+02 0.294E+02   -.629E+01 0.128E+02 -.294E+02   0.118E-01 0.720E-02 -.236E-01
   0.585E+00 -.479E+01 0.226E+02   -.594E+00 0.478E+01 -.225E+02   0.733E-03 0.777E-02 -.954E-02
   -.163E+02 -.175E+02 0.502E+02   0.163E+02 0.176E+02 -.503E+02   -.416E-01 -.258E-01 0.387E-01
   -.941E+01 -.172E+02 0.337E+02   0.942E+01 0.172E+02 -.337E+02   0.222E-04 -.242E-01 0.162E-01
   0.572E+00 0.234E+01 0.196E+02   -.578E+00 -.233E+01 -.196E+02   0.116E-01 -.816E-02 0.374E-02
   0.161E+01 0.236E+01 0.210E+02   -.162E+01 -.235E+01 -.210E+02   0.378E-03 -.174E-02 -.616E-02
   -.696E+01 0.883E+00 0.229E+02   0.696E+01 -.890E+00 -.229E+02   0.902E-02 0.134E-02 -.268E-02
   -.600E+01 -.240E+01 0.223E+02   0.600E+01 0.240E+01 -.223E+02   -.107E-01 0.800E-02 -.283E-02
   -.122E+02 -.634E+01 0.262E+02   0.122E+02 0.634E+01 -.262E+02   -.147E-01 0.386E-02 0.258E-03
   -.707E+01 -.573E+01 0.220E+02   0.708E+01 0.573E+01 -.220E+02   -.105E-01 0.292E-02 0.989E-02
   -.663E+01 -.866E+01 0.235E+02   0.664E+01 0.867E+01 -.235E+02   -.107E-01 -.652E-02 0.745E-02
   -.978E+00 -.207E+01 0.201E+02   0.976E+00 0.207E+01 -.201E+02   0.256E-02 -.204E-02 0.821E-02
   0.249E+01 0.598E+01 0.210E+02   -.249E+01 -.599E+01 -.210E+02   -.460E-02 0.873E-02 0.788E-02
   0.824E+01 0.129E+02 0.272E+02   -.825E+01 -.129E+02 -.273E+02   0.101E-01 0.102E-01 0.139E-01
   0.662E+00 0.106E+02 0.233E+02   -.651E+00 -.106E+02 -.233E+02   -.793E-02 0.803E-02 -.167E-02
   0.689E-01 0.196E+02 0.346E+02   -.417E-01 -.196E+02 -.346E+02   -.309E-01 0.113E-01 0.496E-02
   -.201E+01 0.400E+01 0.225E+02   0.202E+01 -.399E+01 -.225E+02   0.152E-02 -.687E-02 -.699E-02
   -.845E+01 0.107E+02 0.279E+02   0.845E+01 -.107E+02 -.279E+02   -.107E-01 -.115E-02 -.200E-01
   -.147E+01 -.410E+01 0.209E+02   0.146E+01 0.410E+01 -.209E+02   0.139E-01 -.249E-02 0.112E-02
   -.380E+01 0.154E+01 0.200E+02   0.378E+01 -.153E+01 -.200E+02   0.630E-02 -.111E-03 -.842E-02
   0.304E+00 -.255E+01 0.198E+02   -.307E+00 0.255E+01 -.198E+02   0.798E-02 -.393E-02 0.576E-02
   0.402E+01 0.295E+01 0.200E+02   -.403E+01 -.294E+01 -.200E+02   0.593E-02 0.192E-02 0.306E-02
   0.121E+00 -.861E-01 -.402E+03   -.117E+00 0.838E-01 0.402E+03   -.822E-02 0.456E-02 -.145E-01
   -.229E+03 0.156E+03 -.617E+03   0.279E+03 -.190E+03 0.620E+03   -.510E+02 0.347E+02 -.325E+01
   0.229E+03 -.156E+03 -.594E+03   -.279E+03 0.190E+03 0.591E+03   0.510E+02 -.347E+02 0.325E+01
 -----------------------------------------------------------------------------------------------
   0.189E-01 0.270E-02 0.153E+00   0.114E-12 -.853E-13 0.568E-12   -.193E-01 -.268E-02 -.152E+00
 
 
 POSITION                                       TOTAL-FORCE (eV/Angst)
 -----------------------------------------------------------------------------------
     11.98348      0.00342      0.01417         0.001962      0.000145     -0.001500
     -0.34154      1.42665      0.01100        -0.001101      0.000646     -0.002864
      2.12355      0.00315      0.01249         0.000548     -0.003553     -0.003547
      2.12326      1.42653      0.00641        -0.002564     -0.001785     -0.007790
     10.75099      2.13819      0.01213         0.000630     -0.004419      0.000605
     -1.57382      3.56123      0.01110        -0.005017      0.006733     -0.001004
      0.89078      2.13854      0.00548        -0.003066     -0.003477     -0.005045
      0.89099      3.56147      0.00181        -0.011531      0.005354     -0.007152
      4.58864      0.00346      0.01135         0.006640     -0.005555     -0.005905
      4.58894      1.42623      0.00646        -0.002104      0.000373     -0.007620
      9.51854      4.27281      0.01369         0.007444     -0.006290      0.000128
     -2.80632      5.69591      0.01434        -0.007736      0.004266      0.000938
      2.12300      4.27302      0.00000         0.001290      0.006701     -0.008527
      2.12335      5.69594      0.00581        -0.003177     -0.000043     -0.004611
      7.05344      0.00333      0.01399         0.006504     -0.003026      0.000253
      7.05353      1.42635      0.01368        -0.003885      0.004642     -0.003094
      8.28610      6.40752      0.01601         0.003581     -0.001955     -0.000627
     -4.03885      7.83070      0.01636        -0.002264      0.002303     -0.000161
      3.35586      6.40753      0.01007         0.002028      0.000574     -0.001257
      3.35599      7.83072      0.01320        -0.003008      0.000156     -0.000275
     -0.34146      4.27290      0.00723         0.005481     -0.004845     -0.004535
     -0.34138      5.69591      0.00946        -0.007319      0.003280      0.000153
      3.35624      2.13791      0.00222         0.002744     -0.001867     -0.010345
      3.35573      3.56155      0.00139         0.002245      0.002698     -0.009389
     -1.57395      6.40758      0.01311         0.009232     -0.004056     -0.000835
     -1.57385      7.83068      0.01438        -0.004840      0.004071      0.000218
      5.82093      2.13784      0.01033         0.009030     -0.003252     -0.007506
      5.82114      3.56097      0.01156        -0.000758      0.002200     -0.003406
      0.89092      6.40755      0.00907         0.004118      0.000172     -0.000860
      0.89106      7.83068      0.01235        -0.008268      0.000461      0.000155
      4.58871      4.27293      0.00850         0.001864     -0.001688     -0.006773
      4.58852      5.69606      0.01149         0.001431      0.006266     -0.002892
      9.51845      0.00337      0.01490         0.005370     -0.005449      0.000304
      9.51855      1.42644      0.01438        -0.004411      0.008326     -0.000487
      8.28593      2.13803      0.01453         0.003661     -0.005213      0.000625
      8.28613      3.56115      0.01464        -0.004483      0.001763      0.000112
      7.05356      4.27269      0.01457         0.003438     -0.000474     -0.000284
      7.05362      5.69588      0.01553        -0.002432      0.000509     -0.000361
      5.82112      6.40755      0.01489        -0.001204      0.001485     -0.000401
      5.82102      7.83073      0.01579         0.001322      0.001511     -0.000409
      7.05363      8.54227      0.01631        -0.003122     -0.000575      0.000960
     -5.27149      9.96549      0.01495        -0.001515     -0.002709     -0.002581
     -2.80638      8.54234      0.01558         0.002779     -0.001379     -0.000934
     -2.80627      9.96553      0.01362        -0.002921     -0.000348     -0.003411
     -0.34149      8.54239      0.01378         0.006107     -0.001883      0.000260
     -0.34138      9.96550      0.01354        -0.006569      0.002297     -0.000574
      2.12343      8.54232      0.01336         0.006290     -0.001415      0.000887
      2.12354      9.96544      0.01469        -0.007688      0.004334     -0.002080
      4.58846      8.54235      0.01505         0.004547     -0.003793      0.000958
      4.58853      9.96550      0.01517        -0.003254      0.003420      0.000453
      3.04930      2.68154      3.33710        -0.003903      0.002169      0.034819
      4.02070      2.02068      3.40152        -0.526549      0.362499     -0.000430
      2.07767      3.34267      3.27764         0.534403     -0.370309      0.077647
 -----------------------------------------------------------------------------------
    total drift:                               -0.000309      0.000016      0.000858


--------------------------------------------------------------------------------------------------------



  FREE ENERGIE OF THE ION-ELECTRON SYSTEM (eV)
  ---------------------------------------------------
  free  energy   TOTEN  =      -484.76858517 eV

  energy  without entropy=     -484.76858517  energy(sigma->0) =     -484.76858517
 


--------------------------------------------------------------------------------------------------------


    POTLOK:  cpu time    0.3783: real time    0.3808


--------------------------------------------------------------------------------------------------------


     LOOP+:  cpu time  140.8637: real time  142.5970
    4ORBIT:  cpu time    0.0000: real time    0.0000

 total amount of memory used by VASP MPI-rank0   215378. kBytes
=======================================================================

   base      :      30000. kBytes
   nonl-proj :      57634. kBytes
   fftplans  :      45914. kBytes
   grid      :      67588. kBytes
   one-center:         43. kBytes
   wavefun   :      14199. kBytes
 
  
  
 General timing and accounting informations for this job:
 ========================================================
  
                  Total CPU time used (sec):      185.406
                            User time (sec):      167.392
                          System time (sec):       18.014
                         Elapsed time (sec):      188.540
  
                   Maximum memory used (kb):      584632.
                   Average memory used (kb):          N/A
  
                          Minor page faults:       221118
                          Major page faults:           82
                 Voluntary context switches:         3659
