 vasp.6.2.1 16May21 (build Nov 06 2021 14:46:37) complex                        
  
 executed on             LinuxIFC date 2025.03.03  17:10:05
 running on  112 total cores
 distrk:  each k-point on  112 cores,    1 groups
 distr:  one band on NCORE=   4 cores,   28 groups


--------------------------------------------------------------------------------------------------------


 INCAR:
   ALGO = Conjugate
   NCORE = 4
   ISMEAR = 0
   SIGMA = 0.01
   PREC = Accurate
   EDIFF = 1E-6
   ENCUT = 1000
   ISIF = 0
   LWAVE = .FALSE.
   LCHARGE = .FALSE.
   SYMPREC = 1E-6

 POTCAR:    PAW_PBE C_h 06Feb2004                 
 POTCAR:    PAW_PBE O_h 06Feb2004                 
 -----------------------------------------------------------------------------
|                                                                             |
|           W    W    AA    RRRRR   N    N  II  N    N   GGGG   !!!           |
|           W    W   A  A   R    R  NN   N  II  NN   N  G    G  !!!           |
|           W    W  A    A  R    R  N N  N  II  N N  N  G       !!!           |
|           W WW W  AAAAAA  RRRRR   N  N N  II  N  N N  G  GGG   !            |
|           WW  WW  A    A  R   R   N   NN  II  N   NN  G    G                |
|           W    W  A    A  R    R  N    N  II  N    N   GGGG   !!!           |
|                                                                             |
|     For optimal performance we recommend to set                             |
|       NCORE = 2 up to number-of-cores-per-socket                            |
|     NCORE specifies how many cores store one orbital (NPAR=cpu/NCORE).      |
|     This setting can greatly improve the performance of VASP for DFT.       |
|     The default, NCORE=1 might be grossly inefficient on modern             |
|     multi-core architectures or massively parallel machines. Do your        |
|     own testing! More info at https://www.vasp.at/wiki/index.php/NCORE      |
|     Unfortunately you need to use the default for GW and RPA                |
|     calculations (for HF NCORE is supported but not extensively tested      |
|     yet).                                                                   |
|                                                                             |
 -----------------------------------------------------------------------------

 POTCAR:    PAW_PBE C_h 06Feb2004                 
   VRHFIN =C: s2p2                                                                                  
   LEXCH  = PE                                                                                      
   EATOM  =   147.1560 eV,   10.8157 Ry                                                             
                                                                                                    
   TITEL  = PAW_PBE C_h 06Feb2004                                                                   
   LULTRA =        F    use ultrasoft PP ?                                                          
   IUNSCR =        1    unscreen: 0-lin 1-nonlin 2-no                                               
   RPACOR =    0.800    partial core radius                                                         
   POMASS =   12.011; ZVAL   =    4.000    mass and valenz                                          
   RCORE  =    1.100    outmost cutoff radius                                                       
   RWIGS  =    1.630; RWIGS  =    0.863    wigner-seitz radius (au A)                               
   ENMAX  =  700.000; ENMIN  =  500.000 eV                                                          
   ICORE  =        2    local potential                                                             
   LCOR   =        T    correct aug charges                                                         
   LPAW   =        T    paw PP                                                                      
   EAUG   =  946.768                                                                                
   DEXC   =    0.000                                                                                
   RMAX   =    1.128    core radius for proj-oper                                                   
   RAUG   =    1.300    factor for augmentation sphere                                              
   RDEP   =    1.162    radius for radial grids                                                     
   RDEPT  =    1.088    core radius for aug-charge                                                  
                                                                                                    
   Atomic configuration                                                                             
    4 entries                                                                                       
     n  l   j            E        occ.                                                              
     1  0  0.50      -273.3789   2.0000                                                             
     2  0  0.50       -13.7508   2.0000                                                             
     2  1  0.50        -5.2854   2.0000                                                             
     3  2  1.50        -5.4423   0.0000                                                             
   Description                                                                                      
     l       E           TYP  RCUT    TYP  RCUT                                                     
     0    -13.7508458     23  1.100                                                                 
     0     -8.2022199     23  1.100                                                                 
     1     -5.2854383     23  1.100                                                                 
     1      1.1560700     23  1.100                                                                 
     2     -5.4423304      7  1.100                                                                 
  local pseudopotential read in
  partial core-charges read in
  partial kinetic energy density read in
  atomic valenz-charges read in
  non local Contribution for L=           0  read in
    real space projection operators read in
  non local Contribution for L=           0  read in
    real space projection operators read in
  non local Contribution for L=           1  read in
    real space projection operators read in
  non local Contribution for L=           1  read in
    real space projection operators read in
    PAW grid and wavefunctions read in
 
   number of l-projection  operators is LMAX  =           4
   number of lm-projection operators is LMMAX =           8
 
 POTCAR:    PAW_PBE O_h 06Feb2004                 
   VRHFIN =O: s2p4                                                                                  
   LEXCH  = PE                                                                                      
   EATOM  =   432.3788 eV,   31.7789 Ry                                                             
                                                                                                    
   TITEL  = PAW_PBE O_h 06Feb2004                                                                   
   LULTRA =        F    use ultrasoft PP ?                                                          
   IUNSCR =        1    unscreen: 0-lin 1-nonlin 2-no                                               
   RPACOR =    0.800    partial core radius                                                         
   POMASS =   16.000; ZVAL   =    6.000    mass and valenz                                          
   RCORE  =    1.100    outmost cutoff radius                                                       
   RWIGS  =    1.400; RWIGS  =    0.741    wigner-seitz radius (au A)                               
   ENMAX  =  700.000; ENMIN  =  500.000 eV                                                          
   ICORE  =        2    local potential                                                             
   LCOR   =        T    correct aug charges                                                         
   LPAW   =        T    paw PP                                                                      
   EAUG   =  888.804                                                                                
   DEXC   =    0.000                                                                                
   RMAX   =    1.128    core radius for proj-oper                                                   
   RAUG   =    1.300    factor for augmentation sphere                                              
   RDEP   =    1.125    radius for radial grids                                                     
   RDEPT  =    1.088    core radius for aug-charge                                                  
                                                                                                    
   Atomic configuration                                                                             
    4 entries                                                                                       
     n  l   j            E        occ.                                                              
     1  0  0.50      -514.6923   2.0000                                                             
     2  0  0.50       -23.9615   2.0000                                                             
     2  1  0.50        -9.0305   4.0000                                                             
     3  2  1.50        -9.5241   0.0000                                                             
   Description                                                                                      
     l       E           TYP  RCUT    TYP  RCUT                                                     
     0    -23.9615319     23  1.100                                                                 
     0    -25.3221145     23  1.100                                                                 
     1     -9.0304911     23  1.100                                                                 
     1     -5.4802209     23  1.100                                                                 
     2     -9.5240782      7  1.100                                                                 
  local pseudopotential read in
  partial core-charges read in
  partial kinetic energy density read in
  atomic valenz-charges read in
  non local Contribution for L=           0  read in
    real space projection operators read in
  non local Contribution for L=           0  read in
    real space projection operators read in
  non local Contribution for L=           1  read in
    real space projection operators read in
  non local Contribution for L=           1  read in
    real space projection operators read in
    PAW grid and wavefunctions read in
 
   number of l-projection  operators is LMAX  =           4
   number of lm-projection operators is LMMAX =           8
 
 -----------------------------------------------------------------------------
|                                                                             |
|               ----> ADVICE to this user running VASP <----                  |
|                                                                             |
|     You have a (more or less) 'large supercell' and for larger cells it     |
|     might be more efficient to use real-space projection operators.         |
|     Therefore, try LREAL= Auto in the INCAR file.                           |
|     Mind: For very accurate calculation, you might also keep the            |
|     reciprocal projection scheme (i.e. LREAL=.FALSE.).                      |
|                                                                             |
 -----------------------------------------------------------------------------

  PAW_PBE C_h 06Feb2004                 :
 energy of atom  1       EATOM= -147.1560
 kinetic energy error for atom=    0.0031 (will be added to EATOM!!)
  PAW_PBE O_h 06Feb2004                 :
 energy of atom  2       EATOM= -432.3788
 kinetic energy error for atom=    0.0171 (will be added to EATOM!!)
 
 
 POSCAR:  C  O
  positions in cartesian coordinates
  No initial velocities read in
 exchange correlation table for  LEXCH =        8
   RHO(1)=    0.500       N(1)  =     2000
   RHO(2)=  100.500       N(2)  =     4000
 


--------------------------------------------------------------------------------------------------------


 ion  position               nearest neighbor table
   1  0.972  0.000  0.001-  50 1.42   2 1.42  42 1.42
   2  0.039  0.134  0.001-   5 1.42   7 1.42   1 1.42
   3  0.172  0.000  0.001-  42 1.42  44 1.42   4 1.42
   4  0.239  0.134  0.000-   7 1.42   3 1.42  23 1.42
   5  0.972  0.200  0.001-   6 1.42   2 1.42  34 1.42
   6  0.039  0.334  0.001-   5 1.42  21 1.42  11 1.42
   7  0.172  0.200  0.000-   8 1.42   2 1.42   4 1.42
   8  0.239  0.334  0.000-  13 1.42   7 1.42  21 1.42
   9  0.372  0.000  0.001-  10 1.42  44 1.42  46 1.42
  10  0.439  0.134  0.000-  27 1.42   9 1.42  23 1.42
  11  0.972  0.400  0.001-  12 1.42  36 1.42   6 1.42
  12  0.039  0.534  0.001-  25 1.42  11 1.42  17 1.42
  13  0.372  0.400  0.000-   8 1.42  14 1.42  24 1.42
  14  0.439  0.534  0.000-  13 1.42  29 1.42  19 1.42
  15  0.572  0.000  0.001-  46 1.42  16 1.42  48 1.42
  16  0.639  0.134  0.001-  15 1.42  35 1.42  27 1.42
  17  0.972  0.600  0.001-  38 1.42  18 1.42  12 1.42
  18  0.039  0.734  0.001-  43 1.42  41 1.42  17 1.42
  19  0.572  0.600  0.001-  14 1.42  20 1.42  32 1.42
  20  0.639  0.734  0.001-  49 1.42  19 1.42  47 1.42
  21  0.172  0.400  0.000-  22 1.42   8 1.42   6 1.42
  22  0.239  0.534  0.000-  21 1.42  29 1.42  25 1.42
  23  0.372  0.200  0.000-  10 1.42   4 1.42  24 1.42
  24  0.439  0.334  0.000-  13 1.42  31 1.42  23 1.42
  25  0.172  0.600  0.001-  26 1.42  12 1.42  22 1.42
  26  0.239  0.734  0.001-  25 1.42  45 1.42  43 1.42
  27  0.572  0.200  0.001-  10 1.42  28 1.42  16 1.42
  28  0.639  0.334  0.001-  27 1.42  37 1.42  31 1.42
  29  0.372  0.600  0.000-  22 1.42  14 1.42  30 1.42
  30  0.439  0.734  0.001-  47 1.42  29 1.42  45 1.42
  31  0.572  0.400  0.000-  32 1.42  28 1.42  24 1.42
  32  0.639  0.534  0.001-  31 1.42  39 1.42  19 1.42
  33  0.772  0.000  0.001-  34 1.42  48 1.42  50 1.42
  34  0.839  0.134  0.001-  33 1.42   5 1.42  35 1.42
  35  0.772  0.200  0.001-  36 1.42  16 1.42  34 1.42
  36  0.839  0.334  0.001-  35 1.42  11 1.42  37 1.42
  37  0.772  0.400  0.001-  28 1.42  38 1.42  36 1.42
  38  0.839  0.534  0.001-  17 1.42  37 1.42  39 1.42
  39  0.772  0.600  0.001-  40 1.42  38 1.42  32 1.42
  40  0.839  0.734  0.001-  39 1.42  49 1.42  41 1.42
  41  0.972  0.800  0.001-  18 1.42  42 1.42  40 1.42
  42  0.039  0.934  0.001-   3 1.42  41 1.42   1 1.42
  43  0.172  0.800  0.001-  18 1.42  44 1.42  26 1.42
  44  0.239  0.934  0.001-   9 1.42  43 1.42   3 1.42
  45  0.372  0.800  0.001-  26 1.42  46 1.42  30 1.42
  46  0.439  0.934  0.001-  15 1.42  45 1.42   9 1.42
  47  0.572  0.800  0.001-  30 1.42  48 1.42  20 1.42
  48  0.639  0.934  0.001-  47 1.42  33 1.42  15 1.42
  49  0.772  0.800  0.001-  50 1.42  20 1.42  40 1.42
  50  0.839  0.934  0.001-  49 1.42   1 1.42  33 1.42
  51  0.373  0.251  0.500-  52 1.18  53 1.18
  52  0.421  0.189  0.503-  51 1.18
  53  0.325  0.313  0.497-  51 1.18
 
  LATTYP: Found a hexagonal cell.
 ALAT       =    12.3250000000
 C/A-ratio  =     1.6227180527
  
  Lattice vectors:
  
 A1 = (  12.3250000000,   0.0000000000,   0.0000000000)
 A2 = (  -6.1625000000,  10.6737631016,   0.0000000000)
 A3 = (   0.0000000000,   0.0000000000,  20.0000000000)


Analysis of symmetry for initial positions (statically):
=====================================================================
 Subroutine PRICEL returns:
 Original cell was already a primitive cell.
 

 Routine SETGRP: Setting up the symmetry group for a 
 hexagonal supercell.


 Subroutine GETGRP returns: Found  1 space group operations
 (whereof  1 operations were pure point group operations)
 out of a pool of 24 trial point group operations.


The static configuration has the point symmetry C_1 .


Analysis of symmetry for dynamics (positions and initial velocities):
=====================================================================
 Subroutine PRICEL returns:
 Original cell was already a primitive cell.
 

 Routine SETGRP: Setting up the symmetry group for a 
 hexagonal supercell.


 Subroutine GETGRP returns: Found  1 space group operations
 (whereof  1 operations were pure point group operations)
 out of a pool of 24 trial point group operations.


The dynamic configuration has the point symmetry C_1 .


 Subroutine INISYM returns: Found  1 space group operations
 (whereof  1 operations are pure point group operations),
 and found     1 'primitive' translations


----------------------------------------------------------------------------------------

                                     Primitive cell                                     

  volume of cell :    2631.0826

  direct lattice vectors                    reciprocal lattice vectors
    12.325000000  0.000000000  0.000000000     0.081135903  0.046843835  0.000000000
    -6.162500000 10.673763102  0.000000000     0.000000000  0.093687670  0.000000000
     0.000000000  0.000000000 20.000000000     0.000000000  0.000000000  0.050000000

  length of vectors
    12.325000000 12.325000000 20.000000000     0.093687670  0.093687670  0.050000000

  position of ions in fractional coordinates (direct lattice)
     0.972450841  0.000320818  0.000708389
     0.039118382  0.133659505  0.000550216
     0.172443627  0.000295449  0.000624535
     0.239096278  0.133647917  0.000320585
     0.972452058  0.200322012  0.000606523
     0.039128360  0.333643771  0.000555187
     0.172451764  0.200354552  0.000273959
     0.239124359  0.333665720  0.000090325
     0.372465565  0.000324403  0.000567391
     0.439137473  0.133619939  0.000322923
     0.972449824  0.400309362  0.000684513
     0.039124981  0.533636789  0.000716763
     0.372416176  0.400329481  0.000000000
     0.439099602  0.533638981  0.000290518
     0.572443676  0.000312125  0.000699475
     0.639110207  0.133631751  0.000684093
     0.972452703  0.600305653  0.000800361
     0.039124495  0.733640359  0.000818141
     0.572433471  0.600306242  0.000503618
     0.639111888  0.733641879  0.000659881
     0.172454630  0.400318228  0.000361306
     0.239120185  0.533636548  0.000473136
     0.372459750  0.200295993  0.000111246
     0.439107096  0.333673419  0.000069702
     0.172452155  0.600311506  0.000655425
     0.239123371  0.733638574  0.000718912
     0.572431082  0.200289171  0.000516621
     0.639112773  0.333618630  0.000577970
     0.372439808  0.600308022  0.000453556
     0.439116090  0.733637858  0.000617737
     0.572469358  0.400320504  0.000424897
     0.639119408  0.533650873  0.000574513
     0.772445723  0.000315427  0.000745201
     0.839116277  0.133640203  0.000719132
     0.772440513  0.200307432  0.000726291
     0.839120241  0.333635728  0.000731834
     0.772446320  0.400298367  0.000728722
     0.839118980  0.533633964  0.000776376
     0.772456143  0.600308173  0.000744639
     0.839115033  0.733643180  0.000789390
     0.972455313  0.800305582  0.000815291
     0.039114714  0.933643289  0.000747563
     0.172457971  0.800312211  0.000779216
     0.239134551  0.933647193  0.000681063
     0.372451396  0.800316674  0.000689249
     0.439124489  0.933644769  0.000676788
     0.572441101  0.800310054  0.000668168
     0.639115067  0.933638985  0.000734556
     0.772445098  0.800313187  0.000752577
     0.839116614  0.933644338  0.000758538
     0.373021009  0.251226878  0.500000000
     0.420879805  0.189313152  0.503221093
     0.325156981  0.313167186  0.497027256

  ion indices of the primitive-cell ions
   primitive index   ion index
                 1           1
                 2           2
                 3           3
                 4           4
                 5           5
                 6           6
                 7           7
                 8           8
                 9           9
                10          10
                11          11
                12          12
                13          13
                14          14
                15          15
                16          16
                17          17
                18          18
                19          19
                20          20
                21          21
                22          22
                23          23
                24          24
                25          25
                26          26
                27          27
                28          28
                29          29
                30          30
                31          31
                32          32
                33          33
                34          34
                35          35
                36          36
                37          37
                38          38
                39          39
                40          40
                41          41
                42          42
                43          43
                44          44
                45          45
                46          46
                47          47
                48          48
                49          49
                50          50
                51          51
                52          52
                53          53

----------------------------------------------------------------------------------------

 
 
 KPOINTS: auto                                    

Automatic generation of k-mesh.
 Grid dimensions read from file:
 generate k-points for:    1    1    1

 Generating k-lattice:

  Cartesian coordinates                     Fractional coordinates (reciprocal lattice)
     0.081135903  0.046843835  0.000000000     1.000000000 -0.000000000  0.000000000
     0.000000000  0.093687670  0.000000000     0.000000000  1.000000000  0.000000000
     0.000000000  0.000000000  0.050000000     0.000000000  0.000000000  1.000000000

  Length of vectors
     0.093687670  0.093687670  0.050000000

  Shift w.r.t. Gamma in fractional coordinates (k-lattice)
     0.000000000  0.000000000  0.000000000

 
 Subroutine IBZKPT returns following result:
 ===========================================
 
 Found      1 irreducible k-points:
 
 Following reciprocal coordinates:
            Coordinates               Weight
  0.000000  0.000000  0.000000      1.000000
 
 Following cartesian coordinates:
            Coordinates               Weight
  0.000000  0.000000  0.000000      1.000000
 


--------------------------------------------------------------------------------------------------------




 Dimension of arrays:
   k-points           NKPTS =      1   k-points in BZ     NKDIM =      1   number of bands    NBANDS=    140
   number of dos      NEDOS =    301   number of ions     NIONS =     53
   non local maximal  LDIM  =      4   non local SUM 2l+1 LMDIM =      8
   total plane-waves  NPLWV = ******
   max r-space proj   IRMAX =      1   max aug-charges    IRDMAX=   9736
   dimension x,y,z NGX =   128 NGY =  128 NGZ =  210
   dimension x,y,z NGXF=   256 NGYF=  256 NGZF=  420
   support grid    NGXF=   256 NGYF=  256 NGZF=  420
   ions per type =              51   2
   NGX,Y,Z   is equivalent  to a cutoff of  17.27, 17.27, 17.46 a.u.
   NGXF,Y,Z  is equivalent  to a cutoff of  34.53, 34.53, 34.91 a.u.

 SYSTEM =  unknown system                          
 POSCAR =   C  O                                   

 Startparameter for this run:
   NWRITE =      2    write-flag & timer
   PREC   = accura    normal or accurate (medium, high low for compatibility)
   ISTART =      0    job   : 0-new  1-cont  2-samecut
   ICHARG =      2    charge: 1-file 2-atom 10-const
   ISPIN  =      1    spin polarized calculation?
   LNONCOLLINEAR =      F non collinear calculations
   LSORBIT =      F    spin-orbit coupling
   INIWAV =      1    electr: 0-lowe 1-rand  2-diag
   LASPH  =      F    aspherical Exc in radial PAW
 Electronic Relaxation 1
   ENCUT  = 1000.0 eV  73.50 Ry    8.57 a.u.  31.78 31.78 51.57*2*pi/ulx,y,z
   ENINI  = 1000.0     initial cutoff
   ENAUG  =  946.8 eV  augmentation charge cutoff
   NELM   =     60;   NELMIN=  2; NELMDL= -5     # of ELM steps 
   EDIFF  = 0.1E-05   stopping-criterion for ELM
   LREAL  =      F    real-space projection
   NLSPLINE    = F    spline interpolate recip. space projectors
   LCOMPAT=      F    compatible to vasp.4.4
   GGA_COMPAT  = T    GGA compatible to vasp.4.4-vasp.4.6
   LMAXPAW     = -100 max onsite density
   LMAXMIX     =    2 max onsite mixed and CHGCAR
   VOSKOWN=      0    Vosko Wilk Nusair interpolation
   ROPT   =    0.00000   0.00000
 Ionic relaxation
   EDIFFG = 0.1E-04   stopping-criterion for IOM
   NSW    =      0    number of steps for IOM
   NBLOCK =      1;   KBLOCK =      1    inner block; outer block 
   IBRION =     -1    ionic relax: 0-MD 1-quasi-New 2-CG
   NFREE  =      0    steps in history (QN), initial steepest desc. (CG)
   ISIF   =      0    stress and relaxation
   IWAVPR =     10    prediction:  0-non 1-charg 2-wave 3-comb
   ISYM   =      2    0-nonsym 1-usesym 2-fastsym
   LCORR  =      T    Harris-Foulkes like correction to forces

   POTIM  = 0.5000    time-step for ionic-motion
   TEIN   =    0.0    initial temperature
   TEBEG  =    0.0;   TEEND  =   0.0 temperature during run
   SMASS  =  -3.00    Nose mass-parameter (am)
   estimated Nose-frequenzy (Omega)   =  0.10E-29 period in steps = 0.13E+47 mass=  -0.347E-26a.u.
   SCALEE = 1.0000    scale energy and forces
   NPACO  =    256;   APACO  = 16.0  distance and # of slots for P.C.
   PSTRESS=    0.0 pullay stress

  Mass of Ions in am
   POMASS =  12.01 16.00
  Ionic Valenz
   ZVAL   =   4.00  6.00
  Atomic Wigner-Seitz radii
   RWIGS  =  -1.00 -1.00
  virtual crystal weights 
   VCA    =   1.00  1.00
   NELECT =     216.0000    total number of electrons
   NUPDOWN=      -1.0000    fix difference up-down

 DOS related values:
   EMIN   =  10.00;   EMAX   =-10.00  energy-range for DOS
   EFERMI =   0.00
   ISMEAR =     0;   SIGMA  =   0.01  broadening in eV -4-tet -1-fermi 0-gaus

 Electronic relaxation 2 (details)
   IALGO  =     58    algorithm
   LDIAG  =      T    sub-space diagonalisation (order eigenvalues)
   LSUBROT=      F    optimize rotation matrix (better conditioning)
   TURBO    =      0    0=normal 1=particle mesh
   IRESTART =      0    0=no restart 2=restart with 2 vectors
   NREBOOT  =      0    no. of reboots
   NMIN     =      0    reboot dimension
   EREF     =   0.00    reference energy to select bands
   IMIX   =      4    mixing-type and parameters
     AMIX     =   0.40;   BMIX     =  1.00
     AMIX_MAG =   1.60;   BMIX_MAG =  1.00
     AMIN     =   0.10
     WC   =   100.;   INIMIX=   1;  MIXPRE=   1;  MAXMIX= -45

 Intra band minimization:
   WEIMIN = 0.0000     energy-eigenvalue tresh-hold
   EBREAK =  0.18E-08  absolut break condition
   DEPER  =   0.30     relativ break condition  

   TIME   =   0.40     timestep for ELM

  volume/ion in A,a.u.               =      49.64       335.01
  Fermi-wavevector in a.u.,A,eV,Ry     =   0.711510  1.344560  6.887909  0.506247
  Thomas-Fermi vector in A             =   1.798641
 
 Write flags
   LWAVE        =      F    write WAVECAR
   LDOWNSAMPLE  =      F    k-point downsampling of WAVECAR
   LCHARG       =      T    write CHGCAR
   LVTOT        =      F    write LOCPOT, total local potential
   LVHAR        =      F    write LOCPOT, Hartree potential only
   LELF         =      F    write electronic localiz. function (ELF)
   LORBIT       =      0    0 simple, 1 ext, 2 COOP (PROOUT), +10 PAW based schemes


 Dipole corrections
   LMONO  =      F    monopole corrections only (constant potential shift)
   LDIPOL =      F    correct potential (dipole corrections)
   IDIPOL =      0    1-x, 2-y, 3-z, 4-all directions 
   EPSILON=  1.0000000 bulk dielectric constant

 Exchange correlation treatment:
   GGA     =    --    GGA type
   LEXCH   =     8    internal setting for exchange type
   VOSKOWN=      0    Vosko Wilk Nusair interpolation
   LHFCALC =     F    Hartree Fock is set to
   LHFONE  =     F    Hartree Fock one center treatment
   AEXX    =    0.0000 exact exchange contribution

 Linear response parameters
   LEPSILON=     F    determine dielectric tensor
   LRPA    =     F    only Hartree local field effects (RPA)
   LNABLA  =     F    use nabla operator in PAW spheres
   LVEL    =     F    velocity operator in full k-point grid
   LINTERFAST=   F  fast interpolation
   KINTER  =     0    interpolate to denser k-point grid
   CSHIFT  =0.1000    complex shift for real part using Kramers Kronig
   OMEGAMAX=  -1.0    maximum frequency
   DEG_THRESHOLD= 0.2000000E-02 threshold for treating states as degnerate
   RTIME   =   -0.100 relaxation time in fs
  (WPLASMAI=    0.000 imaginary part of plasma frequency in eV, 0.658/RTIME)
   DFIELD  = 0.0000000 0.0000000 0.0000000 field for delta impulse in time
 
 Orbital magnetization related:
   ORBITALMAG=     F  switch on orbital magnetization
   LCHIMAG   =     F  perturbation theory with respect to B field
   DQ        =  0.001000  dq finite difference perturbation B field
   LLRAUG    =     F  two centre corrections for induced B field



--------------------------------------------------------------------------------------------------------


 Static calculation
 charge density and potential will be updated during run
 non-spin polarized calculation
 Conjugate gradient for all bands (Freysoldt, et al. PRB 79, 241103 (2009))
 preconditioned conjugated gradient                                        
 perform sub-space diagonalisation
    before iterative eigenvector-optimisation
 modified Broyden-mixing scheme, WC =      100.0
 initial mixing is a Kerker type mixing with AMIX =  0.4000 and BMIX =      1.0000
 Hartree-type preconditioning will be used
 using additional bands           32
 reciprocal scheme for non local part
 use partial core corrections
 no Harris-corrections to forces 
 use gradient corrections 
 use of overlap-Matrix (Vanderbilt PP)
 Gauss-broadening in eV      SIGMA  =   0.01


--------------------------------------------------------------------------------------------------------


  energy-cutoff  :     1000.00
  volume of cell :     2631.08
      direct lattice vectors                 reciprocal lattice vectors
    12.325000000  0.000000000  0.000000000     0.081135903  0.046843835  0.000000000
    -6.162500000 10.673763102  0.000000000     0.000000000  0.093687670  0.000000000
     0.000000000  0.000000000 20.000000000     0.000000000  0.000000000  0.050000000

  length of vectors
    12.325000000 12.325000000 20.000000000     0.093687670  0.093687670  0.050000000


 
 k-points in units of 2pi/SCALE and weight: auto                                    
   0.00000000  0.00000000  0.00000000       1.000
 
 k-points in reciprocal lattice and weights: auto                                    
   0.00000000  0.00000000  0.00000000       1.000
 
 position of ions in fractional coordinates (direct lattice) 
   0.97245084  0.00032082  0.00070839
   0.03911838  0.13365950  0.00055022
   0.17244363  0.00029545  0.00062454
   0.23909628  0.13364792  0.00032058
   0.97245206  0.20032201  0.00060652
   0.03912836  0.33364377  0.00055519
   0.17245176  0.20035455  0.00027396
   0.23912436  0.33366572  0.00009033
   0.37246557  0.00032440  0.00056739
   0.43913747  0.13361994  0.00032292
   0.97244982  0.40030936  0.00068451
   0.03912498  0.53363679  0.00071676
   0.37241618  0.40032948  0.00000000
   0.43909960  0.53363898  0.00029052
   0.57244368  0.00031213  0.00069947
   0.63911021  0.13363175  0.00068409
   0.97245270  0.60030565  0.00080036
   0.03912449  0.73364036  0.00081814
   0.57243347  0.60030624  0.00050362
   0.63911189  0.73364188  0.00065988
   0.17245463  0.40031823  0.00036131
   0.23912018  0.53363655  0.00047314
   0.37245975  0.20029599  0.00011125
   0.43910710  0.33367342  0.00006970
   0.17245216  0.60031151  0.00065542
   0.23912337  0.73363857  0.00071891
   0.57243108  0.20028917  0.00051662
   0.63911277  0.33361863  0.00057797
   0.37243981  0.60030802  0.00045356
   0.43911609  0.73363786  0.00061774
   0.57246936  0.40032050  0.00042490
   0.63911941  0.53365087  0.00057451
   0.77244572  0.00031543  0.00074520
   0.83911628  0.13364020  0.00071913
   0.77244051  0.20030743  0.00072629
   0.83912024  0.33363573  0.00073183
   0.77244632  0.40029837  0.00072872
   0.83911898  0.53363396  0.00077638
   0.77245614  0.60030817  0.00074464
   0.83911503  0.73364318  0.00078939
   0.97245531  0.80030558  0.00081529
   0.03911471  0.93364329  0.00074756
   0.17245797  0.80031221  0.00077922
   0.23913455  0.93364719  0.00068106
   0.37245140  0.80031667  0.00068925
   0.43912449  0.93364477  0.00067679
   0.57244110  0.80031005  0.00066817
   0.63911507  0.93363899  0.00073456
   0.77244510  0.80031319  0.00075258
   0.83911661  0.93364434  0.00075854
   0.37302101  0.25122688  0.50000000
   0.42087980  0.18931315  0.50322109
   0.32515698  0.31316719  0.49702726
 
 position of ions in cartesian coordinates  (Angst):
  11.98347958  0.00342433  0.01416777
  -0.34154264  1.42664989  0.01100432
   2.12354700  0.00315355  0.01249070
   2.12325634  1.42652621  0.00641170
  10.75098721  2.13818970  0.01213047
  -1.57382270  3.56123457  0.01110375
   0.89078307  2.13853702  0.00547917
   0.89099273  3.56146885  0.00180651
   4.58863896  0.00346260  0.01134782
   4.58893648  1.42622757  0.00645846
   9.51853763  4.27280730  0.01369027
  -2.80632132  5.69591267  0.01433526
   2.12299894  4.27302204  0.00000000
   2.12335237  5.69593607  0.00581036
   7.05344483  0.00333155  0.01398950
   7.05352764  1.42635365  0.01368187
   8.28609598  6.40752033  0.01600723
  -4.03884931  7.83070339  0.01636283
   3.35585531  6.40752662  0.01007237
   3.35598594  7.83071962  0.01319763
  -0.34145776  4.27290193  0.00722612
  -0.34137895  5.69591010  0.00946273
   3.35624236  2.13791198  0.00222492
   3.35573251  3.56155103  0.00139405
  -1.57394684  6.40758280  0.01310850
  -1.57385216  7.83068434  0.01437823
   5.82093107  2.13783916  0.01033241
   5.82114012  3.56096622  0.01155939
   0.89092245  6.40754561  0.00907111
   0.89106251  7.83067670  0.01235474
   4.58870974  4.27292622  0.00849795
   4.58852320  5.69606300  0.01149026
   9.51844972  0.00336679  0.01490402
   9.51855036  1.42644387  0.01438264
   8.28593477  2.13803408  0.01452582
   8.28612680  3.56114872  0.01463668
   7.05356221  4.27268994  0.01457444
   7.05362213  5.69588251  0.01552751
   5.82112285  6.40754723  0.01489279
   5.82101669  7.83073350  0.01578780
   7.05362858  8.54227219  0.01630582
  -5.27148792  9.96548729  0.01495127
  -2.80637951  8.54234295  0.01558431
  -2.80626749  9.96552896  0.01362126
  -0.34148805  8.54239058  0.01378498
  -0.34137657  9.96550309  0.01353576
   2.12342586  8.54231992  0.01336337
   2.12354296  9.96544135  0.01469111
   4.58845581  8.54235337  0.01505154
   4.58852904  9.96549848  0.01517076
   3.04929830  2.68153618 10.00000000
   4.02070129  2.02068374 10.06442186
   2.07766701  3.34267235  9.94054513
 


--------------------------------------------------------------------------------------------------------


 k-point   1 :   0.0000 0.0000 0.0000  plane waves:  189031

 maximum and minimum number of plane-waves per node :     47262    47254

 maximum number of plane-waves:    189031
 maximum index in each direction: 
   IXMAX=   31   IYMAX=   31   IZMAX=   51
   IXMIN=  -31   IYMIN=  -31   IZMIN=  -51


 parallel 3D FFT for wavefunctions:
    minimum data exchange during FFTs selected (reduces bandwidth)
 parallel 3D FFT for charge:
    minimum data exchange during FFTs selected (reduces bandwidth)


 total amount of memory used by VASP MPI-rank0   175916. kBytes
=======================================================================

   base      :      30000. kBytes
   nonl-proj :      46129. kBytes
   fftplans  :      35778. kBytes
   grid      :      52596. kBytes
   one-center:         43. kBytes
   wavefun   :      11370. kBytes
 
     INWAV:  cpu time    0.0001: real time    0.0001
 Broyden mixing: mesh for mixing (old mesh)
   NGX = 63   NGY = 63   NGZ =103
  (NGX  =256   NGY  =256   NGZ  =420)
  gives a total of 408807 points

 initial charge density was supplied:
 charge density of overlapping atoms calculated
 number of electron     216.0000000 magnetization 
 keeping initial charge density in first step


--------------------------------------------------------------------------------------------------------


 Maximum index for augmentation-charges          459 (set IRDMAX)


--------------------------------------------------------------------------------------------------------


 First call to EWALD:  gamma=   0.128
 Maximum number of real-space cells 3x 3x 2
 Maximum number of reciprocal cells 3x 3x 4

    FEWALD:  cpu time    0.0023: real time    0.0023


--------------------------------------- Iteration      1(   1)  ---------------------------------------


    POTLOK:  cpu time    0.2969: real time    0.3003
    SETDIJ:  cpu time    0.0048: real time    0.0051
    TRIAL :  cpu time    4.1996: real time    4.2479
    CORREC:  cpu time    0.0007: real time    0.0007
    --------------------------------------------
      LOOP:  cpu time    4.5069: real time    4.5651

 eigenvalue-minimisations  :   280
 total energy-change (2. order) : 0.2660120E+04  (-0.1114052E+05)
 number of electron     216.0000000 magnetization 
 augmentation part      216.0000000 magnetization 

 Free energy of the ion-electron system (eV)
  ---------------------------------------------------
  alpha Z        PSCENC =        59.93625244
  Ewald energy   TEWEN  =     29209.91244113
  -Hartree energ DENC   =    -35385.37092715
  -exchange      EXHF   =         0.00000000
  -V(xc)+E(xc)   XCENC  =       420.79817022
  PAW double counting   =      6525.96553977    -6260.36035765
  entropy T*S    EENTRO =        -0.00000374
  eigenvalues    EBANDS =      -280.28508243
  atomic energy  EATOM  =      8369.52358910
  ---------------------------------------------------
  free energy    TOTEN  =      2660.11962169 eV

  energy without entropy =     2660.11962543  energy(sigma->0) =     2660.11962356


--------------------------------------------------------------------------------------------------------




--------------------------------------- Iteration      1(   2)  ---------------------------------------


    TRIAL :  cpu time    6.7050: real time    6.7742
    CORREC:  cpu time    0.0001: real time    0.0001
    --------------------------------------------
      LOOP:  cpu time    6.8038: real time    6.8763

 eigenvalue-minimisations  :   504
 total energy-change (2. order) :-0.2477782E+04  (-0.2361022E+04)
 number of electron     216.0000000 magnetization 
 augmentation part      216.0000000 magnetization 

 Free energy of the ion-electron system (eV)
  ---------------------------------------------------
  alpha Z        PSCENC =        59.93625244
  Ewald energy   TEWEN  =     29209.91244113
  -Hartree energ DENC   =    -35385.37092715
  -exchange      EXHF   =         0.00000000
  -V(xc)+E(xc)   XCENC  =       420.79817022
  PAW double counting   =      6525.96553977    -6260.36035765
  entropy T*S    EENTRO =        -0.00000000
  eigenvalues    EBANDS =     -2758.06704729
  atomic energy  EATOM  =      8369.52358910
  ---------------------------------------------------
  free energy    TOTEN  =       182.33766057 eV

  energy without entropy =      182.33766057  energy(sigma->0) =      182.33766057


--------------------------------------------------------------------------------------------------------




--------------------------------------- Iteration      1(   3)  ---------------------------------------


    TRIAL :  cpu time    4.8004: real time    4.8492
    CORREC:  cpu time    0.0001: real time    0.0001
    --------------------------------------------
      LOOP:  cpu time    4.8690: real time    4.9210

 eigenvalue-minimisations  :   336
 total energy-change (2. order) :-0.6651600E+03  (-0.6617645E+03)
 number of electron     216.0000000 magnetization 
 augmentation part      216.0000000 magnetization 

 Free energy of the ion-electron system (eV)
  ---------------------------------------------------
  alpha Z        PSCENC =        59.93625244
  Ewald energy   TEWEN  =     29209.91244113
  -Hartree energ DENC   =    -35385.37092715
  -exchange      EXHF   =         0.00000000
  -V(xc)+E(xc)   XCENC  =       420.79817022
  PAW double counting   =      6525.96553977    -6260.36035765
  entropy T*S    EENTRO =        -0.00000000
  eigenvalues    EBANDS =     -3423.22707283
  atomic energy  EATOM  =      8369.52358910
  ---------------------------------------------------
  free energy    TOTEN  =      -482.82236497 eV

  energy without entropy =     -482.82236497  energy(sigma->0) =     -482.82236497


--------------------------------------------------------------------------------------------------------




--------------------------------------- Iteration      1(   4)  ---------------------------------------


    TRIAL :  cpu time    5.4457: real time    5.4999
    CORREC:  cpu time    0.0001: real time    0.0003
    --------------------------------------------
      LOOP:  cpu time    5.4999: real time    5.5805

 eigenvalue-minimisations  :   392
 total energy-change (2. order) :-0.3448876E+02  (-0.3432377E+02)
 number of electron     216.0000000 magnetization 
 augmentation part      216.0000000 magnetization 

 Free energy of the ion-electron system (eV)
  ---------------------------------------------------
  alpha Z        PSCENC =        59.93625244
  Ewald energy   TEWEN  =     29209.91244113
  -Hartree energ DENC   =    -35385.37092715
  -exchange      EXHF   =         0.00000000
  -V(xc)+E(xc)   XCENC  =       420.79817022
  PAW double counting   =      6525.96553977    -6260.36035765
  entropy T*S    EENTRO =        -0.00000000
  eigenvalues    EBANDS =     -3457.71583721
  atomic energy  EATOM  =      8369.52358910
  ---------------------------------------------------
  free energy    TOTEN  =      -517.31112935 eV

  energy without entropy =     -517.31112935  energy(sigma->0) =     -517.31112935


--------------------------------------------------------------------------------------------------------




--------------------------------------- Iteration      1(   5)  ---------------------------------------


    TRIAL :  cpu time    5.4319: real time    5.4863
    CORREC:  cpu time    0.0001: real time    0.0001
    CHARGE:  cpu time    0.2330: real time    0.2368
    --------------------------------------------
      LOOP:  cpu time    5.7993: real time    5.8583

 eigenvalue-minimisations  :   392
 total energy-change (2. order) :-0.7270074E+00  (-0.7235160E+00)
 number of electron     216.0000000 magnetization 
 augmentation part       -0.2655132 magnetization 

 Free energy of the ion-electron system (eV)
  ---------------------------------------------------
  alpha Z        PSCENC =        59.93625244
  Ewald energy   TEWEN  =     29209.91244113
  -Hartree energ DENC   =    -35385.37092715
  -exchange      EXHF   =         0.00000000
  -V(xc)+E(xc)   XCENC  =       420.79817022
  PAW double counting   =      6525.96553977    -6260.36035765
  entropy T*S    EENTRO =        -0.00000000
  eigenvalues    EBANDS =     -3458.44284461
  atomic energy  EATOM  =      8369.52358910
  ---------------------------------------------------
  free energy    TOTEN  =      -518.03813675 eV

  energy without entropy =     -518.03813675  energy(sigma->0) =     -518.03813675


--------------------------------------------------------------------------------------------------------




--------------------------------------- Iteration      1(   6)  ---------------------------------------


    POTLOK:  cpu time    0.2732: real time    0.2755
    SETDIJ:  cpu time    0.0031: real time    0.0032
    TRIAL :  cpu time    2.0199: real time    2.0403
    CORREC:  cpu time    0.8053: real time    0.8125
    CHARGE:  cpu time    0.2334: real time    0.2356
    --------------------------------------------
      LOOP:  cpu time    3.3464: real time    3.3971

 eigenvalue-minimisations  :     0
 total energy-change (2. order) : 0.5122167E+02  (-0.1539910E+02)
 number of electron     216.0000000 magnetization 
 augmentation part       -0.3650307 magnetization 

 Free energy of the ion-electron system (eV)
  ---------------------------------------------------
  alpha Z        PSCENC =        59.93625244
  Ewald energy   TEWEN  =     29209.91244113
  -Hartree energ DENC   =    -36793.17695591
  -exchange      EXHF   =         0.00000000
  -V(xc)+E(xc)   XCENC  =       468.95079594
  PAW double counting   =     89658.44353886   -89401.10623397
  entropy T*S    EENTRO =        -0.00000000
  eigenvalues    EBANDS =     -2039.29989050
  atomic energy  EATOM  =      8369.52358910
  ---------------------------------------------------
  free energy    TOTEN  =      -466.81646291 eV

  energy without entropy =     -466.81646291  energy(sigma->0) =     -466.81646291


--------------------------------------------------------------------------------------------------------




--------------------------------------- Iteration      1(   7)  ---------------------------------------


    POTLOK:  cpu time    0.2769: real time    0.2792
    SETDIJ:  cpu time    0.0030: real time    0.0031
    TRIAL :  cpu time    2.0072: real time    2.0283
    CORREC:  cpu time    0.8137: real time    0.8207
    CHARGE:  cpu time    0.2345: real time    0.2363
    --------------------------------------------
      LOOP:  cpu time    3.3890: real time    3.4266

 eigenvalue-minimisations  :     0
 total energy-change (2. order) :-0.1544159E+02  (-0.1801581E+01)
 number of electron     216.0000000 magnetization 
 augmentation part       -0.4123815 magnetization 

 Free energy of the ion-electron system (eV)
  ---------------------------------------------------
  alpha Z        PSCENC =        59.93625244
  Ewald energy   TEWEN  =     29209.91244113
  -Hartree energ DENC   =    -36294.16244502
  -exchange      EXHF   =         0.00000000
  -V(xc)+E(xc)   XCENC  =       451.88529007
  PAW double counting   =    105772.46480011  -105512.31168071
  entropy T*S    EENTRO =        -0.00000000
  eigenvalues    EBANDS =     -2539.50630470
  atomic energy  EATOM  =      8369.52358910
  ---------------------------------------------------
  free energy    TOTEN  =      -482.25805757 eV

  energy without entropy =     -482.25805757  energy(sigma->0) =     -482.25805757


--------------------------------------------------------------------------------------------------------




--------------------------------------- Iteration      1(   8)  ---------------------------------------


    POTLOK:  cpu time    0.2760: real time    0.2780
    SETDIJ:  cpu time    0.0030: real time    0.0030
    TRIAL :  cpu time    2.0076: real time    2.0286
    CORREC:  cpu time    0.8033: real time    0.8111
    CHARGE:  cpu time    0.2343: real time    0.2361
    --------------------------------------------
      LOOP:  cpu time    3.3813: real time    3.4158

 eigenvalue-minimisations  :     0
 total energy-change (2. order) :-0.1800064E+01  (-0.4632682E+00)
 number of electron     216.0000000 magnetization 
 augmentation part       -0.4295941 magnetization 

 Free energy of the ion-electron system (eV)
  ---------------------------------------------------
  alpha Z        PSCENC =        59.93625244
  Ewald energy   TEWEN  =     29209.91244113
  -Hartree energ DENC   =    -36266.30482516
  -exchange      EXHF   =         0.00000000
  -V(xc)+E(xc)   XCENC  =       451.32942161
  PAW double counting   =    110154.55550828  -109893.99450118
  entropy T*S    EENTRO =        -0.00000000
  eigenvalues    EBANDS =     -2569.01600775
  atomic energy  EATOM  =      8369.52358910
  ---------------------------------------------------
  free energy    TOTEN  =      -484.05812152 eV

  energy without entropy =     -484.05812152  energy(sigma->0) =     -484.05812152


--------------------------------------------------------------------------------------------------------




--------------------------------------- Iteration      1(   9)  ---------------------------------------


    POTLOK:  cpu time    0.2739: real time    0.2759
    SETDIJ:  cpu time    0.0030: real time    0.0030
    TRIAL :  cpu time    2.0107: real time    2.0322
    CORREC:  cpu time    0.8040: real time    0.8114
    CHARGE:  cpu time    0.2343: real time    0.2361
    --------------------------------------------
      LOOP:  cpu time    3.3739: real time    3.4098

 eigenvalue-minimisations  :     0
 total energy-change (2. order) :-0.4631496E+00  (-0.1481898E+00)
 number of electron     216.0000000 magnetization 
 augmentation part       -0.4371870 magnetization 

 Free energy of the ion-electron system (eV)
  ---------------------------------------------------
  alpha Z        PSCENC =        59.93625244
  Ewald energy   TEWEN  =     29209.91244113
  -Hartree energ DENC   =    -36283.23271475
  -exchange      EXHF   =         0.00000000
  -V(xc)+E(xc)   XCENC  =       451.55598296
  PAW double counting   =    112913.38547281  -112652.67439395
  entropy T*S    EENTRO =        -0.00000000
  eigenvalues    EBANDS =     -2552.92790088
  atomic energy  EATOM  =      8369.52358910
  ---------------------------------------------------
  free energy    TOTEN  =      -484.52127115 eV

  energy without entropy =     -484.52127115  energy(sigma->0) =     -484.52127115


--------------------------------------------------------------------------------------------------------




--------------------------------------- Iteration      1(  10)  ---------------------------------------


    POTLOK:  cpu time    0.2766: real time    0.2787
    SETDIJ:  cpu time    0.0031: real time    0.0031
    TRIAL :  cpu time    2.0091: real time    2.0297
    CORREC:  cpu time    0.8051: real time    0.8123
    CHARGE:  cpu time    0.2341: real time    0.2361
    --------------------------------------------
      LOOP:  cpu time    3.3762: real time    3.4092

 eigenvalue-minimisations  :     0
 total energy-change (2. order) :-0.1479898E+00  (-0.6085374E-01)
 number of electron     216.0000000 magnetization 
 augmentation part       -0.4379197 magnetization 

 Free energy of the ion-electron system (eV)
  ---------------------------------------------------
  alpha Z        PSCENC =        59.93625244
  Ewald energy   TEWEN  =     29209.91244113
  -Hartree energ DENC   =    -36284.40913128
  -exchange      EXHF   =         0.00000000
  -V(xc)+E(xc)   XCENC  =       451.48503754
  PAW double counting   =    113412.53065775  -113151.73503630
  entropy T*S    EENTRO =        -0.00000000
  eigenvalues    EBANDS =     -2551.91307136
  atomic energy  EATOM  =      8369.52358910
  ---------------------------------------------------
  free energy    TOTEN  =      -484.66926098 eV

  energy without entropy =     -484.66926098  energy(sigma->0) =     -484.66926098


--------------------------------------------------------------------------------------------------------




--------------------------------------- Iteration      1(  11)  ---------------------------------------


    POTLOK:  cpu time    0.2753: real time    0.2774
    SETDIJ:  cpu time    0.0028: real time    0.0028
    TRIAL :  cpu time    2.0102: real time    2.0327
    CORREC:  cpu time    0.8032: real time    0.8110
    CHARGE:  cpu time    0.2337: real time    0.2357
    --------------------------------------------
      LOOP:  cpu time    3.3647: real time    3.4121

 eigenvalue-minimisations  :     0
 total energy-change (2. order) :-0.6071577E-01  (-0.2539416E-01)
 number of electron     216.0000000 magnetization 
 augmentation part       -0.4375367 magnetization 

 Free energy of the ion-electron system (eV)
  ---------------------------------------------------
  alpha Z        PSCENC =        59.93625244
  Ewald energy   TEWEN  =     29209.91244113
  -Hartree energ DENC   =    -36280.29740613
  -exchange      EXHF   =         0.00000000
  -V(xc)+E(xc)   XCENC  =       451.42446461
  PAW double counting   =    112968.42851288  -112707.63038517
  entropy T*S    EENTRO =        -0.00000000
  eigenvalues    EBANDS =     -2556.02744560
  atomic energy  EATOM  =      8369.52358910
  ---------------------------------------------------
  free energy    TOTEN  =      -484.72997674 eV

  energy without entropy =     -484.72997674  energy(sigma->0) =     -484.72997674


--------------------------------------------------------------------------------------------------------




--------------------------------------- Iteration      1(  12)  ---------------------------------------


    POTLOK:  cpu time    0.2747: real time    0.2767
    SETDIJ:  cpu time    0.0030: real time    0.0030
    TRIAL :  cpu time    2.0083: real time    2.0286
    CORREC:  cpu time    0.8045: real time    0.8113
    CHARGE:  cpu time    0.2341: real time    0.2359
    --------------------------------------------
      LOOP:  cpu time    3.3605: real time    3.4516

 eigenvalue-minimisations  :     0
 total energy-change (2. order) :-0.2529556E-01  (-0.8810108E-02)
 number of electron     216.0000000 magnetization 
 augmentation part       -0.4376991 magnetization 

 Free energy of the ion-electron system (eV)
  ---------------------------------------------------
  alpha Z        PSCENC =        59.93625244
  Ewald energy   TEWEN  =     29209.91244113
  -Hartree energ DENC   =    -36278.55071570
  -exchange      EXHF   =         0.00000000
  -V(xc)+E(xc)   XCENC  =       451.39257109
  PAW double counting   =    112580.58131804  -112319.80558186
  entropy T*S    EENTRO =        -0.00000000
  eigenvalues    EBANDS =     -2557.74514654
  atomic energy  EATOM  =      8369.52358910
  ---------------------------------------------------
  free energy    TOTEN  =      -484.75527230 eV

  energy without entropy =     -484.75527230  energy(sigma->0) =     -484.75527230


--------------------------------------------------------------------------------------------------------




--------------------------------------- Iteration      1(  13)  ---------------------------------------


    POTLOK:  cpu time    0.2739: real time    0.2757
    SETDIJ:  cpu time    0.0028: real time    0.0028
    TRIAL :  cpu time    2.0104: real time    2.0307
    CORREC:  cpu time    0.8048: real time    0.8118
    CHARGE:  cpu time    0.2342: real time    0.2361
    --------------------------------------------
      LOOP:  cpu time    3.3939: real time    3.4610

 eigenvalue-minimisations  :     0
 total energy-change (2. order) :-0.8793136E-02  (-0.2613436E-02)
 number of electron     216.0000000 magnetization 
 augmentation part       -0.4372980 magnetization 

 Free energy of the ion-electron system (eV)
  ---------------------------------------------------
  alpha Z        PSCENC =        59.93625244
  Ewald energy   TEWEN  =     29209.91244113
  -Hartree energ DENC   =    -36278.56493456
  -exchange      EXHF   =         0.00000000
  -V(xc)+E(xc)   XCENC  =       451.38222785
  PAW double counting   =    112463.79150982  -112203.02588338
  entropy T*S    EENTRO =        -0.00000000
  eigenvalues    EBANDS =     -2557.71926785
  atomic energy  EATOM  =      8369.52358910
  ---------------------------------------------------
  free energy    TOTEN  =      -484.76406544 eV

  energy without entropy =     -484.76406544  energy(sigma->0) =     -484.76406544


--------------------------------------------------------------------------------------------------------




--------------------------------------- Iteration      1(  14)  ---------------------------------------


    POTLOK:  cpu time    0.2741: real time    0.2759
    SETDIJ:  cpu time    0.0030: real time    0.0030
    TRIAL :  cpu time    2.0086: real time    2.0287
    CORREC:  cpu time    0.8063: real time    0.8130
    CHARGE:  cpu time    0.2345: real time    0.2363
    --------------------------------------------
      LOOP:  cpu time    3.3744: real time    3.4303

 eigenvalue-minimisations  :     0
 total energy-change (2. order) :-0.2615750E-02  (-0.7987579E-03)
 number of electron     216.0000000 magnetization 
 augmentation part       -0.4370378 magnetization 

 Free energy of the ion-electron system (eV)
  ---------------------------------------------------
  alpha Z        PSCENC =        59.93625244
  Ewald energy   TEWEN  =     29209.91244113
  -Hartree energ DENC   =    -36278.57997796
  -exchange      EXHF   =         0.00000000
  -V(xc)+E(xc)   XCENC  =       451.38110315
  PAW double counting   =    112502.97286988  -112242.20991419
  entropy T*S    EENTRO =        -0.00000000
  eigenvalues    EBANDS =     -2557.70304474
  atomic energy  EATOM  =      8369.52358910
  ---------------------------------------------------
  free energy    TOTEN  =      -484.76668119 eV

  energy without entropy =     -484.76668119  energy(sigma->0) =     -484.76668119


--------------------------------------------------------------------------------------------------------




--------------------------------------- Iteration      1(  15)  ---------------------------------------


    POTLOK:  cpu time    0.2736: real time    0.2754
    SETDIJ:  cpu time    0.0027: real time    0.0028
    TRIAL :  cpu time    2.0136: real time    2.0336
    CORREC:  cpu time    0.8026: real time    0.8092
    CHARGE:  cpu time    0.2338: real time    0.2357
    --------------------------------------------
      LOOP:  cpu time    3.3639: real time    3.3978

 eigenvalue-minimisations  :     0
 total energy-change (2. order) :-0.8012094E-03  (-0.3188914E-03)
 number of electron     216.0000000 magnetization 
 augmentation part       -0.4366944 magnetization 

 Free energy of the ion-electron system (eV)
  ---------------------------------------------------
  alpha Z        PSCENC =        59.93625244
  Ewald energy   TEWEN  =     29209.91244113
  -Hartree energ DENC   =    -36278.27016752
  -exchange      EXHF   =         0.00000000
  -V(xc)+E(xc)   XCENC  =       451.36709451
  PAW double counting   =    112530.47502607  -112269.71032194
  entropy T*S    EENTRO =        -0.00000000
  eigenvalues    EBANDS =     -2558.00139618
  atomic energy  EATOM  =      8369.52358910
  ---------------------------------------------------
  free energy    TOTEN  =      -484.76748240 eV

  energy without entropy =     -484.76748240  energy(sigma->0) =     -484.76748240


--------------------------------------------------------------------------------------------------------




--------------------------------------- Iteration      1(  16)  ---------------------------------------


    POTLOK:  cpu time    0.2723: real time    0.2741
    SETDIJ:  cpu time    0.0028: real time    0.0028
    TRIAL :  cpu time    2.0169: real time    2.0371
    CORREC:  cpu time    0.8029: real time    0.8099
    CHARGE:  cpu time    0.2333: real time    0.2352
    --------------------------------------------
      LOOP:  cpu time    3.3757: real time    3.4417

 eigenvalue-minimisations  :     0
 total energy-change (2. order) :-0.3206416E-03  (-0.1345126E-03)
 number of electron     216.0000000 magnetization 
 augmentation part       -0.4364959 magnetization 

 Free energy of the ion-electron system (eV)
  ---------------------------------------------------
  alpha Z        PSCENC =        59.93625244
  Ewald energy   TEWEN  =     29209.91244113
  -Hartree energ DENC   =    -36278.39113174
  -exchange      EXHF   =         0.00000000
  -V(xc)+E(xc)   XCENC  =       451.37186722
  PAW double counting   =    112500.69650010  -112239.93259423
  entropy T*S    EENTRO =        -0.00000000
  eigenvalues    EBANDS =     -2557.88472706
  atomic energy  EATOM  =      8369.52358910
  ---------------------------------------------------
  free energy    TOTEN  =      -484.76780304 eV

  energy without entropy =     -484.76780304  energy(sigma->0) =     -484.76780304


--------------------------------------------------------------------------------------------------------




--------------------------------------- Iteration      1(  17)  ---------------------------------------


    POTLOK:  cpu time    0.2747: real time    0.2767
    SETDIJ:  cpu time    0.0030: real time    0.0030
    TRIAL :  cpu time    2.0083: real time    2.0284
    CORREC:  cpu time    0.8167: real time    0.8236
    CHARGE:  cpu time    0.2342: real time    0.2362
    --------------------------------------------
      LOOP:  cpu time    3.3430: real time    3.4176

 eigenvalue-minimisations  :     0
 total energy-change (2. order) :-0.1352302E-03  (-0.5935345E-04)
 number of electron     216.0000000 magnetization 
 augmentation part       -0.4365174 magnetization 

 Free energy of the ion-electron system (eV)
  ---------------------------------------------------
  alpha Z        PSCENC =        59.93625244
  Ewald energy   TEWEN  =     29209.91244113
  -Hartree energ DENC   =    -36278.50785754
  -exchange      EXHF   =         0.00000000
  -V(xc)+E(xc)   XCENC  =       451.37572925
  PAW double counting   =    112462.29805554  -112201.53457593
  entropy T*S    EENTRO =        -0.00000000
  eigenvalues    EBANDS =     -2557.77157226
  atomic energy  EATOM  =      8369.52358910
  ---------------------------------------------------
  free energy    TOTEN  =      -484.76793827 eV

  energy without entropy =     -484.76793827  energy(sigma->0) =     -484.76793827


--------------------------------------------------------------------------------------------------------




--------------------------------------- Iteration      1(  18)  ---------------------------------------


    POTLOK:  cpu time    0.2812: real time    0.2870
    SETDIJ:  cpu time    0.0027: real time    0.0027
    TRIAL :  cpu time    2.0133: real time    2.0344
    CORREC:  cpu time    0.8067: real time    0.8142
    CHARGE:  cpu time    0.2337: real time    0.2356
    --------------------------------------------
      LOOP:  cpu time    3.3637: real time    3.4269

 eigenvalue-minimisations  :     0
 total energy-change (2. order) :-0.5932282E-04  (-0.2303275E-04)
 number of electron     216.0000000 magnetization 
 augmentation part       -0.4366115 magnetization 

 Free energy of the ion-electron system (eV)
  ---------------------------------------------------
  alpha Z        PSCENC =        59.93625244
  Ewald energy   TEWEN  =     29209.91244113
  -Hartree energ DENC   =    -36278.50089898
  -exchange      EXHF   =         0.00000000
  -V(xc)+E(xc)   XCENC  =       451.37495595
  PAW double counting   =    112450.08780995  -112189.32377581
  entropy T*S    EENTRO =        -0.00000000
  eigenvalues    EBANDS =     -2557.77837138
  atomic energy  EATOM  =      8369.52358910
  ---------------------------------------------------
  free energy    TOTEN  =      -484.76799759 eV

  energy without entropy =     -484.76799759  energy(sigma->0) =     -484.76799759


--------------------------------------------------------------------------------------------------------




--------------------------------------- Iteration      1(  19)  ---------------------------------------


    POTLOK:  cpu time    0.2896: real time    0.2915
    SETDIJ:  cpu time    0.0028: real time    0.0029
    TRIAL :  cpu time    2.0091: real time    2.0289
    CORREC:  cpu time    0.8017: real time    0.8082
    CHARGE:  cpu time    0.2338: real time    0.2357
    --------------------------------------------
      LOOP:  cpu time    3.4745: real time    3.5065

 eigenvalue-minimisations  :     0
 total energy-change (2. order) :-0.2250673E-04  (-0.8784618E-05)
 number of electron     216.0000000 magnetization 
 augmentation part       -0.4367091 magnetization 

 Free energy of the ion-electron system (eV)
  ---------------------------------------------------
  alpha Z        PSCENC =        59.93625244
  Ewald energy   TEWEN  =     29209.91244113
  -Hartree energ DENC   =    -36278.52215061
  -exchange      EXHF   =         0.00000000
  -V(xc)+E(xc)   XCENC  =       451.37617082
  PAW double counting   =    112457.51948760  -112196.75522496
  entropy T*S    EENTRO =        -0.00000000
  eigenvalues    EBANDS =     -2557.75858562
  atomic energy  EATOM  =      8369.52358910
  ---------------------------------------------------
  free energy    TOTEN  =      -484.76802010 eV

  energy without entropy =     -484.76802010  energy(sigma->0) =     -484.76802010


--------------------------------------------------------------------------------------------------------




--------------------------------------- Iteration      1(  20)  ---------------------------------------


    POTLOK:  cpu time    0.2728: real time    0.2747
    SETDIJ:  cpu time    0.0029: real time    0.0029
    TRIAL :  cpu time    2.0103: real time    2.0304
    CORREC:  cpu time    0.8019: real time    0.8086
    CHARGE:  cpu time    0.2339: real time    0.2357
    --------------------------------------------
      LOOP:  cpu time    3.4013: real time    3.4359

 eigenvalue-minimisations  :     0
 total energy-change (2. order) :-0.8424890E-05  (-0.3491742E-05)
 number of electron     216.0000000 magnetization 
 augmentation part       -0.4367206 magnetization 

 Free energy of the ion-electron system (eV)
  ---------------------------------------------------
  alpha Z        PSCENC =        59.93625244
  Ewald energy   TEWEN  =     29209.91244113
  -Hartree energ DENC   =    -36278.50654909
  -exchange      EXHF   =         0.00000000
  -V(xc)+E(xc)   XCENC  =       451.37501257
  PAW double counting   =    112465.09936003  -112204.33468518
  entropy T*S    EENTRO =        -0.00000000
  eigenvalues    EBANDS =     -2557.77344953
  atomic energy  EATOM  =      8369.52358910
  ---------------------------------------------------
  free energy    TOTEN  =      -484.76802853 eV

  energy without entropy =     -484.76802853  energy(sigma->0) =     -484.76802853


--------------------------------------------------------------------------------------------------------




--------------------------------------- Iteration      1(  21)  ---------------------------------------


    POTLOK:  cpu time    0.2750: real time    0.2768
    SETDIJ:  cpu time    0.0028: real time    0.0028
    TRIAL :  cpu time    2.0110: real time    2.0317
    CORREC:  cpu time    0.8019: real time    0.8095
    CHARGE:  cpu time    0.2336: real time    0.2358
    --------------------------------------------
      LOOP:  cpu time    3.4163: real time    3.4526

 eigenvalue-minimisations  :     0
 total energy-change (2. order) :-0.3306457E-05  (-0.1601563E-05)
 number of electron     216.0000000 magnetization 
 augmentation part       -0.4367245 magnetization 

 Free energy of the ion-electron system (eV)
  ---------------------------------------------------
  alpha Z        PSCENC =        59.93625244
  Ewald energy   TEWEN  =     29209.91244113
  -Hartree energ DENC   =    -36278.52937399
  -exchange      EXHF   =         0.00000000
  -V(xc)+E(xc)   XCENC  =       451.37608279
  PAW double counting   =    112467.04101283  -112206.27655932
  entropy T*S    EENTRO =        -0.00000000
  eigenvalues    EBANDS =     -2557.75147681
  atomic energy  EATOM  =      8369.52358910
  ---------------------------------------------------
  free energy    TOTEN  =      -484.76803183 eV

  energy without entropy =     -484.76803183  energy(sigma->0) =     -484.76803183


--------------------------------------------------------------------------------------------------------




--------------------------------------- Iteration      1(  22)  ---------------------------------------


    POTLOK:  cpu time    0.2741: real time    0.2762
    SETDIJ:  cpu time    0.0029: real time    0.0029
    TRIAL :  cpu time    2.0012: real time    2.0284
    CORREC:  cpu time    0.8009: real time    0.8079
    CHARGE:  cpu time    0.2337: real time    0.2356
    --------------------------------------------
      LOOP:  cpu time    3.3499: real time    3.4010

 eigenvalue-minimisations  :     0
 total energy-change (2. order) :-0.1575187E-05  (-0.6674641E-06)
 number of electron     216.0000000 magnetization 
 augmentation part       -0.4367161 magnetization 

 Free energy of the ion-electron system (eV)
  ---------------------------------------------------
  alpha Z        PSCENC =        59.93625244
  Ewald energy   TEWEN  =     29209.91244113
  -Hartree energ DENC   =    -36278.51753803
  -exchange      EXHF   =         0.00000000
  -V(xc)+E(xc)   XCENC  =       451.37551163
  PAW double counting   =    112466.51092829  -112205.74647687
  entropy T*S    EENTRO =        -0.00000000
  eigenvalues    EBANDS =     -2557.76274111
  atomic energy  EATOM  =      8369.52358910
  ---------------------------------------------------
  free energy    TOTEN  =      -484.76803341 eV

  energy without entropy =     -484.76803341  energy(sigma->0) =     -484.76803341


--------------------------------------------------------------------------------------------------------




--------------------------------------- Iteration      1(  23)  ---------------------------------------


    POTLOK:  cpu time    0.2731: real time    0.2750
    SETDIJ:  cpu time    0.0031: real time    0.0031
    TRIAL :  cpu time    2.0081: real time    2.0286
    CORREC:  cpu time    0.8116: real time    0.8179
    EDDIAG:  cpu time    0.4625: real time    0.4669
    CHARGE:  cpu time    0.2334: real time    0.2353
    --------------------------------------------
      LOOP:  cpu time    3.8541: real time    3.9053

 eigenvalue-minimisations  :     0
 total energy-change (2. order) :-0.6727641E-06  (-0.2671695E-06)
 number of electron     216.0000000 magnetization 
 augmentation part       -0.4367063 magnetization 

 Free energy of the ion-electron system (eV)
  ---------------------------------------------------
  alpha Z        PSCENC =        59.93625244
  Ewald energy   TEWEN  =     29209.91244113
  -Hartree energ DENC   =    -36278.51220317
  -exchange      EXHF   =         0.00000000
  -V(xc)+E(xc)   XCENC  =       451.37534892
  PAW double counting   =    112465.56057563  -112204.79615476
  entropy T*S    EENTRO =        -0.00000000
  eigenvalues    EBANDS =     -2557.76788337
  atomic energy  EATOM  =      8369.52358910
  ---------------------------------------------------
  free energy    TOTEN  =      -484.76803408 eV

  energy without entropy =     -484.76803408  energy(sigma->0) =     -484.76803408


--------------------------------------------------------------------------------------------------------


  average scaling for gradient   0.9128


 average (electrostatic) potential at core
  the test charge radii are     0.5770  0.5955
  (the norm of the test charge is              1.0000)
       1 -85.2908       2 -85.2904       3 -85.2906       4 -85.2912       5 -85.2899
       6 -85.2900       7 -85.2906       8 -85.2897       9 -85.2900      10 -85.2900
      11 -85.2900      12 -85.2899      13 -85.2901      14 -85.2901      15 -85.2898
      16 -85.2899      17 -85.2903      18 -85.2905      19 -85.2907      20 -85.2904
      21 -85.2898      22 -85.2898      23 -85.2915      24 -85.2915      25 -85.2898
      26 -85.2899      27 -85.2900      28 -85.2908      29 -85.2898      30 -85.2899
      31 -85.2909      32 -85.2905      33 -85.2900      34 -85.2900      35 -85.2900
      36 -85.2900      37 -85.2904      38 -85.2906      39 -85.2904      40 -85.2905
      41 -85.2904      42 -85.2904      43 -85.2903      44 -85.2906      45 -85.2899
      46 -85.2898      47 -85.2899      48 -85.2899      49 -85.2906      50 -85.2904
      51 -89.2289      52-120.0081      53-120.0071
 
 
 
 E-fermi :  -3.9069     XC(G=0):  -2.4321     alpha+bet : -2.1113

 Fermi energy:        -3.9068654522

 k-point     1 :       0.0000    0.0000    0.0000
  band No.  band energies     occupation 
      1     -27.3299      2.00000
      2     -26.3246      2.00000
      3     -22.0401      2.00000
      4     -21.1009      2.00000
      5     -21.0995      2.00000
      6     -21.0994      2.00000
      7     -21.0991      2.00000
      8     -21.0989      2.00000
      9     -21.0983      2.00000
     10     -19.2558      2.00000
     11     -19.2558      2.00000
     12     -19.2555      2.00000
     13     -19.2548      2.00000
     14     -19.2543      2.00000
     15     -19.2541      2.00000
     16     -18.3579      2.00000
     17     -18.3577      2.00000
     18     -18.3573      2.00000
     19     -18.3571      2.00000
     20     -18.3563      2.00000
     21     -18.3560      2.00000
     22     -16.1899      2.00000
     23     -16.1895      2.00000
     24     -16.1889      2.00000
     25     -16.1887      2.00000
     26     -16.1881      2.00000
     27     -16.1880      2.00000
     28     -15.2041      2.00000
     29     -15.2040      2.00000
     30     -15.2030      2.00000
     31     -15.2028      2.00000
     32     -15.2025      2.00000
     33     -15.2024      2.00000
     34     -13.8504      2.00000
     35     -13.8503      2.00000
     36     -13.8497      2.00000
     37     -13.8496      2.00000
     38     -13.8495      2.00000
     39     -13.8492      2.00000
     40     -12.1331      2.00000
     41     -11.4615      2.00000
     42     -11.4612      2.00000
     43     -11.4607      2.00000
     44     -11.4607      2.00000
     45     -11.4596      2.00000
     46     -11.4593      2.00000
     47     -11.3645      2.00000
     48     -11.3643      2.00000
     49     -11.3637      2.00000
     50     -11.3636      2.00000
     51     -11.3635      2.00000
     52     -11.3634      2.00000
     53     -10.9436      2.00000
     54     -10.8791      2.00000
     55     -10.8790      2.00000
     56     -10.1320      2.00000
     57      -9.9874      2.00000
     58      -9.9873      2.00000
     59      -9.9857      2.00000
     60      -9.9854      2.00000
     61      -9.9852      2.00000
     62      -9.9851      2.00000
     63      -9.0162      2.00000
     64      -9.0151      2.00000
     65      -9.0149      2.00000
     66      -9.0147      2.00000
     67      -9.0147      2.00000
     68      -9.0142      2.00000
     69      -8.7078      2.00000
     70      -8.7065      2.00000
     71      -8.7062      2.00000
     72      -8.7061      2.00000
     73      -8.7058      2.00000
     74      -8.7055      2.00000
     75      -8.6589      2.00000
     76      -8.6587      2.00000
     77      -8.6578      2.00000
     78      -8.6577      2.00000
     79      -8.6576      2.00000
     80      -8.6568      2.00000
     81      -7.3323      2.00000
     82      -7.3322      2.00000
     83      -7.0513      2.00000
     84      -7.0496      2.00000
     85      -7.0495      2.00000
     86      -7.0491      2.00000
     87      -7.0483      2.00000
     88      -7.0482      2.00000
     89      -6.8863      2.00000
     90      -6.8861      2.00000
     91      -6.8859      2.00000
     92      -6.8855      2.00000
     93      -6.8851      2.00000
     94      -6.8848      2.00000
     95      -5.9897      2.00000
     96      -5.9896      2.00000
     97      -5.9893      2.00000
     98      -5.9893      2.00000
     99      -5.9885      2.00000
    100      -5.9883      2.00000
    101      -5.5618      2.00000
    102      -5.5596      2.00000
    103      -4.0067      2.00000
    104      -4.0063      2.00000
    105      -4.0059      2.00000
    106      -4.0058      2.00000
    107      -4.0053      2.00000
    108      -4.0052      2.00000
    109      -1.2037      0.00000
    110      -1.2035      0.00000
    111      -1.2033      0.00000
    112      -1.2032      0.00000
    113      -1.2024      0.00000
    114      -1.2021      0.00000
    115       0.6559      0.00000
    116       0.6605      0.00000
    117       0.6608      0.00000
    118       0.6611      0.00000
    119       0.6612      0.00000
    120       0.6615      0.00000
    121       0.6626      0.00000
    122       0.8000      0.00000
    123       1.1494      0.00000
    124       1.5044      0.00000
    125       1.6450      0.00000
    126       2.0135      0.00000
    127       2.0150      0.00000
    128       2.0171      0.00000
    129       2.0240      0.00000
    130       2.0257      0.00000
    131       2.1474      0.00000
    132       2.4014      0.00000
    133       2.4015      0.00000
    134       2.4021      0.00000
    135       2.4022      0.00000
    136       2.4025      0.00000
    137       2.5517      0.00000
    138       2.8630      0.00000
    139       3.0844      0.00000
    140       3.3268      0.00000


--------------------------------------------------------------------------------------------------------


 soft charge-density along one line, spin component           1
         0         1         2         3         4         5         6         7         8         9
 total charge-density along one line
 
 pseudopotential strength for first ion, spin component:           1
 12.690  21.354   0.000   0.000   0.000   0.000   0.000   0.000
 21.354  35.932   0.000   0.000   0.000   0.000   0.000   0.000
  0.000   0.000  -3.164  -0.000   0.000  -5.672  -0.000   0.000
  0.000   0.000  -0.000  -3.166  -0.000  -0.000  -5.673  -0.000
  0.000   0.000   0.000  -0.000  -3.164   0.000  -0.000  -5.672
  0.000   0.000  -5.672  -0.000   0.000 -10.143  -0.000   0.000
  0.000   0.000  -0.000  -5.673  -0.000  -0.000 -10.146  -0.000
  0.000   0.000   0.000  -0.000  -5.672   0.000  -0.000 -10.143
 total augmentation occupancy for first ion, spin component:           1
  7.880  -2.765  -0.000  -0.002  -0.000   0.000   0.001   0.000
 -2.765   1.007   0.000   0.001   0.000  -0.000  -0.000  -0.000
 -0.000   0.000   7.264  -0.008   0.000  -2.462   0.003  -0.000
 -0.002   0.001  -0.008   3.234  -0.000   0.003  -0.862   0.000
 -0.000   0.000   0.000  -0.000   7.264  -0.000   0.000  -2.462
  0.000  -0.000  -2.462   0.003  -0.000   0.849  -0.001   0.000
  0.001  -0.000   0.003  -0.862   0.000  -0.001   0.236  -0.000
  0.000  -0.000  -0.000   0.000  -2.462   0.000  -0.000   0.849


------------------------ aborting loop because EDIFF is reached ----------------------------------------


    FORLOC:  cpu time    0.0492: real time    0.0497
    FORNL :  cpu time    0.7570: real time    0.7659
    FORCOR:  cpu time    0.3366: real time    0.3388
    OFIELD:  cpu time    0.0015: real time    0.0016

 VOLUME and BASIS-vectors are now :
 -----------------------------------------------------------------------------
  energy-cutoff  :     1000.00
  volume of cell :     2631.08
      direct lattice vectors                 reciprocal lattice vectors
    12.325000000  0.000000000  0.000000000     0.081135903  0.046843835  0.000000000
    -6.162500000 10.673763102  0.000000000     0.000000000  0.093687670  0.000000000
     0.000000000  0.000000000 20.000000000     0.000000000  0.000000000  0.050000000

  length of vectors
    12.325000000 12.325000000 20.000000000     0.093687670  0.093687670  0.050000000


 FORCES acting on ions:
    Electron-Ion                     Ewald-Force                    Non-Local-Force
 -----------------------------------------------------------------------------------------------
   0.486E+00 0.433E+00 -.553E+00   -.486E+00 -.434E+00 0.547E+00   0.408E-02 -.591E-03 0.538E-02
   0.657E+00 0.384E+00 0.788E-02   -.660E+00 -.382E+00 -.526E-02   0.237E-02 -.292E-02 -.604E-02
   0.266E+00 0.707E+00 -.441E+00   -.267E+00 -.707E+00 0.438E+00   -.613E-04 0.111E-01 -.294E-02
   0.333E+00 0.472E+00 0.101E+01   -.330E+00 -.471E+00 -.100E+01   0.111E-01 0.689E-03 -.176E-01
   0.554E+00 0.152E+00 -.746E-01   -.552E+00 -.153E+00 0.703E-01   -.958E-03 -.498E-02 0.439E-02
   0.565E+00 -.135E+00 0.896E-01   -.568E+00 0.136E+00 -.898E-01   -.645E-02 0.365E-02 -.117E-02
   0.615E+00 0.300E+00 0.137E+01   -.616E+00 -.301E+00 -.136E+01   0.110E-01 -.186E-01 -.784E-02
   0.652E+00 -.189E+00 0.253E+01   -.657E+00 0.191E+00 -.252E+01   -.795E-02 -.477E-02 -.611E-02
   -.297E+00 0.733E+00 0.558E-01   0.300E+00 -.736E+00 -.544E-01   0.660E-03 -.136E-01 -.497E-02
   -.347E+00 0.320E+00 0.148E+01   0.347E+00 -.320E+00 -.147E+01   -.251E-01 0.143E-01 0.902E-03
   0.140E+00 -.152E+00 -.366E+00   -.137E+00 0.152E+00 0.364E+00   0.406E-02 -.278E-02 0.172E-02
   0.151E+00 -.124E+00 -.397E+00   -.151E+00 0.125E+00 0.390E+00   -.622E-02 0.317E-02 0.751E-02
   0.143E+00 -.489E+00 0.308E+01   -.143E+00 0.490E+00 -.306E+01   0.257E-01 -.693E-02 -.367E-02
   0.982E-01 -.797E+00 0.124E+01   -.101E+00 0.799E+00 -.123E+01   0.301E-02 0.735E-02 -.160E-01
   -.543E+00 0.322E+00 -.394E+00   0.545E+00 -.324E+00 0.385E+00   0.763E-02 -.417E-02 0.916E-02
   -.662E+00 0.165E+00 -.498E+00   0.661E+00 -.165E+00 0.498E+00   -.107E-02 0.484E-02 -.360E-02
   -.940E-01 -.397E-01 -.772E+00   0.964E-01 0.381E-01 0.769E+00   0.467E-03 0.908E-04 0.247E-02
   0.477E-01 0.326E+00 -.829E+00   -.475E-01 -.327E+00 0.820E+00   -.253E-02 0.120E-02 0.918E-02
   -.142E+00 -.747E+00 0.273E+00   0.142E+00 0.748E+00 -.274E+00   0.543E-02 -.117E-02 -.338E-03
   -.892E-01 -.469E+00 -.297E+00   0.866E-01 0.470E+00 0.297E+00   -.614E-03 -.584E-03 -.402E-03
   0.720E+00 -.295E+00 0.899E+00   -.719E+00 0.296E+00 -.889E+00   -.222E-02 -.181E-02 -.150E-01
   0.529E+00 -.414E+00 0.459E+00   -.532E+00 0.416E+00 -.460E+00   -.697E-02 0.546E-02 -.106E-03
   -.102E+00 0.178E+00 0.251E+01   0.978E-01 -.176E+00 -.249E+01   -.999E-02 0.102E-01 -.232E-02
   -.170E+00 -.302E+00 0.256E+01   0.173E+00 0.300E+00 -.254E+01   0.117E-01 -.143E-01 -.136E-01
   0.279E+00 -.943E-01 -.274E+00   -.277E+00 0.931E-01 0.274E+00   0.394E-02 -.279E-02 -.122E-02
   0.933E-01 0.245E+00 -.495E+00   -.938E-01 -.244E+00 0.488E+00   -.461E-02 0.299E-02 0.721E-02
   -.770E+00 0.394E-01 0.306E+00   0.774E+00 -.413E-01 -.306E+00   0.128E-01 0.741E-02 -.267E-02
   -.685E+00 -.308E+00 -.169E+00   0.686E+00 0.308E+00 0.166E+00   -.778E-02 0.887E-02 -.580E-03
   0.271E+00 -.588E+00 0.478E+00   -.270E+00 0.588E+00 -.476E+00   0.380E-02 0.249E-02 -.512E-02
   0.263E-01 -.251E+00 -.161E+00   -.284E-01 0.253E+00 0.162E+00   -.500E-02 0.234E-02 -.333E-03
   -.483E+00 -.479E+00 0.401E+00   0.481E+00 0.480E+00 -.397E+00   -.114E-01 -.775E-02 -.153E-01
   -.365E+00 -.723E+00 -.138E+00   0.367E+00 0.722E+00 0.134E+00   0.475E-03 -.381E-03 0.280E-03
   0.156E-01 0.174E+00 -.524E+00   -.152E-01 -.175E+00 0.516E+00   0.459E-02 -.444E-02 0.833E-02
   0.819E-01 0.138E+00 -.525E+00   -.846E-01 -.137E+00 0.525E+00   -.244E-02 0.472E-02 0.383E-03
   -.358E+00 0.678E-01 -.542E+00   0.360E+00 -.688E-01 0.536E+00   0.438E-02 -.253E-02 0.750E-02
   -.311E+00 -.154E+00 -.570E+00   0.310E+00 0.154E+00 0.565E+00   -.330E-02 0.214E-02 0.502E-02
   -.564E+00 -.326E+00 -.670E+00   0.567E+00 0.324E+00 0.667E+00   -.577E-04 0.851E-03 0.325E-02
   -.381E+00 -.313E+00 -.717E+00   0.382E+00 0.314E+00 0.709E+00   -.328E-02 0.121E-02 0.864E-02
   -.350E+00 -.442E+00 -.677E+00   0.349E+00 0.443E+00 0.674E+00   -.253E-02 0.389E-03 0.367E-02
   -.469E-01 -.132E+00 -.718E+00   0.480E-01 0.132E+00 0.712E+00   0.163E-02 0.818E-03 0.661E-02
   0.141E+00 0.334E+00 -.859E+00   -.142E+00 -.334E+00 0.854E+00   -.382E-02 0.133E-02 0.609E-02
   0.414E+00 0.594E+00 -.759E+00   -.413E+00 -.595E+00 0.751E+00   -.115E-02 -.112E-02 0.620E-02
   0.569E-01 0.549E+00 -.833E+00   -.542E-01 -.550E+00 0.830E+00   0.402E-03 0.768E-04 0.257E-02
   0.186E-01 0.767E+00 -.528E+00   -.182E-01 -.768E+00 0.520E+00   -.742E-02 0.110E-02 0.442E-02
   -.113E+00 0.206E+00 -.435E+00   0.115E+00 -.208E+00 0.432E+00   0.429E-02 -.325E-02 0.343E-02
   -.366E+00 0.491E+00 -.418E+00   0.365E+00 -.491E+00 0.417E+00   -.547E-02 -.250E-03 0.227E-03
   -.131E+00 -.241E+00 -.237E+00   0.132E+00 0.241E+00 0.231E+00   0.566E-02 -.116E-02 0.738E-02
   -.232E+00 0.792E-01 -.572E+00   0.231E+00 -.784E-01 0.572E+00   -.377E-02 0.322E-02 -.124E-02
   0.154E-01 -.145E+00 -.573E+00   -.153E-01 0.145E+00 0.569E+00   0.374E-02 -.295E-02 0.555E-02
   0.235E+00 0.171E+00 -.628E+00   -.237E+00 -.170E+00 0.625E+00   -.861E-03 0.184E-02 0.342E-02
   -.758E-02 0.331E-01 0.464E+00   0.283E-02 -.290E-01 -.429E+00   -.283E-02 0.190E-02 -.287E-02
   -.229E+03 0.156E+03 -.110E+02   0.279E+03 -.190E+03 0.143E+02   -.511E+02 0.348E+02 -.343E+01
   0.229E+03 -.156E+03 0.875E+01   -.279E+03 0.190E+03 -.118E+02   0.511E+02 -.348E+02 0.309E+01
 -----------------------------------------------------------------------------------------------
   -.792E-02 0.143E-01 0.343E+00   0.568E-13 0.000E+00 -.178E-14   0.761E-02 -.141E-01 -.342E+00
 
 
 POSITION                                       TOTAL-FORCE (eV/Angst)
 -----------------------------------------------------------------------------------
     11.98348      0.00342      0.01417         0.003267     -0.001738     -0.001010
     -0.34154      1.42665      0.01100        -0.000537     -0.000110     -0.003460
      2.12355      0.00315      0.01249        -0.001742      0.010968     -0.006454
      2.12326      1.42653      0.00641         0.013633      0.001323     -0.008540
     10.75099      2.13819      0.01213         0.000449     -0.005781     -0.000071
     -1.57382      3.56123      0.01110        -0.009026      0.004725     -0.001424
      0.89078      2.13854      0.00548         0.009818     -0.019286      0.002226
      0.89099      3.56147      0.00181        -0.011706     -0.002588      0.011537
      4.58864      0.00346      0.01135         0.003549     -0.015764     -0.003556
      4.58894      1.42623      0.00646        -0.023888      0.013487      0.013630
      9.51854      4.27281      0.01369         0.006533     -0.003108      0.000191
     -2.80632      5.69591      0.01434        -0.006618      0.003434      0.000761
      2.12300      4.27302      0.00000         0.025412     -0.005207      0.020066
      2.12335      5.69594      0.00581        -0.000405      0.009073     -0.002772
      7.05344      0.00333      0.01399         0.009405     -0.005304     -0.000353
      7.05353      1.42635      0.01368        -0.001779      0.005040     -0.003811
      8.28610      6.40752      0.01601         0.002875     -0.001449     -0.000825
     -4.03885      7.83070      0.01636        -0.002276      0.000874     -0.000081
      3.35586      6.40753      0.01007         0.005632      0.000484     -0.001286
      3.35599      7.83072      0.01320        -0.003136     -0.000027     -0.000704
     -0.34146      4.27290      0.00723        -0.001768     -0.001547     -0.004553
     -0.34138      5.69591      0.00946        -0.009214      0.006587     -0.001067
      3.35624      2.13791      0.00222        -0.013768      0.012102      0.015554
      3.35573      3.56155      0.00139         0.013782     -0.016169      0.008060
     -1.57395      6.40758      0.01311         0.005372     -0.003941     -0.000606
     -1.57385      7.83068      0.01438        -0.004931      0.003802      0.000049
      5.82093      2.13784      0.01033         0.015941      0.005273     -0.002996
      5.82114      3.56097      0.01156        -0.006505      0.008653     -0.003720
      0.89092      6.40755      0.00907         0.004694      0.002304     -0.002265
      0.89106      7.83068      0.01235        -0.006838      0.003942      0.000358
      4.58871      4.27293      0.00850        -0.013143     -0.006624     -0.010965
      4.58852      5.69606      0.01149         0.002011     -0.001300     -0.004038
      9.51845      0.00337      0.01490         0.004830     -0.004703      0.000185
      9.51855      1.42644      0.01438        -0.005153      0.005412     -0.000332
      8.28593      2.13803      0.01453         0.006768     -0.003411      0.000613
      8.28613      3.56115      0.01464        -0.004431      0.002266     -0.000037
      7.05356      4.27269      0.01457         0.002506     -0.001105     -0.000692
      7.05362      5.69588      0.01553        -0.002536      0.001570     -0.000081
      5.82112      6.40755      0.01489        -0.002996      0.001544     -0.000107
      5.82102      7.83073      0.01579         0.002737      0.000259     -0.000291
      7.05363      8.54227      0.01631        -0.004689      0.001309      0.001053
     -5.27149      9.96549      0.01495         0.000236     -0.001973     -0.002167
     -2.80638      8.54234      0.01558         0.003084     -0.001295     -0.001229
     -2.80627      9.96553      0.01362        -0.006916     -0.000019     -0.003798
     -0.34149      8.54239      0.01378         0.005801     -0.004923      0.000242
     -0.34138      9.96550      0.01354        -0.005977     -0.000014     -0.001266
      2.12343      8.54232      0.01336         0.005941     -0.001549      0.000774
      2.12354      9.96544      0.01469        -0.005109      0.003826     -0.001877
      4.58846      8.54235      0.01505         0.003732     -0.002826      0.001004
      4.58853      9.96550      0.01517        -0.002674      0.003338      0.000121
      3.04930      2.68154     10.00000        -0.007398      0.005930      0.034377
      4.02070      2.02068     10.06442        -0.526515      0.357819     -0.050916
      2.07767      3.34267      9.94055         0.533668     -0.363583      0.016548
 -----------------------------------------------------------------------------------
    total drift:                               -0.000310      0.000233      0.000981


--------------------------------------------------------------------------------------------------------



  FREE ENERGIE OF THE ION-ELECTRON SYSTEM (eV)
  ---------------------------------------------------
  free  energy   TOTEN  =      -484.76803408 eV

  energy  without entropy=     -484.76803408  energy(sigma->0) =     -484.76803408
 


--------------------------------------------------------------------------------------------------------


    POTLOK:  cpu time    0.2839: real time    0.2864


--------------------------------------------------------------------------------------------------------


     LOOP+:  cpu time  111.6757: real time  113.3048
    4ORBIT:  cpu time    0.0000: real time    0.0000

 total amount of memory used by VASP MPI-rank0   175916. kBytes
=======================================================================

   base      :      30000. kBytes
   nonl-proj :      46129. kBytes
   fftplans  :      35778. kBytes
   grid      :      52596. kBytes
   one-center:         43. kBytes
   wavefun   :      11370. kBytes
 
  
  
 General timing and accounting informations for this job:
 ========================================================
  
                  Total CPU time used (sec):      147.239
                            User time (sec):      135.535
                          System time (sec):       11.704
                         Elapsed time (sec):      150.595
  
                   Maximum memory used (kb):      507320.
                   Average memory used (kb):          N/A
  
                          Minor page faults:        52575
                          Major page faults:           76
                 Voluntary context switches:         3735
