 vasp.6.2.1 16May21 (build Nov 06 2021 14:46:37) complex                        
  
 executed on             LinuxIFC date 2025.04.16  17:47:45
 running on  112 total cores
 distrk:  each k-point on  112 cores,    1 groups
 distr:  one band on NCORE=   4 cores,   28 groups


--------------------------------------------------------------------------------------------------------


 INCAR:
   ALGO = Conjugate
   NCORE = 4
   ISMEAR = 0
   SIGMA = 0.01
   PREC = Accurate
   EDIFF = 1E-6
   ENCUT = 1000
   ISIF = 0
   LWAVE = .FALSE.
   LCHARGE = .FALSE.
   SYMPREC = 1E-6

 POTCAR:    PAW_PBE C_h 06Feb2004                 
 POTCAR:    PAW_PBE O_h 06Feb2004                 
 -----------------------------------------------------------------------------
|                                                                             |
|           W    W    AA    RRRRR   N    N  II  N    N   GGGG   !!!           |
|           W    W   A  A   R    R  NN   N  II  NN   N  G    G  !!!           |
|           W    W  A    A  R    R  N N  N  II  N N  N  G       !!!           |
|           W WW W  AAAAAA  RRRRR   N  N N  II  N  N N  G  GGG   !            |
|           WW  WW  A    A  R   R   N   NN  II  N   NN  G    G                |
|           W    W  A    A  R    R  N    N  II  N    N   GGGG   !!!           |
|                                                                             |
|     For optimal performance we recommend to set                             |
|       NCORE = 2 up to number-of-cores-per-socket                            |
|     NCORE specifies how many cores store one orbital (NPAR=cpu/NCORE).      |
|     This setting can greatly improve the performance of VASP for DFT.       |
|     The default, NCORE=1 might be grossly inefficient on modern             |
|     multi-core architectures or massively parallel machines. Do your        |
|     own testing! More info at https://www.vasp.at/wiki/index.php/NCORE      |
|     Unfortunately you need to use the default for GW and RPA                |
|     calculations (for HF NCORE is supported but not extensively tested      |
|     yet).                                                                   |
|                                                                             |
 -----------------------------------------------------------------------------

 POTCAR:    PAW_PBE C_h 06Feb2004                 
   VRHFIN =C: s2p2                                                                                  
   LEXCH  = PE                                                                                      
   EATOM  =   147.1560 eV,   10.8157 Ry                                                             
                                                                                                    
   TITEL  = PAW_PBE C_h 06Feb2004                                                                   
   LULTRA =        F    use ultrasoft PP ?                                                          
   IUNSCR =        1    unscreen: 0-lin 1-nonlin 2-no                                               
   RPACOR =    0.800    partial core radius                                                         
   POMASS =   12.011; ZVAL   =    4.000    mass and valenz                                          
   RCORE  =    1.100    outmost cutoff radius                                                       
   RWIGS  =    1.630; RWIGS  =    0.863    wigner-seitz radius (au A)                               
   ENMAX  =  700.000; ENMIN  =  500.000 eV                                                          
   ICORE  =        2    local potential                                                             
   LCOR   =        T    correct aug charges                                                         
   LPAW   =        T    paw PP                                                                      
   EAUG   =  946.768                                                                                
   DEXC   =    0.000                                                                                
   RMAX   =    1.128    core radius for proj-oper                                                   
   RAUG   =    1.300    factor for augmentation sphere                                              
   RDEP   =    1.162    radius for radial grids                                                     
   RDEPT  =    1.088    core radius for aug-charge                                                  
                                                                                                    
   Atomic configuration                                                                             
    4 entries                                                                                       
     n  l   j            E        occ.                                                              
     1  0  0.50      -273.3789   2.0000                                                             
     2  0  0.50       -13.7508   2.0000                                                             
     2  1  0.50        -5.2854   2.0000                                                             
     3  2  1.50        -5.4423   0.0000                                                             
   Description                                                                                      
     l       E           TYP  RCUT    TYP  RCUT                                                     
     0    -13.7508458     23  1.100                                                                 
     0     -8.2022199     23  1.100                                                                 
     1     -5.2854383     23  1.100                                                                 
     1      1.1560700     23  1.100                                                                 
     2     -5.4423304      7  1.100                                                                 
  local pseudopotential read in
  partial core-charges read in
  partial kinetic energy density read in
  atomic valenz-charges read in
  non local Contribution for L=           0  read in
    real space projection operators read in
  non local Contribution for L=           0  read in
    real space projection operators read in
  non local Contribution for L=           1  read in
    real space projection operators read in
  non local Contribution for L=           1  read in
    real space projection operators read in
    PAW grid and wavefunctions read in
 
   number of l-projection  operators is LMAX  =           4
   number of lm-projection operators is LMMAX =           8
 
 POTCAR:    PAW_PBE O_h 06Feb2004                 
   VRHFIN =O: s2p4                                                                                  
   LEXCH  = PE                                                                                      
   EATOM  =   432.3788 eV,   31.7789 Ry                                                             
                                                                                                    
   TITEL  = PAW_PBE O_h 06Feb2004                                                                   
   LULTRA =        F    use ultrasoft PP ?                                                          
   IUNSCR =        1    unscreen: 0-lin 1-nonlin 2-no                                               
   RPACOR =    0.800    partial core radius                                                         
   POMASS =   16.000; ZVAL   =    6.000    mass and valenz                                          
   RCORE  =    1.100    outmost cutoff radius                                                       
   RWIGS  =    1.400; RWIGS  =    0.741    wigner-seitz radius (au A)                               
   ENMAX  =  700.000; ENMIN  =  500.000 eV                                                          
   ICORE  =        2    local potential                                                             
   LCOR   =        T    correct aug charges                                                         
   LPAW   =        T    paw PP                                                                      
   EAUG   =  888.804                                                                                
   DEXC   =    0.000                                                                                
   RMAX   =    1.128    core radius for proj-oper                                                   
   RAUG   =    1.300    factor for augmentation sphere                                              
   RDEP   =    1.125    radius for radial grids                                                     
   RDEPT  =    1.088    core radius for aug-charge                                                  
                                                                                                    
   Atomic configuration                                                                             
    4 entries                                                                                       
     n  l   j            E        occ.                                                              
     1  0  0.50      -514.6923   2.0000                                                             
     2  0  0.50       -23.9615   2.0000                                                             
     2  1  0.50        -9.0305   4.0000                                                             
     3  2  1.50        -9.5241   0.0000                                                             
   Description                                                                                      
     l       E           TYP  RCUT    TYP  RCUT                                                     
     0    -23.9615319     23  1.100                                                                 
     0    -25.3221145     23  1.100                                                                 
     1     -9.0304911     23  1.100                                                                 
     1     -5.4802209     23  1.100                                                                 
     2     -9.5240782      7  1.100                                                                 
  local pseudopotential read in
  partial core-charges read in
  partial kinetic energy density read in
  atomic valenz-charges read in
  non local Contribution for L=           0  read in
    real space projection operators read in
  non local Contribution for L=           0  read in
    real space projection operators read in
  non local Contribution for L=           1  read in
    real space projection operators read in
  non local Contribution for L=           1  read in
    real space projection operators read in
    PAW grid and wavefunctions read in
 
   number of l-projection  operators is LMAX  =           4
   number of lm-projection operators is LMMAX =           8
 
 -----------------------------------------------------------------------------
|                                                                             |
|               ----> ADVICE to this user running VASP <----                  |
|                                                                             |
|     You have a (more or less) 'large supercell' and for larger cells it     |
|     might be more efficient to use real-space projection operators.         |
|     Therefore, try LREAL= Auto in the INCAR file.                           |
|     Mind: For very accurate calculation, you might also keep the            |
|     reciprocal projection scheme (i.e. LREAL=.FALSE.).                      |
|                                                                             |
 -----------------------------------------------------------------------------

  PAW_PBE C_h 06Feb2004                 :
 energy of atom  1       EATOM= -147.1560
 kinetic energy error for atom=    0.0031 (will be added to EATOM!!)
  PAW_PBE O_h 06Feb2004                 :
 energy of atom  2       EATOM= -432.3788
 kinetic energy error for atom=    0.0171 (will be added to EATOM!!)
 
 
 POSCAR:  C  O
  positions in cartesian coordinates
  No initial velocities read in
 exchange correlation table for  LEXCH =        8
   RHO(1)=    0.500       N(1)  =     2000
   RHO(2)=  100.500       N(2)  =     4000
 


--------------------------------------------------------------------------------------------------------


 ion  position               nearest neighbor table
   1  0.972  0.000  0.001-  50 1.42   2 1.42  42 1.42
   2  0.039  0.134  0.000-   5 1.42   7 1.42   1 1.42
   3  0.172  0.000  0.000-  42 1.42  44 1.42   4 1.42
   4  0.239  0.134  0.000-   7 1.42   3 1.42  23 1.42
   5  0.972  0.200  0.000-   6 1.42   2 1.42  34 1.42
   6  0.039  0.334  0.000-   5 1.42  21 1.42  11 1.42
   7  0.172  0.200  0.000-   8 1.42   2 1.42   4 1.42
   8  0.239  0.334  0.000-  13 1.42   7 1.42  21 1.42
   9  0.372  0.000  0.000-  10 1.42  44 1.42  46 1.42
  10  0.439  0.134  0.000-  27 1.42   9 1.42  23 1.42
  11  0.972  0.400  0.001-  12 1.42  36 1.42   6 1.42
  12  0.039  0.534  0.001-  25 1.42  11 1.42  17 1.42
  13  0.372  0.400  0.000-   8 1.42  14 1.42  24 1.42
  14  0.439  0.534  0.000-  13 1.42  29 1.42  19 1.42
  15  0.572  0.000  0.001-  46 1.42  16 1.42  48 1.42
  16  0.639  0.134  0.001-  15 1.42  35 1.42  27 1.42
  17  0.972  0.600  0.001-  38 1.42  18 1.42  12 1.42
  18  0.039  0.734  0.001-  43 1.42  41 1.42  17 1.42
  19  0.572  0.600  0.000-  14 1.42  20 1.42  32 1.42
  20  0.639  0.734  0.001-  49 1.42  19 1.42  47 1.42
  21  0.172  0.400  0.000-  22 1.42   8 1.42   6 1.42
  22  0.239  0.534  0.000-  21 1.42  29 1.42  25 1.42
  23  0.372  0.200  0.000-  10 1.42   4 1.42  24 1.42
  24  0.439  0.334  0.000-  13 1.42  31 1.42  23 1.42
  25  0.172  0.600  0.001-  26 1.42  12 1.42  22 1.42
  26  0.239  0.734  0.001-  25 1.42  45 1.42  43 1.42
  27  0.572  0.200  0.000-  10 1.42  28 1.42  16 1.42
  28  0.639  0.334  0.000-  27 1.42  37 1.42  31 1.42
  29  0.372  0.600  0.000-  22 1.42  14 1.42  30 1.42
  30  0.439  0.734  0.000-  47 1.42  29 1.42  45 1.42
  31  0.572  0.400  0.000-  32 1.42  28 1.42  24 1.42
  32  0.639  0.534  0.000-  31 1.42  39 1.42  19 1.42
  33  0.772  0.000  0.001-  34 1.42  48 1.42  50 1.42
  34  0.839  0.134  0.001-  33 1.42   5 1.42  35 1.42
  35  0.772  0.200  0.001-  36 1.42  16 1.42  34 1.42
  36  0.839  0.334  0.001-  35 1.42  11 1.42  37 1.42
  37  0.772  0.400  0.001-  28 1.42  38 1.42  36 1.42
  38  0.839  0.534  0.001-  17 1.42  37 1.42  39 1.42
  39  0.772  0.600  0.001-  40 1.42  38 1.42  32 1.42
  40  0.839  0.734  0.001-  39 1.42  49 1.42  41 1.42
  41  0.972  0.800  0.001-  18 1.42  42 1.42  40 1.42
  42  0.039  0.934  0.001-   3 1.42  41 1.42   1 1.42
  43  0.172  0.800  0.001-  18 1.42  44 1.42  26 1.42
  44  0.239  0.934  0.001-   9 1.42  43 1.42   3 1.42
  45  0.372  0.800  0.001-  26 1.42  46 1.42  30 1.42
  46  0.439  0.934  0.001-  15 1.42  45 1.42   9 1.42
  47  0.572  0.800  0.001-  30 1.42  48 1.42  20 1.42
  48  0.639  0.934  0.001-  47 1.42  33 1.42  15 1.42
  49  0.772  0.800  0.001-  50 1.42  20 1.42  40 1.42
  50  0.839  0.934  0.001-  49 1.42   1 1.42  33 1.42
  51  0.373  0.251  0.300-  52 1.18  53 1.18
  52  0.421  0.189  0.302-  51 1.18
  53  0.325  0.313  0.297-  51 1.18
 
  LATTYP: Found a hexagonal cell.
 ALAT       =    12.3250000000
 C/A-ratio  =     2.0283975659
  
  Lattice vectors:
  
 A1 = (  12.3250000000,   0.0000000000,   0.0000000000)
 A2 = (  -6.1625000000,  10.6737631016,   0.0000000000)
 A3 = (   0.0000000000,   0.0000000000,  25.0000000000)


Analysis of symmetry for initial positions (statically):
=====================================================================
 Subroutine PRICEL returns:
 Original cell was already a primitive cell.
 

 Routine SETGRP: Setting up the symmetry group for a 
 hexagonal supercell.


 Subroutine GETGRP returns: Found  1 space group operations
 (whereof  1 operations were pure point group operations)
 out of a pool of 24 trial point group operations.


The static configuration has the point symmetry C_1 .


Analysis of symmetry for dynamics (positions and initial velocities):
=====================================================================
 Subroutine PRICEL returns:
 Original cell was already a primitive cell.
 

 Routine SETGRP: Setting up the symmetry group for a 
 hexagonal supercell.


 Subroutine GETGRP returns: Found  1 space group operations
 (whereof  1 operations were pure point group operations)
 out of a pool of 24 trial point group operations.


The dynamic configuration has the point symmetry C_1 .


 Subroutine INISYM returns: Found  1 space group operations
 (whereof  1 operations are pure point group operations),
 and found     1 'primitive' translations


----------------------------------------------------------------------------------------

                                     Primitive cell                                     

  volume of cell :    3288.8533

  direct lattice vectors                    reciprocal lattice vectors
    12.325000000  0.000000000  0.000000000     0.081135903  0.046843835  0.000000000
    -6.162500000 10.673763102  0.000000000     0.000000000  0.093687670  0.000000000
     0.000000000  0.000000000 25.000000000     0.000000000  0.000000000  0.040000000

  length of vectors
    12.325000000 12.325000000 25.000000000     0.093687670  0.093687670  0.040000000

  position of ions in fractional coordinates (direct lattice)
     0.972450841  0.000320818  0.000566711
     0.039118382  0.133659505  0.000440173
     0.172443627  0.000295449  0.000499628
     0.239096278  0.133647917  0.000256468
     0.972452058  0.200322012  0.000485219
     0.039128360  0.333643771  0.000444150
     0.172451764  0.200354552  0.000219167
     0.239124359  0.333665720  0.000072260
     0.372465565  0.000324403  0.000453913
     0.439137473  0.133619939  0.000258338
     0.972449824  0.400309362  0.000547611
     0.039124981  0.533636789  0.000573410
     0.372416176  0.400329481  0.000000000
     0.439099602  0.533638981  0.000232414
     0.572443676  0.000312125  0.000559580
     0.639110207  0.133631751  0.000547275
     0.972452703  0.600305653  0.000640289
     0.039124495  0.733640359  0.000654513
     0.572433471  0.600306242  0.000402895
     0.639111888  0.733641879  0.000527905
     0.172454630  0.400318228  0.000289045
     0.239120185  0.533636548  0.000378509
     0.372459750  0.200295993  0.000088997
     0.439107096  0.333673419  0.000055762
     0.172452155  0.600311506  0.000524340
     0.239123371  0.733638574  0.000575129
     0.572431082  0.200289171  0.000413296
     0.639112773  0.333618630  0.000462376
     0.372439808  0.600308022  0.000362844
     0.439116090  0.733637858  0.000494190
     0.572469358  0.400320504  0.000339918
     0.639119408  0.533650873  0.000459610
     0.772445723  0.000315427  0.000596161
     0.839116277  0.133640203  0.000575306
     0.772440513  0.200307432  0.000581033
     0.839120241  0.333635728  0.000585467
     0.772446320  0.400298367  0.000582978
     0.839118980  0.533633964  0.000621100
     0.772456143  0.600308173  0.000595712
     0.839115033  0.733643180  0.000631512
     0.972455313  0.800305582  0.000652233
     0.039114714  0.933643289  0.000598051
     0.172457971  0.800312211  0.000623372
     0.239134551  0.933647193  0.000544850
     0.372451396  0.800316674  0.000551399
     0.439124489  0.933644769  0.000541430
     0.572441101  0.800310054  0.000534535
     0.639115067  0.933638985  0.000587644
     0.772445098  0.800313187  0.000602062
     0.839116614  0.933644338  0.000606830
     0.373021009  0.251226878  0.299661415
     0.420879805  0.189313152  0.302238290
     0.325156981  0.313167186  0.297283220

  ion indices of the primitive-cell ions
   primitive index   ion index
                 1           1
                 2           2
                 3           3
                 4           4
                 5           5
                 6           6
                 7           7
                 8           8
                 9           9
                10          10
                11          11
                12          12
                13          13
                14          14
                15          15
                16          16
                17          17
                18          18
                19          19
                20          20
                21          21
                22          22
                23          23
                24          24
                25          25
                26          26
                27          27
                28          28
                29          29
                30          30
                31          31
                32          32
                33          33
                34          34
                35          35
                36          36
                37          37
                38          38
                39          39
                40          40
                41          41
                42          42
                43          43
                44          44
                45          45
                46          46
                47          47
                48          48
                49          49
                50          50
                51          51
                52          52
                53          53

----------------------------------------------------------------------------------------

 
 
 KPOINTS: auto                                    

Automatic generation of k-mesh.
 Grid dimensions read from file:
 generate k-points for:    1    1    1

 Generating k-lattice:

  Cartesian coordinates                     Fractional coordinates (reciprocal lattice)
     0.081135903  0.046843835  0.000000000     1.000000000 -0.000000000  0.000000000
     0.000000000  0.093687670  0.000000000     0.000000000  1.000000000  0.000000000
     0.000000000  0.000000000  0.040000000     0.000000000  0.000000000  1.000000000

  Length of vectors
     0.093687670  0.093687670  0.040000000

  Shift w.r.t. Gamma in fractional coordinates (k-lattice)
     0.000000000  0.000000000  0.000000000

 
 Subroutine IBZKPT returns following result:
 ===========================================
 
 Found      1 irreducible k-points:
 
 Following reciprocal coordinates:
            Coordinates               Weight
  0.000000  0.000000  0.000000      1.000000
 
 Following cartesian coordinates:
            Coordinates               Weight
  0.000000  0.000000  0.000000      1.000000
 


--------------------------------------------------------------------------------------------------------




 Dimension of arrays:
   k-points           NKPTS =      1   k-points in BZ     NKDIM =      1   number of bands    NBANDS=    140
   number of dos      NEDOS =    301   number of ions     NIONS =     53
   non local maximal  LDIM  =      4   non local SUM 2l+1 LMDIM =      8
   total plane-waves  NPLWV = ******
   max r-space proj   IRMAX =      1   max aug-charges    IRDMAX=  10008
   dimension x,y,z NGX =   128 NGY =  128 NGZ =  270
   dimension x,y,z NGXF=   256 NGYF=  256 NGZF=  540
   support grid    NGXF=   256 NGYF=  256 NGZF=  540
   ions per type =              51   2
   NGX,Y,Z   is equivalent  to a cutoff of  17.27, 17.27, 17.95 a.u.
   NGXF,Y,Z  is equivalent  to a cutoff of  34.53, 34.53, 35.91 a.u.

 SYSTEM =  unknown system                          
 POSCAR =   C  O                                   

 Startparameter for this run:
   NWRITE =      2    write-flag & timer
   PREC   = accura    normal or accurate (medium, high low for compatibility)
   ISTART =      0    job   : 0-new  1-cont  2-samecut
   ICHARG =      2    charge: 1-file 2-atom 10-const
   ISPIN  =      1    spin polarized calculation?
   LNONCOLLINEAR =      F non collinear calculations
   LSORBIT =      F    spin-orbit coupling
   INIWAV =      1    electr: 0-lowe 1-rand  2-diag
   LASPH  =      F    aspherical Exc in radial PAW
 Electronic Relaxation 1
   ENCUT  = 1000.0 eV  73.50 Ry    8.57 a.u.  31.78 31.78 64.46*2*pi/ulx,y,z
   ENINI  = 1000.0     initial cutoff
   ENAUG  =  946.8 eV  augmentation charge cutoff
   NELM   =     60;   NELMIN=  2; NELMDL= -5     # of ELM steps 
   EDIFF  = 0.1E-05   stopping-criterion for ELM
   LREAL  =      F    real-space projection
   NLSPLINE    = F    spline interpolate recip. space projectors
   LCOMPAT=      F    compatible to vasp.4.4
   GGA_COMPAT  = T    GGA compatible to vasp.4.4-vasp.4.6
   LMAXPAW     = -100 max onsite density
   LMAXMIX     =    2 max onsite mixed and CHGCAR
   VOSKOWN=      0    Vosko Wilk Nusair interpolation
   ROPT   =    0.00000   0.00000
 Ionic relaxation
   EDIFFG = 0.1E-04   stopping-criterion for IOM
   NSW    =      0    number of steps for IOM
   NBLOCK =      1;   KBLOCK =      1    inner block; outer block 
   IBRION =     -1    ionic relax: 0-MD 1-quasi-New 2-CG
   NFREE  =      0    steps in history (QN), initial steepest desc. (CG)
   ISIF   =      0    stress and relaxation
   IWAVPR =     10    prediction:  0-non 1-charg 2-wave 3-comb
   ISYM   =      2    0-nonsym 1-usesym 2-fastsym
   LCORR  =      T    Harris-Foulkes like correction to forces

   POTIM  = 0.5000    time-step for ionic-motion
   TEIN   =    0.0    initial temperature
   TEBEG  =    0.0;   TEEND  =   0.0 temperature during run
   SMASS  =  -3.00    Nose mass-parameter (am)
   estimated Nose-frequenzy (Omega)   =  0.10E-29 period in steps = 0.13E+47 mass=  -0.347E-26a.u.
   SCALEE = 1.0000    scale energy and forces
   NPACO  =    256;   APACO  = 16.0  distance and # of slots for P.C.
   PSTRESS=    0.0 pullay stress

  Mass of Ions in am
   POMASS =  12.01 16.00
  Ionic Valenz
   ZVAL   =   4.00  6.00
  Atomic Wigner-Seitz radii
   RWIGS  =  -1.00 -1.00
  virtual crystal weights 
   VCA    =   1.00  1.00
   NELECT =     216.0000    total number of electrons
   NUPDOWN=      -1.0000    fix difference up-down

 DOS related values:
   EMIN   =  10.00;   EMAX   =-10.00  energy-range for DOS
   EFERMI =   0.00
   ISMEAR =     0;   SIGMA  =   0.01  broadening in eV -4-tet -1-fermi 0-gaus

 Electronic relaxation 2 (details)
   IALGO  =     58    algorithm
   LDIAG  =      T    sub-space diagonalisation (order eigenvalues)
   LSUBROT=      F    optimize rotation matrix (better conditioning)
   TURBO    =      0    0=normal 1=particle mesh
   IRESTART =      0    0=no restart 2=restart with 2 vectors
   NREBOOT  =      0    no. of reboots
   NMIN     =      0    reboot dimension
   EREF     =   0.00    reference energy to select bands
   IMIX   =      4    mixing-type and parameters
     AMIX     =   0.40;   BMIX     =  1.00
     AMIX_MAG =   1.60;   BMIX_MAG =  1.00
     AMIN     =   0.10
     WC   =   100.;   INIMIX=   1;  MIXPRE=   1;  MAXMIX= -45

 Intra band minimization:
   WEIMIN = 0.0000     energy-eigenvalue tresh-hold
   EBREAK =  0.18E-08  absolut break condition
   DEPER  =   0.30     relativ break condition  

   TIME   =   0.40     timestep for ELM

  volume/ion in A,a.u.               =      62.05       418.76
  Fermi-wavevector in a.u.,A,eV,Ry     =   0.660508  1.248179  5.935820  0.436270
  Thomas-Fermi vector in A             =   1.732977
 
 Write flags
   LWAVE        =      F    write WAVECAR
   LDOWNSAMPLE  =      F    k-point downsampling of WAVECAR
   LCHARG       =      T    write CHGCAR
   LVTOT        =      F    write LOCPOT, total local potential
   LVHAR        =      F    write LOCPOT, Hartree potential only
   LELF         =      F    write electronic localiz. function (ELF)
   LORBIT       =      0    0 simple, 1 ext, 2 COOP (PROOUT), +10 PAW based schemes


 Dipole corrections
   LMONO  =      F    monopole corrections only (constant potential shift)
   LDIPOL =      F    correct potential (dipole corrections)
   IDIPOL =      0    1-x, 2-y, 3-z, 4-all directions 
   EPSILON=  1.0000000 bulk dielectric constant

 Exchange correlation treatment:
   GGA     =    --    GGA type
   LEXCH   =     8    internal setting for exchange type
   VOSKOWN=      0    Vosko Wilk Nusair interpolation
   LHFCALC =     F    Hartree Fock is set to
   LHFONE  =     F    Hartree Fock one center treatment
   AEXX    =    0.0000 exact exchange contribution

 Linear response parameters
   LEPSILON=     F    determine dielectric tensor
   LRPA    =     F    only Hartree local field effects (RPA)
   LNABLA  =     F    use nabla operator in PAW spheres
   LVEL    =     F    velocity operator in full k-point grid
   LINTERFAST=   F  fast interpolation
   KINTER  =     0    interpolate to denser k-point grid
   CSHIFT  =0.1000    complex shift for real part using Kramers Kronig
   OMEGAMAX=  -1.0    maximum frequency
   DEG_THRESHOLD= 0.2000000E-02 threshold for treating states as degnerate
   RTIME   =   -0.100 relaxation time in fs
  (WPLASMAI=    0.000 imaginary part of plasma frequency in eV, 0.658/RTIME)
   DFIELD  = 0.0000000 0.0000000 0.0000000 field for delta impulse in time
 
 Orbital magnetization related:
   ORBITALMAG=     F  switch on orbital magnetization
   LCHIMAG   =     F  perturbation theory with respect to B field
   DQ        =  0.001000  dq finite difference perturbation B field
   LLRAUG    =     F  two centre corrections for induced B field



--------------------------------------------------------------------------------------------------------


 Static calculation
 charge density and potential will be updated during run
 non-spin polarized calculation
 Conjugate gradient for all bands (Freysoldt, et al. PRB 79, 241103 (2009))
 preconditioned conjugated gradient                                        
 perform sub-space diagonalisation
    before iterative eigenvector-optimisation
 modified Broyden-mixing scheme, WC =      100.0
 initial mixing is a Kerker type mixing with AMIX =  0.4000 and BMIX =      1.0000
 Hartree-type preconditioning will be used
 using additional bands           32
 reciprocal scheme for non local part
 use partial core corrections
 no Harris-corrections to forces 
 use gradient corrections 
 use of overlap-Matrix (Vanderbilt PP)
 Gauss-broadening in eV      SIGMA  =   0.01


--------------------------------------------------------------------------------------------------------


  energy-cutoff  :     1000.00
  volume of cell :     3288.85
      direct lattice vectors                 reciprocal lattice vectors
    12.325000000  0.000000000  0.000000000     0.081135903  0.046843835  0.000000000
    -6.162500000 10.673763102  0.000000000     0.000000000  0.093687670  0.000000000
     0.000000000  0.000000000 25.000000000     0.000000000  0.000000000  0.040000000

  length of vectors
    12.325000000 12.325000000 25.000000000     0.093687670  0.093687670  0.040000000


 
 k-points in units of 2pi/SCALE and weight: auto                                    
   0.00000000  0.00000000  0.00000000       1.000
 
 k-points in reciprocal lattice and weights: auto                                    
   0.00000000  0.00000000  0.00000000       1.000
 
 position of ions in fractional coordinates (direct lattice) 
   0.97245084  0.00032082  0.00056671
   0.03911838  0.13365950  0.00044017
   0.17244363  0.00029545  0.00049963
   0.23909628  0.13364792  0.00025647
   0.97245206  0.20032201  0.00048522
   0.03912836  0.33364377  0.00044415
   0.17245176  0.20035455  0.00021917
   0.23912436  0.33366572  0.00007226
   0.37246557  0.00032440  0.00045391
   0.43913747  0.13361994  0.00025834
   0.97244982  0.40030936  0.00054761
   0.03912498  0.53363679  0.00057341
   0.37241618  0.40032948  0.00000000
   0.43909960  0.53363898  0.00023241
   0.57244368  0.00031213  0.00055958
   0.63911021  0.13363175  0.00054727
   0.97245270  0.60030565  0.00064029
   0.03912449  0.73364036  0.00065451
   0.57243347  0.60030624  0.00040289
   0.63911189  0.73364188  0.00052791
   0.17245463  0.40031823  0.00028904
   0.23912018  0.53363655  0.00037851
   0.37245975  0.20029599  0.00008900
   0.43910710  0.33367342  0.00005576
   0.17245216  0.60031151  0.00052434
   0.23912337  0.73363857  0.00057513
   0.57243108  0.20028917  0.00041330
   0.63911277  0.33361863  0.00046238
   0.37243981  0.60030802  0.00036284
   0.43911609  0.73363786  0.00049419
   0.57246936  0.40032050  0.00033992
   0.63911941  0.53365087  0.00045961
   0.77244572  0.00031543  0.00059616
   0.83911628  0.13364020  0.00057531
   0.77244051  0.20030743  0.00058103
   0.83912024  0.33363573  0.00058547
   0.77244632  0.40029837  0.00058298
   0.83911898  0.53363396  0.00062110
   0.77245614  0.60030817  0.00059571
   0.83911503  0.73364318  0.00063151
   0.97245531  0.80030558  0.00065223
   0.03911471  0.93364329  0.00059805
   0.17245797  0.80031221  0.00062337
   0.23913455  0.93364719  0.00054485
   0.37245140  0.80031667  0.00055140
   0.43912449  0.93364477  0.00054143
   0.57244110  0.80031005  0.00053453
   0.63911507  0.93363899  0.00058764
   0.77244510  0.80031319  0.00060206
   0.83911661  0.93364434  0.00060683
   0.37302101  0.25122688  0.29966142
   0.42087980  0.18931315  0.30223829
   0.32515698  0.31316719  0.29728322
 
 position of ions in cartesian coordinates  (Angst):
  11.98347958  0.00342433  0.01416777
  -0.34154264  1.42664989  0.01100432
   2.12354700  0.00315355  0.01249070
   2.12325634  1.42652621  0.00641170
  10.75098721  2.13818970  0.01213047
  -1.57382270  3.56123457  0.01110375
   0.89078307  2.13853702  0.00547917
   0.89099273  3.56146885  0.00180651
   4.58863896  0.00346260  0.01134782
   4.58893648  1.42622757  0.00645846
   9.51853763  4.27280730  0.01369027
  -2.80632132  5.69591267  0.01433526
   2.12299894  4.27302204  0.00000000
   2.12335237  5.69593607  0.00581036
   7.05344483  0.00333155  0.01398950
   7.05352764  1.42635365  0.01368187
   8.28609598  6.40752033  0.01600723
  -4.03884931  7.83070339  0.01636283
   3.35585531  6.40752662  0.01007237
   3.35598594  7.83071962  0.01319763
  -0.34145776  4.27290193  0.00722612
  -0.34137895  5.69591010  0.00946273
   3.35624236  2.13791198  0.00222492
   3.35573251  3.56155103  0.00139405
  -1.57394684  6.40758280  0.01310850
  -1.57385216  7.83068434  0.01437823
   5.82093107  2.13783916  0.01033241
   5.82114012  3.56096622  0.01155939
   0.89092245  6.40754561  0.00907111
   0.89106251  7.83067670  0.01235474
   4.58870974  4.27292622  0.00849795
   4.58852320  5.69606300  0.01149026
   9.51844972  0.00336679  0.01490402
   9.51855036  1.42644387  0.01438264
   8.28593477  2.13803408  0.01452582
   8.28612680  3.56114872  0.01463668
   7.05356221  4.27268994  0.01457444
   7.05362213  5.69588251  0.01552751
   5.82112285  6.40754723  0.01489279
   5.82101669  7.83073350  0.01578780
   7.05362858  8.54227219  0.01630582
  -5.27148792  9.96548729  0.01495127
  -2.80637951  8.54234295  0.01558431
  -2.80626749  9.96552896  0.01362126
  -0.34148805  8.54239058  0.01378498
  -0.34137657  9.96550309  0.01353576
   2.12342586  8.54231992  0.01336337
   2.12354296  9.96544135  0.01469111
   4.58845581  8.54235337  0.01505154
   4.58852904  9.96549848  0.01517076
   3.04929830  2.68153618  7.49153538
   4.02070129  2.02068374  7.55595724
   2.07766701  3.34267235  7.43208051
 


--------------------------------------------------------------------------------------------------------


 k-point   1 :   0.0000 0.0000 0.0000  plane waves:  236157

 maximum and minimum number of plane-waves per node :     59046    59034

 maximum number of plane-waves:    236157
 maximum index in each direction: 
   IXMAX=   31   IYMAX=   31   IZMAX=   64
   IXMIN=  -31   IYMIN=  -31   IZMIN=  -64


 parallel 3D FFT for wavefunctions:
    minimum data exchange during FFTs selected (reduces bandwidth)
 parallel 3D FFT for charge:
    minimum data exchange during FFTs selected (reduces bandwidth)


 total amount of memory used by VASP MPI-rank0   215378. kBytes
=======================================================================

   base      :      30000. kBytes
   nonl-proj :      57634. kBytes
   fftplans  :      45914. kBytes
   grid      :      67588. kBytes
   one-center:         43. kBytes
   wavefun   :      14199. kBytes
 
     INWAV:  cpu time    0.0000: real time    0.0000
 Broyden mixing: mesh for mixing (old mesh)
   NGX = 63   NGY = 63   NGZ =129
  (NGX  =256   NGY  =256   NGZ  =540)
  gives a total of 512001 points

 initial charge density was supplied:
 charge density of overlapping atoms calculated
 number of electron     216.0000000 magnetization 
 keeping initial charge density in first step


--------------------------------------------------------------------------------------------------------


 Maximum index for augmentation-charges          471 (set IRDMAX)


--------------------------------------------------------------------------------------------------------


 First call to EWALD:  gamma=   0.119
 Maximum number of real-space cells 4x 4x 2
 Maximum number of reciprocal cells 2x 2x 4

    FEWALD:  cpu time    0.0030: real time    0.0031


--------------------------------------- Iteration      1(   1)  ---------------------------------------


    POTLOK:  cpu time    0.3912: real time    0.3952
    SETDIJ:  cpu time    0.0047: real time    0.0048
    TRIAL :  cpu time    5.5984: real time    5.6680
    CORREC:  cpu time    0.0006: real time    0.0008
    --------------------------------------------
      LOOP:  cpu time    5.9981: real time    6.1177

 eigenvalue-minimisations  :   280
 total energy-change (2. order) : 0.2769576E+04  (-0.1022575E+05)
 number of electron     216.0000000 magnetization 
 augmentation part      216.0000000 magnetization 

 Free energy of the ion-electron system (eV)
  ---------------------------------------------------
  alpha Z        PSCENC =        47.94900195
  Ewald energy   TEWEN  =     42045.44139955
  -Hartree energ DENC   =    -48114.65086350
  -exchange      EXHF   =         0.00000000
  -V(xc)+E(xc)   XCENC  =       420.79772515
  PAW double counting   =      6525.96553977    -6260.36035765
  entropy T*S    EENTRO =        -0.00000163
  eigenvalues    EBANDS =      -265.08968777
  atomic energy  EATOM  =      8369.52358910
  ---------------------------------------------------
  free energy    TOTEN  =      2769.57634497 eV

  energy without entropy =     2769.57634660  energy(sigma->0) =     2769.57634579


--------------------------------------------------------------------------------------------------------




--------------------------------------- Iteration      1(   2)  ---------------------------------------


    TRIAL :  cpu time    8.0909: real time    8.1736
    CORREC:  cpu time    0.0001: real time    0.0001
    --------------------------------------------
      LOOP:  cpu time    8.1683: real time    8.2537

 eigenvalue-minimisations  :   448
 total energy-change (2. order) :-0.2443331E+04  (-0.2280997E+04)
 number of electron     216.0000000 magnetization 
 augmentation part      216.0000000 magnetization 

 Free energy of the ion-electron system (eV)
  ---------------------------------------------------
  alpha Z        PSCENC =        47.94900195
  Ewald energy   TEWEN  =     42045.44139955
  -Hartree energ DENC   =    -48114.65086350
  -exchange      EXHF   =         0.00000000
  -V(xc)+E(xc)   XCENC  =       420.79772515
  PAW double counting   =      6525.96553977    -6260.36035765
  entropy T*S    EENTRO =        -0.00000000
  eigenvalues    EBANDS =     -2708.42076229
  atomic energy  EATOM  =      8369.52358910
  ---------------------------------------------------
  free energy    TOTEN  =       326.24527208 eV

  energy without entropy =      326.24527208  energy(sigma->0) =      326.24527208


--------------------------------------------------------------------------------------------------------




--------------------------------------- Iteration      1(   3)  ---------------------------------------


    TRIAL :  cpu time    7.2568: real time    7.3217
    CORREC:  cpu time    0.0001: real time    0.0001
    --------------------------------------------
      LOOP:  cpu time    7.3017: real time    7.3688

 eigenvalue-minimisations  :   392
 total energy-change (2. order) :-0.7928284E+03  (-0.7843735E+03)
 number of electron     216.0000000 magnetization 
 augmentation part      216.0000000 magnetization 

 Free energy of the ion-electron system (eV)
  ---------------------------------------------------
  alpha Z        PSCENC =        47.94900195
  Ewald energy   TEWEN  =     42045.44139955
  -Hartree energ DENC   =    -48114.65086350
  -exchange      EXHF   =         0.00000000
  -V(xc)+E(xc)   XCENC  =       420.79772515
  PAW double counting   =      6525.96553977    -6260.36035765
  entropy T*S    EENTRO =        -0.00000000
  eigenvalues    EBANDS =     -3501.24920918
  atomic energy  EATOM  =      8369.52358910
  ---------------------------------------------------
  free energy    TOTEN  =      -466.58317481 eV

  energy without entropy =     -466.58317481  energy(sigma->0) =     -466.58317481


--------------------------------------------------------------------------------------------------------




--------------------------------------- Iteration      1(   4)  ---------------------------------------


    TRIAL :  cpu time    5.9951: real time    6.0496
    CORREC:  cpu time    0.0001: real time    0.0001
    --------------------------------------------
      LOOP:  cpu time    6.0385: real time    6.0949

 eigenvalue-minimisations  :   308
 total energy-change (2. order) :-0.4992557E+02  (-0.4962497E+02)
 number of electron     216.0000000 magnetization 
 augmentation part      216.0000000 magnetization 

 Free energy of the ion-electron system (eV)
  ---------------------------------------------------
  alpha Z        PSCENC =        47.94900195
  Ewald energy   TEWEN  =     42045.44139955
  -Hartree energ DENC   =    -48114.65086350
  -exchange      EXHF   =         0.00000000
  -V(xc)+E(xc)   XCENC  =       420.79772515
  PAW double counting   =      6525.96553977    -6260.36035765
  entropy T*S    EENTRO =        -0.00000000
  eigenvalues    EBANDS =     -3551.17478086
  atomic energy  EATOM  =      8369.52358910
  ---------------------------------------------------
  free energy    TOTEN  =      -516.50874649 eV

  energy without entropy =     -516.50874649  energy(sigma->0) =     -516.50874649


--------------------------------------------------------------------------------------------------------




--------------------------------------- Iteration      1(   5)  ---------------------------------------


    TRIAL :  cpu time    8.0964: real time    8.1701
    CORREC:  cpu time    0.0001: real time    0.0001
    CHARGE:  cpu time    0.3147: real time    0.3190
    --------------------------------------------
      LOOP:  cpu time    8.4282: real time    8.5230

 eigenvalue-minimisations  :   448
 total energy-change (2. order) :-0.1533772E+01  (-0.1530869E+01)
 number of electron     216.0000000 magnetization 
 augmentation part       -0.2653672 magnetization 

 Free energy of the ion-electron system (eV)
  ---------------------------------------------------
  alpha Z        PSCENC =        47.94900195
  Ewald energy   TEWEN  =     42045.44139955
  -Hartree energ DENC   =    -48114.65086350
  -exchange      EXHF   =         0.00000000
  -V(xc)+E(xc)   XCENC  =       420.79772515
  PAW double counting   =      6525.96553977    -6260.36035765
  entropy T*S    EENTRO =        -0.00000000
  eigenvalues    EBANDS =     -3552.70855316
  atomic energy  EATOM  =      8369.52358910
  ---------------------------------------------------
  free energy    TOTEN  =      -518.04251878 eV

  energy without entropy =     -518.04251878  energy(sigma->0) =     -518.04251878


--------------------------------------------------------------------------------------------------------




--------------------------------------- Iteration      1(   6)  ---------------------------------------


    POTLOK:  cpu time    0.3762: real time    0.3792
    SETDIJ:  cpu time    0.0026: real time    0.0026
    TRIAL :  cpu time    2.6819: real time    2.7063
    CORREC:  cpu time    1.0642: real time    1.0731
    CHARGE:  cpu time    0.3124: real time    0.3148
    --------------------------------------------
      LOOP:  cpu time    4.4586: real time    4.4999

 eigenvalue-minimisations  :     0
 total energy-change (2. order) : 0.5146327E+02  (-0.1559668E+02)
 number of electron     216.0000000 magnetization 
 augmentation part       -0.3644885 magnetization 

 Free energy of the ion-electron system (eV)
  ---------------------------------------------------
  alpha Z        PSCENC =        47.94900195
  Ewald energy   TEWEN  =     42045.44139955
  -Hartree energ DENC   =    -49555.31611269
  -exchange      EXHF   =         0.00000000
  -V(xc)+E(xc)   XCENC  =       469.06408833
  PAW double counting   =     89539.48107080   -89282.17515662
  entropy T*S    EENTRO =        -0.00000000
  eigenvalues    EBANDS =     -2100.54713197
  atomic energy  EATOM  =      8369.52358910
  ---------------------------------------------------
  free energy    TOTEN  =      -466.57925154 eV

  energy without entropy =     -466.57925154  energy(sigma->0) =     -466.57925154


--------------------------------------------------------------------------------------------------------




--------------------------------------- Iteration      1(   7)  ---------------------------------------


    POTLOK:  cpu time    0.3818: real time    0.3848
    SETDIJ:  cpu time    0.0027: real time    0.0027
    TRIAL :  cpu time    2.6803: real time    2.7048
    CORREC:  cpu time    1.0627: real time    1.0716
    CHARGE:  cpu time    0.3123: real time    0.3151
    --------------------------------------------
      LOOP:  cpu time    4.4621: real time    4.5015

 eigenvalue-minimisations  :     0
 total energy-change (2. order) :-0.1564032E+02  (-0.1824927E+01)
 number of electron     216.0000000 magnetization 
 augmentation part       -0.4124726 magnetization 

 Free energy of the ion-electron system (eV)
  ---------------------------------------------------
  alpha Z        PSCENC =        47.94900195
  Ewald energy   TEWEN  =     42045.44139955
  -Hartree energ DENC   =    -49044.72723819
  -exchange      EXHF   =         0.00000000
  -V(xc)+E(xc)   XCENC  =       451.95245594
  PAW double counting   =    105725.28994070  -105465.14806560
  entropy T*S    EENTRO =        -0.00000000
  eigenvalues    EBANDS =     -2612.50065253
  atomic energy  EATOM  =      8369.52358910
  ---------------------------------------------------
  free energy    TOTEN  =      -482.21956910 eV

  energy without entropy =     -482.21956910  energy(sigma->0) =     -482.21956910


--------------------------------------------------------------------------------------------------------




--------------------------------------- Iteration      1(   8)  ---------------------------------------


    POTLOK:  cpu time    0.3831: real time    0.3859
    SETDIJ:  cpu time    0.0027: real time    0.0027
    TRIAL :  cpu time    2.6759: real time    2.7003
    CORREC:  cpu time    1.0597: real time    1.0690
    CHARGE:  cpu time    0.3126: real time    0.3151
    --------------------------------------------
      LOOP:  cpu time    4.4624: real time    4.5033

 eigenvalue-minimisations  :     0
 total energy-change (2. order) :-0.1823384E+01  (-0.4758531E+00)
 number of electron     216.0000000 magnetization 
 augmentation part       -0.4299219 magnetization 

 Free energy of the ion-electron system (eV)
  ---------------------------------------------------
  alpha Z        PSCENC =        47.94900195
  Ewald energy   TEWEN  =     42045.44139955
  -Hartree energ DENC   =    -49015.18571031
  -exchange      EXHF   =         0.00000000
  -V(xc)+E(xc)   XCENC  =       451.35266433
  PAW double counting   =    110106.41047846  -109845.85240535
  entropy T*S    EENTRO =        -0.00000000
  eigenvalues    EBANDS =     -2643.68197070
  atomic energy  EATOM  =      8369.52358910
  ---------------------------------------------------
  free energy    TOTEN  =      -484.04295297 eV

  energy without entropy =     -484.04295297  energy(sigma->0) =     -484.04295297


--------------------------------------------------------------------------------------------------------




--------------------------------------- Iteration      1(   9)  ---------------------------------------


    POTLOK:  cpu time    0.3780: real time    0.3813
    SETDIJ:  cpu time    0.0029: real time    0.0029
    TRIAL :  cpu time    2.6743: real time    2.6994
    CORREC:  cpu time    1.0612: real time    1.0700
    CHARGE:  cpu time    0.3119: real time    0.3151
    --------------------------------------------
      LOOP:  cpu time    4.4840: real time    4.5290

 eigenvalue-minimisations  :     0
 total energy-change (2. order) :-0.4757895E+00  (-0.1529465E+00)
 number of electron     216.0000000 magnetization 
 augmentation part       -0.4375724 magnetization 

 Free energy of the ion-electron system (eV)
  ---------------------------------------------------
  alpha Z        PSCENC =        47.94900195
  Ewald energy   TEWEN  =     42045.44139955
  -Hartree energ DENC   =    -49032.15233751
  -exchange      EXHF   =         0.00000000
  -V(xc)+E(xc)   XCENC  =       451.55553695
  PAW double counting   =    112910.90325517  -112650.19159222
  entropy T*S    EENTRO =        -0.00000000
  eigenvalues    EBANDS =     -2627.54759542
  atomic energy  EATOM  =      8369.52358910
  ---------------------------------------------------
  free energy    TOTEN  =      -484.51874244 eV

  energy without entropy =     -484.51874244  energy(sigma->0) =     -484.51874244


--------------------------------------------------------------------------------------------------------




--------------------------------------- Iteration      1(  10)  ---------------------------------------


    POTLOK:  cpu time    0.3779: real time    0.3808
    SETDIJ:  cpu time    0.0028: real time    0.0029
    TRIAL :  cpu time    2.6785: real time    2.7038
    CORREC:  cpu time    1.0763: real time    1.0853
    CHARGE:  cpu time    0.3128: real time    0.3152
    --------------------------------------------
      LOOP:  cpu time    4.5106: real time    4.5648

 eigenvalue-minimisations  :     0
 total energy-change (2. order) :-0.1527580E+00  (-0.6125514E-01)
 number of electron     216.0000000 magnetization 
 augmentation part       -0.4381566 magnetization 

 Free energy of the ion-electron system (eV)
  ---------------------------------------------------
  alpha Z        PSCENC =        47.94900195
  Ewald energy   TEWEN  =     42045.44139955
  -Hartree energ DENC   =    -49033.75232870
  -exchange      EXHF   =         0.00000000
  -V(xc)+E(xc)   XCENC  =       451.48693885
  PAW double counting   =    113412.10798121  -113151.31120023
  entropy T*S    EENTRO =        -0.00000000
  eigenvalues    EBANDS =     -2626.11688213
  atomic energy  EATOM  =      8369.52358910
  ---------------------------------------------------
  free energy    TOTEN  =      -484.67150040 eV

  energy without entropy =     -484.67150040  energy(sigma->0) =     -484.67150040


--------------------------------------------------------------------------------------------------------




--------------------------------------- Iteration      1(  11)  ---------------------------------------


    POTLOK:  cpu time    0.3828: real time    0.3853
    SETDIJ:  cpu time    0.0027: real time    0.0027
    TRIAL :  cpu time    2.6788: real time    2.7028
    CORREC:  cpu time    1.0598: real time    1.0683
    CHARGE:  cpu time    0.3121: real time    0.3145
    --------------------------------------------
      LOOP:  cpu time    4.4969: real time    4.5366

 eigenvalue-minimisations  :     0
 total energy-change (2. order) :-0.6111958E-01  (-0.2478127E-01)
 number of electron     216.0000000 magnetization 
 augmentation part       -0.4375899 magnetization 

 Free energy of the ion-electron system (eV)
  ---------------------------------------------------
  alpha Z        PSCENC =        47.94900195
  Ewald energy   TEWEN  =     42045.44139955
  -Hartree energ DENC   =    -49029.65279929
  -exchange      EXHF   =         0.00000000
  -V(xc)+E(xc)   XCENC  =       451.42830866
  PAW double counting   =    112946.30879795  -112685.51090356
  entropy T*S    EENTRO =        -0.00000000
  eigenvalues    EBANDS =     -2630.22001434
  atomic energy  EATOM  =      8369.52358910
  ---------------------------------------------------
  free energy    TOTEN  =      -484.73261999 eV

  energy without entropy =     -484.73261999  energy(sigma->0) =     -484.73261999


--------------------------------------------------------------------------------------------------------




--------------------------------------- Iteration      1(  12)  ---------------------------------------


    POTLOK:  cpu time    0.3795: real time    0.3821
    SETDIJ:  cpu time    0.0102: real time    0.0103
    TRIAL :  cpu time    2.6735: real time    2.7039
    CORREC:  cpu time    1.0597: real time    1.0687
    CHARGE:  cpu time    0.3128: real time    0.3152
    --------------------------------------------
      LOOP:  cpu time    4.4825: real time    4.5491

 eigenvalue-minimisations  :     0
 total energy-change (2. order) :-0.2468592E-01  (-0.8508484E-02)
 number of electron     216.0000000 magnetization 
 augmentation part       -0.4376284 magnetization 

 Free energy of the ion-electron system (eV)
  ---------------------------------------------------
  alpha Z        PSCENC =        47.94900195
  Ewald energy   TEWEN  =     42045.44139955
  -Hartree energ DENC   =    -49027.74826289
  -exchange      EXHF   =         0.00000000
  -V(xc)+E(xc)   XCENC  =       451.39266626
  PAW double counting   =    112565.39018891  -112304.61427554
  entropy T*S    EENTRO =        -0.00000000
  eigenvalues    EBANDS =     -2632.09161324
  atomic energy  EATOM  =      8369.52358910
  ---------------------------------------------------
  free energy    TOTEN  =      -484.75730590 eV

  energy without entropy =     -484.75730590  energy(sigma->0) =     -484.75730590


--------------------------------------------------------------------------------------------------------




--------------------------------------- Iteration      1(  13)  ---------------------------------------


    POTLOK:  cpu time    0.3806: real time    0.3831
    SETDIJ:  cpu time    0.0028: real time    0.0028
    TRIAL :  cpu time    2.6650: real time    2.7014
    CORREC:  cpu time    1.0570: real time    1.0659
    CHARGE:  cpu time    0.3125: real time    0.3148
    --------------------------------------------
      LOOP:  cpu time    4.4535: real time    4.5067

 eigenvalue-minimisations  :     0
 total energy-change (2. order) :-0.8494412E-02  (-0.2547523E-02)
 number of electron     216.0000000 magnetization 
 augmentation part       -0.4372556 magnetization 

 Free energy of the ion-electron system (eV)
  ---------------------------------------------------
  alpha Z        PSCENC =        47.94900195
  Ewald energy   TEWEN  =     42045.44139955
  -Hartree energ DENC   =    -49027.71919179
  -exchange      EXHF   =         0.00000000
  -V(xc)+E(xc)   XCENC  =       451.38308073
  PAW double counting   =    112447.48648847  -112186.72099044
  entropy T*S    EENTRO =        -0.00000000
  eigenvalues    EBANDS =     -2632.10917788
  atomic energy  EATOM  =      8369.52358910
  ---------------------------------------------------
  free energy    TOTEN  =      -484.76580032 eV

  energy without entropy =     -484.76580032  energy(sigma->0) =     -484.76580032


--------------------------------------------------------------------------------------------------------




--------------------------------------- Iteration      1(  14)  ---------------------------------------


    POTLOK:  cpu time    0.3777: real time    0.3801
    SETDIJ:  cpu time    0.0028: real time    0.0028
    TRIAL :  cpu time    2.6718: real time    2.7061
    CORREC:  cpu time    1.0591: real time    1.0678
    CHARGE:  cpu time    0.3123: real time    0.3151
    --------------------------------------------
      LOOP:  cpu time    4.4590: real time    4.5115

 eigenvalue-minimisations  :     0
 total energy-change (2. order) :-0.2549049E-02  (-0.7488849E-03)
 number of electron     216.0000000 magnetization 
 augmentation part       -0.4370027 magnetization 

 Free energy of the ion-electron system (eV)
  ---------------------------------------------------
  alpha Z        PSCENC =        47.94900195
  Ewald energy   TEWEN  =     42045.44139955
  -Hartree energ DENC   =    -49027.72831581
  -exchange      EXHF   =         0.00000000
  -V(xc)+E(xc)   XCENC  =       451.38145311
  PAW double counting   =    112485.16451109  -112224.40162976
  entropy T*S    EENTRO =        -0.00000000
  eigenvalues    EBANDS =     -2632.09835859
  atomic energy  EATOM  =      8369.52358910
  ---------------------------------------------------
  free energy    TOTEN  =      -484.76834936 eV

  energy without entropy =     -484.76834936  energy(sigma->0) =     -484.76834936


--------------------------------------------------------------------------------------------------------




--------------------------------------- Iteration      1(  15)  ---------------------------------------


    POTLOK:  cpu time    0.3765: real time    0.3790
    SETDIJ:  cpu time    0.0027: real time    0.0027
    TRIAL :  cpu time    2.6772: real time    2.7016
    CORREC:  cpu time    1.0560: real time    1.0650
    CHARGE:  cpu time    0.3116: real time    0.3140
    --------------------------------------------
      LOOP:  cpu time    4.4431: real time    4.4860

 eigenvalue-minimisations  :     0
 total energy-change (2. order) :-0.7509011E-03  (-0.2616269E-03)
 number of electron     216.0000000 magnetization 
 augmentation part       -0.4367276 magnetization 

 Free energy of the ion-electron system (eV)
  ---------------------------------------------------
  alpha Z        PSCENC =        47.94900195
  Ewald energy   TEWEN  =     42045.44139955
  -Hartree energ DENC   =    -49027.41688677
  -exchange      EXHF   =         0.00000000
  -V(xc)+E(xc)   XCENC  =       451.36827737
  PAW double counting   =    112517.99495231  -112257.23035444
  entropy T*S    EENTRO =        -0.00000000
  eigenvalues    EBANDS =     -2632.39907933
  atomic energy  EATOM  =      8369.52358910
  ---------------------------------------------------
  free energy    TOTEN  =      -484.76910027 eV

  energy without entropy =     -484.76910027  energy(sigma->0) =     -484.76910027


--------------------------------------------------------------------------------------------------------




--------------------------------------- Iteration      1(  16)  ---------------------------------------


    POTLOK:  cpu time    0.3760: real time    0.3785
    SETDIJ:  cpu time    0.0027: real time    0.0028
    TRIAL :  cpu time    2.6799: real time    2.7044
    CORREC:  cpu time    1.0559: real time    1.0644
    CHARGE:  cpu time    0.3121: real time    0.3145
    --------------------------------------------
      LOOP:  cpu time    4.4420: real time    4.4957

 eigenvalue-minimisations  :     0
 total energy-change (2. order) :-0.2629555E-03  (-0.1039384E-03)
 number of electron     216.0000000 magnetization 
 augmentation part       -0.4365715 magnetization 

 Free energy of the ion-electron system (eV)
  ---------------------------------------------------
  alpha Z        PSCENC =        47.94900195
  Ewald energy   TEWEN  =     42045.44139955
  -Hartree energ DENC   =    -49027.51278462
  -exchange      EXHF   =         0.00000000
  -V(xc)+E(xc)   XCENC  =       451.37234848
  PAW double counting   =    112495.46197557  -112234.69797787
  entropy T*S    EENTRO =        -0.00000000
  eigenvalues    EBANDS =     -2632.30691537
  atomic energy  EATOM  =      8369.52358910
  ---------------------------------------------------
  free energy    TOTEN  =      -484.76936322 eV

  energy without entropy =     -484.76936322  energy(sigma->0) =     -484.76936322


--------------------------------------------------------------------------------------------------------




--------------------------------------- Iteration      1(  17)  ---------------------------------------


    POTLOK:  cpu time    0.3715: real time    0.3741
    SETDIJ:  cpu time    0.0029: real time    0.0029
    TRIAL :  cpu time    2.6773: real time    2.7023
    CORREC:  cpu time    1.0590: real time    1.0678
    CHARGE:  cpu time    0.3133: real time    0.3156
    --------------------------------------------
      LOOP:  cpu time    4.4931: real time    4.5465

 eigenvalue-minimisations  :     0
 total energy-change (2. order) :-0.1046019E-03  (-0.4066680E-04)
 number of electron     216.0000000 magnetization 
 augmentation part       -0.4365659 magnetization 

 Free energy of the ion-electron system (eV)
  ---------------------------------------------------
  alpha Z        PSCENC =        47.94900195
  Ewald energy   TEWEN  =     42045.44139955
  -Hartree energ DENC   =    -49027.60940560
  -exchange      EXHF   =         0.00000000
  -V(xc)+E(xc)   XCENC  =       451.37537142
  PAW double counting   =    112463.94726148  -112203.18357702
  entropy T*S    EENTRO =        -0.00000000
  eigenvalues    EBANDS =     -2632.21310870
  atomic energy  EATOM  =      8369.52358910
  ---------------------------------------------------
  free energy    TOTEN  =      -484.76946782 eV

  energy without entropy =     -484.76946782  energy(sigma->0) =     -484.76946782


--------------------------------------------------------------------------------------------------------




--------------------------------------- Iteration      1(  18)  ---------------------------------------


    POTLOK:  cpu time    0.3777: real time    0.3804
    SETDIJ:  cpu time    0.0027: real time    0.0027
    TRIAL :  cpu time    2.6758: real time    2.7001
    CORREC:  cpu time    1.0573: real time    1.0666
    CHARGE:  cpu time    0.3121: real time    0.3145
    --------------------------------------------
      LOOP:  cpu time    4.4559: real time    4.5051

 eigenvalue-minimisations  :     0
 total energy-change (2. order) :-0.4081220E-04  (-0.1499349E-04)
 number of electron     216.0000000 magnetization 
 augmentation part       -0.4366250 magnetization 

 Free energy of the ion-electron system (eV)
  ---------------------------------------------------
  alpha Z        PSCENC =        47.94900195
  Ewald energy   TEWEN  =     42045.44139955
  -Hartree energ DENC   =    -49027.60825632
  -exchange      EXHF   =         0.00000000
  -V(xc)+E(xc)   XCENC  =       451.37500404
  PAW double counting   =    112454.01542063  -112193.25139448
  entropy T*S    EENTRO =        -0.00000000
  eigenvalues    EBANDS =     -2632.21427310
  atomic energy  EATOM  =      8369.52358910
  ---------------------------------------------------
  free energy    TOTEN  =      -484.76950864 eV

  energy without entropy =     -484.76950864  energy(sigma->0) =     -484.76950864


--------------------------------------------------------------------------------------------------------




--------------------------------------- Iteration      1(  19)  ---------------------------------------


    POTLOK:  cpu time    0.3769: real time    0.3794
    SETDIJ:  cpu time    0.0028: real time    0.0029
    TRIAL :  cpu time    2.6606: real time    2.7011
    CORREC:  cpu time    1.0486: real time    1.0656
    CHARGE:  cpu time    0.3099: real time    0.3151
    --------------------------------------------
      LOOP:  cpu time    4.4253: real time    4.4938

 eigenvalue-minimisations  :     0
 total energy-change (2. order) :-0.1477172E-04  (-0.5168870E-05)
 number of electron     216.0000000 magnetization 
 augmentation part       -0.4366917 magnetization 

 Free energy of the ion-electron system (eV)
  ---------------------------------------------------
  alpha Z        PSCENC =        47.94900195
  Ewald energy   TEWEN  =     42045.44139955
  -Hartree energ DENC   =    -49027.61861347
  -exchange      EXHF   =         0.00000000
  -V(xc)+E(xc)   XCENC  =       451.37555815
  PAW double counting   =    112458.55881644  -112197.79456043
  entropy T*S    EENTRO =        -0.00000000
  eigenvalues    EBANDS =     -2632.20471470
  atomic energy  EATOM  =      8369.52358910
  ---------------------------------------------------
  free energy    TOTEN  =      -484.76952341 eV

  energy without entropy =     -484.76952341  energy(sigma->0) =     -484.76952341


--------------------------------------------------------------------------------------------------------




--------------------------------------- Iteration      1(  20)  ---------------------------------------


    POTLOK:  cpu time    0.3765: real time    0.3790
    SETDIJ:  cpu time    0.0029: real time    0.0029
    TRIAL :  cpu time    2.6777: real time    2.7024
    CORREC:  cpu time    1.0556: real time    1.0644
    CHARGE:  cpu time    0.3119: real time    0.3143
    --------------------------------------------
      LOOP:  cpu time    4.4376: real time    4.4790

 eigenvalue-minimisations  :     0
 total energy-change (2. order) :-0.4923655E-05  (-0.1792114E-05)
 number of electron     216.0000000 magnetization 
 augmentation part       -0.4367092 magnetization 

 Free energy of the ion-electron system (eV)
  ---------------------------------------------------
  alpha Z        PSCENC =        47.94900195
  Ewald energy   TEWEN  =     42045.44139955
  -Hartree energ DENC   =    -49027.61931049
  -exchange      EXHF   =         0.00000000
  -V(xc)+E(xc)   XCENC  =       451.37525148
  PAW double counting   =    112464.37314948  -112203.60863620
  entropy T*S    EENTRO =        -0.00000000
  eigenvalues    EBANDS =     -2632.20397320
  atomic energy  EATOM  =      8369.52358910
  ---------------------------------------------------
  free energy    TOTEN  =      -484.76952833 eV

  energy without entropy =     -484.76952833  energy(sigma->0) =     -484.76952833


--------------------------------------------------------------------------------------------------------




--------------------------------------- Iteration      1(  21)  ---------------------------------------


    POTLOK:  cpu time    0.3728: real time    0.3787
    SETDIJ:  cpu time    0.0029: real time    0.0029
    TRIAL :  cpu time    2.6576: real time    2.7040
    CORREC:  cpu time    1.0576: real time    1.0663
    CHARGE:  cpu time    0.3122: real time    0.3148
    --------------------------------------------
      LOOP:  cpu time    4.4210: real time    4.4951

 eigenvalue-minimisations  :     0
 total energy-change (2. order) :-0.1681328E-05  (-0.6985160E-06)
 number of electron     216.0000000 magnetization 
 augmentation part       -0.4367147 magnetization 

 Free energy of the ion-electron system (eV)
  ---------------------------------------------------
  alpha Z        PSCENC =        47.94900195
  Ewald energy   TEWEN  =     42045.44139955
  -Hartree energ DENC   =    -49027.62978004
  -exchange      EXHF   =         0.00000000
  -V(xc)+E(xc)   XCENC  =       451.37572789
  PAW double counting   =    112466.48272605  -112205.71827139
  entropy T*S    EENTRO =        -0.00000000
  eigenvalues    EBANDS =     -2632.19392312
  atomic energy  EATOM  =      8369.52358910
  ---------------------------------------------------
  free energy    TOTEN  =      -484.76953001 eV

  energy without entropy =     -484.76953001  energy(sigma->0) =     -484.76953001


--------------------------------------------------------------------------------------------------------




--------------------------------------- Iteration      1(  22)  ---------------------------------------


    POTLOK:  cpu time    0.3712: real time    0.3737
    SETDIJ:  cpu time    0.0029: real time    0.0029
    TRIAL :  cpu time    2.6804: real time    2.7049
    CORREC:  cpu time    1.0572: real time    1.0662
    EDDIAG:  cpu time    0.5935: real time    0.5999
    CHARGE:  cpu time    0.3131: real time    0.3155
    --------------------------------------------
      LOOP:  cpu time    5.1047: real time    5.1574

 eigenvalue-minimisations  :     0
 total energy-change (2. order) :-0.6737973E-06  (-0.3366595E-06)
 number of electron     216.0000000 magnetization 
 augmentation part       -0.4367107 magnetization 

 Free energy of the ion-electron system (eV)
  ---------------------------------------------------
  alpha Z        PSCENC =        47.94900195
  Ewald energy   TEWEN  =     42045.44139955
  -Hartree energ DENC   =    -49027.62426253
  -exchange      EXHF   =         0.00000000
  -V(xc)+E(xc)   XCENC  =       451.37544865
  PAW double counting   =    112466.26392988  -112205.49946979
  entropy T*S    EENTRO =        -0.00000000
  eigenvalues    EBANDS =     -2632.19916749
  atomic energy  EATOM  =      8369.52358910
  ---------------------------------------------------
  free energy    TOTEN  =      -484.76953069 eV

  energy without entropy =     -484.76953069  energy(sigma->0) =     -484.76953069


--------------------------------------------------------------------------------------------------------


  average scaling for gradient   0.9336


 average (electrostatic) potential at core
  the test charge radii are     0.5770  0.5955
  (the norm of the test charge is              1.0000)
       1 -85.6356       2 -85.6351       3 -85.6357       4 -85.6364       5 -85.6344
       6 -85.6343       7 -85.6356       8 -85.6344       9 -85.6347      10 -85.6351
      11 -85.6343      12 -85.6343      13 -85.6350      14 -85.6347      15 -85.6342
      16 -85.6344      17 -85.6348      18 -85.6352      19 -85.6355      20 -85.6349
      21 -85.6341      22 -85.6340      23 -85.6367      24 -85.6367      25 -85.6341
      26 -85.6343      27 -85.6348      28 -85.6358      29 -85.6341      30 -85.6341
      31 -85.6360      32 -85.6354      33 -85.6345      34 -85.6344      35 -85.6344
      36 -85.6345      37 -85.6351      38 -85.6353      39 -85.6352      40 -85.6352
      41 -85.6352      42 -85.6353      43 -85.6349      44 -85.6355      45 -85.6342
      46 -85.6343      47 -85.6343      48 -85.6342      49 -85.6353      50 -85.6349
      51 -89.5730      52-120.3525      53-120.3516
 
 
 
 E-fermi :  -4.2646     XC(G=0):  -1.9455     alpha+bet : -1.6890

 Fermi energy:        -4.2645771098

 k-point     1 :       0.0000    0.0000    0.0000
  band No.  band energies     occupation 
      1     -27.6741      2.00000
      2     -26.6689      2.00000
      3     -22.3848      2.00000
      4     -21.4455      2.00000
      5     -21.4442      2.00000
      6     -21.4439      2.00000
      7     -21.4437      2.00000
      8     -21.4436      2.00000
      9     -21.4431      2.00000
     10     -19.6004      2.00000
     11     -19.6004      2.00000
     12     -19.6001      2.00000
     13     -19.5994      2.00000
     14     -19.5990      2.00000
     15     -19.5988      2.00000
     16     -18.7025      2.00000
     17     -18.7023      2.00000
     18     -18.7019      2.00000
     19     -18.7017      2.00000
     20     -18.7010      2.00000
     21     -18.7007      2.00000
     22     -16.5345      2.00000
     23     -16.5342      2.00000
     24     -16.5334      2.00000
     25     -16.5332      2.00000
     26     -16.5328      2.00000
     27     -16.5327      2.00000
     28     -15.5486      2.00000
     29     -15.5486      2.00000
     30     -15.5476      2.00000
     31     -15.5475      2.00000
     32     -15.5471      2.00000
     33     -15.5470      2.00000
     34     -14.1950      2.00000
     35     -14.1949      2.00000
     36     -14.1943      2.00000
     37     -14.1942      2.00000
     38     -14.1941      2.00000
     39     -14.1938      2.00000
     40     -12.4774      2.00000
     41     -11.8061      2.00000
     42     -11.8058      2.00000
     43     -11.8054      2.00000
     44     -11.8053      2.00000
     45     -11.8042      2.00000
     46     -11.8039      2.00000
     47     -11.7091      2.00000
     48     -11.7090      2.00000
     49     -11.7083      2.00000
     50     -11.7083      2.00000
     51     -11.7081      2.00000
     52     -11.7080      2.00000
     53     -11.2879      2.00000
     54     -11.2233      2.00000
     55     -11.2232      2.00000
     56     -10.4766      2.00000
     57     -10.3320      2.00000
     58     -10.3319      2.00000
     59     -10.3303      2.00000
     60     -10.3300      2.00000
     61     -10.3298      2.00000
     62     -10.3297      2.00000
     63      -9.3608      2.00000
     64      -9.3599      2.00000
     65      -9.3597      2.00000
     66      -9.3591      2.00000
     67      -9.3590      2.00000
     68      -9.3590      2.00000
     69      -9.0522      2.00000
     70      -9.0512      2.00000
     71      -9.0508      2.00000
     72      -9.0508      2.00000
     73      -9.0504      2.00000
     74      -9.0502      2.00000
     75      -9.0035      2.00000
     76      -9.0032      2.00000
     77      -9.0025      2.00000
     78      -9.0024      2.00000
     79      -9.0022      2.00000
     80      -9.0014      2.00000
     81      -7.6767      2.00000
     82      -7.6766      2.00000
     83      -7.3960      2.00000
     84      -7.3943      2.00000
     85      -7.3941      2.00000
     86      -7.3938      2.00000
     87      -7.3928      2.00000
     88      -7.3928      2.00000
     89      -7.2310      2.00000
     90      -7.2306      2.00000
     91      -7.2305      2.00000
     92      -7.2301      2.00000
     93      -7.2298      2.00000
     94      -7.2295      2.00000
     95      -6.3343      2.00000
     96      -6.3343      2.00000
     97      -6.3339      2.00000
     98      -6.3337      2.00000
     99      -6.3332      2.00000
    100      -6.3330      2.00000
    101      -5.9064      2.00000
    102      -5.9042      2.00000
    103      -4.3514      2.00000
    104      -4.3510      2.00000
    105      -4.3505      2.00000
    106      -4.3504      2.00000
    107      -4.3499      2.00000
    108      -4.3497      2.00000
    109      -1.5484      0.00000
    110      -1.5482      0.00000
    111      -1.5479      0.00000
    112      -1.5477      0.00000
    113      -1.5471      0.00000
    114      -1.5468      0.00000
    115       0.2584      0.00000
    116       0.3158      0.00000
    117       0.3161      0.00000
    118       0.3165      0.00000
    119       0.3166      0.00000
    120       0.3168      0.00000
    121       0.3182      0.00000
    122       0.4973      0.00000
    123       0.8206      0.00000
    124       1.0932      0.00000
    125       1.2143      0.00000
    126       1.5884      0.00000
    127       1.6478      0.00000
    128       1.6536      0.00000
    129       1.6770      0.00000
    130       1.6803      0.00000
    131       1.6837      0.00000
    132       1.7373      0.00000
    133       2.0575      0.00000
    134       2.0603      0.00000
    135       2.0660      0.00000
    136       2.0662      0.00000
    137       2.0726      0.00000
    138       2.7714      0.00000
    139       2.8193      0.00000
    140       2.9597      0.00000


--------------------------------------------------------------------------------------------------------


 soft charge-density along one line, spin component           1
         0         1         2         3         4         5         6         7         8         9
 total charge-density along one line
 
 pseudopotential strength for first ion, spin component:           1
 12.703  21.376   0.000   0.000   0.000   0.000   0.000   0.000
 21.376  35.970   0.000   0.000   0.000   0.000   0.000   0.000
  0.000   0.000  -3.169  -0.000   0.000  -5.681  -0.000   0.000
  0.000   0.000  -0.000  -3.171  -0.000  -0.000  -5.683  -0.000
  0.000   0.000   0.000  -0.000  -3.169   0.000  -0.000  -5.681
  0.000   0.000  -5.681  -0.000   0.000 -10.161  -0.000   0.000
  0.000   0.000  -0.000  -5.683  -0.000  -0.000 -10.163  -0.000
  0.000   0.000   0.000  -0.000  -5.681   0.000  -0.000 -10.161
 total augmentation occupancy for first ion, spin component:           1
  7.880  -2.765  -0.000  -0.002  -0.000   0.000   0.001   0.000
 -2.765   1.007   0.000   0.001   0.000  -0.000  -0.000  -0.000
 -0.000   0.000   7.264  -0.008   0.000  -2.462   0.003  -0.000
 -0.002   0.001  -0.008   3.235  -0.000   0.003  -0.862   0.000
 -0.000   0.000   0.000  -0.000   7.263  -0.000   0.000  -2.462
  0.000  -0.000  -2.462   0.003  -0.000   0.849  -0.001   0.000
  0.001  -0.000   0.003  -0.862   0.000  -0.001   0.236  -0.000
  0.000  -0.000  -0.000   0.000  -2.462   0.000  -0.000   0.849


------------------------ aborting loop because EDIFF is reached ----------------------------------------


    FORLOC:  cpu time    0.0669: real time    0.0675
    FORNL :  cpu time    1.0799: real time    1.0931
    FORCOR:  cpu time    0.3923: real time    0.3949
    OFIELD:  cpu time    0.0018: real time    0.0019

 VOLUME and BASIS-vectors are now :
 -----------------------------------------------------------------------------
  energy-cutoff  :     1000.00
  volume of cell :     3288.85
      direct lattice vectors                 reciprocal lattice vectors
    12.325000000  0.000000000  0.000000000     0.081135903  0.046843835  0.000000000
    -6.162500000 10.673763102  0.000000000     0.000000000  0.093687670  0.000000000
     0.000000000  0.000000000 25.000000000     0.000000000  0.000000000  0.040000000

  length of vectors
    12.325000000 12.325000000 25.000000000     0.093687670  0.093687670  0.040000000


 FORCES acting on ions:
    Electron-Ion                     Ewald-Force                    Non-Local-Force
 -----------------------------------------------------------------------------------------------
   0.108E+01 0.949E+00 0.167E+02   -.108E+01 -.950E+00 -.167E+02   0.474E-02 -.659E-03 0.608E-02
   0.150E+01 0.782E+00 0.180E+02   -.150E+01 -.779E+00 -.180E+02   0.340E-02 -.320E-02 -.564E-02
   0.603E+00 0.165E+01 0.183E+02   -.605E+00 -.165E+01 -.183E+02   -.102E-03 0.119E-01 -.929E-03
   0.759E+00 0.111E+01 0.211E+02   -.758E+00 -.110E+01 -.210E+02   0.118E-01 0.856E-03 -.146E-01
   0.118E+01 0.299E+00 0.171E+02   -.118E+01 -.299E+00 -.171E+02   -.348E-03 -.550E-02 0.337E-02
   0.121E+01 -.263E+00 0.173E+02   -.121E+01 0.265E+00 -.173E+02   -.632E-02 0.337E-02 -.276E-02
   0.146E+01 0.592E+00 0.209E+02   -.147E+01 -.592E+00 -.209E+02   0.121E-01 -.192E-01 -.623E-02
   0.147E+01 -.490E+00 0.221E+02   -.147E+01 0.493E+00 -.220E+02   -.673E-02 -.555E-02 -.548E-02
   -.730E+00 0.156E+01 0.187E+02   0.734E+00 -.156E+01 -.187E+02   -.235E-03 -.127E-01 -.485E-02
   -.980E+00 0.844E+00 0.212E+02   0.982E+00 -.845E+00 -.212E+02   -.261E-01 0.150E-01 0.249E-02
   0.313E+00 -.324E+00 0.162E+02   -.310E+00 0.324E+00 -.162E+02   0.370E-02 -.276E-02 0.103E-03
   0.298E+00 -.249E+00 0.159E+02   -.298E+00 0.249E+00 -.159E+02   -.684E-02 0.337E-02 0.608E-02
   0.483E+00 -.117E+01 0.231E+02   -.484E+00 0.118E+01 -.230E+02   0.268E-01 -.783E-02 -.204E-02
   0.301E+00 -.172E+01 0.198E+02   -.305E+00 0.173E+01 -.198E+02   0.394E-02 0.651E-02 -.158E-01
   -.110E+01 0.661E+00 0.167E+02   0.110E+01 -.663E+00 -.167E+02   0.734E-02 -.389E-02 0.735E-02
   -.141E+01 0.403E+00 0.170E+02   0.141E+01 -.403E+00 -.170E+02   -.184E-02 0.533E-02 -.485E-02
   -.200E+00 -.813E-01 0.154E+02   0.204E+00 0.794E-01 -.154E+02   -.340E-03 0.331E-03 0.198E-02
   0.904E-01 0.689E+00 0.156E+02   -.897E-01 -.689E+00 -.156E+02   -.292E-02 0.160E-02 0.919E-02
   -.285E+00 -.166E+01 0.181E+02   0.284E+00 0.166E+01 -.181E+02   0.614E-02 -.179E-02 0.372E-03
   -.167E+00 -.101E+01 0.164E+02   0.164E+00 0.101E+01 -.164E+02   0.718E-05 -.107E-02 -.671E-03
   0.154E+01 -.664E+00 0.190E+02   -.154E+01 0.665E+00 -.190E+02   -.149E-02 -.241E-02 -.163E-01
   0.109E+01 -.880E+00 0.178E+02   -.109E+01 0.881E+00 -.178E+02   -.679E-02 0.525E-02 -.202E-02
   -.267E+00 0.473E+00 0.232E+02   0.263E+00 -.472E+00 -.232E+02   -.103E-01 0.105E-01 0.110E-02
   -.373E+00 -.746E+00 0.231E+02   0.375E+00 0.744E+00 -.231E+02   0.121E-01 -.149E-01 -.103E-01
   0.595E+00 -.220E+00 0.163E+02   -.593E+00 0.218E+00 -.163E+02   0.360E-02 -.260E-02 -.309E-02
   0.166E+00 0.509E+00 0.161E+02   -.166E+00 -.509E+00 -.161E+02   -.523E-02 0.348E-02 0.563E-02
   -.170E+01 0.191E+00 0.192E+02   0.170E+01 -.194E+00 -.192E+02   0.116E-01 0.792E-02 -.219E-02
   -.160E+01 -.648E+00 0.185E+02   0.160E+01 0.648E+00 -.185E+02   -.876E-02 0.908E-02 0.714E-03
   0.608E+00 -.125E+01 0.180E+02   -.608E+00 0.125E+01 -.180E+02   0.451E-02 0.213E-02 -.662E-02
   0.549E-01 -.552E+00 0.166E+02   -.572E-01 0.553E+00 -.166E+02   -.473E-02 0.236E-02 -.212E-02
   -.114E+01 -.115E+01 0.198E+02   0.114E+01 0.115E+01 -.198E+02   -.119E-01 -.813E-02 -.127E-01
   -.834E+00 -.157E+01 0.180E+02   0.835E+00 0.157E+01 -.180E+02   0.622E-03 -.111E-02 0.198E-02
   0.694E-01 0.336E+00 0.158E+02   -.695E-01 -.336E+00 -.158E+02   0.508E-02 -.467E-02 0.716E-02
   0.198E+00 0.305E+00 0.160E+02   -.201E+00 -.304E+00 -.160E+02   -.227E-02 0.462E-02 -.101E-02
   -.745E+00 0.137E+00 0.163E+02   0.747E+00 -.138E+00 -.163E+02   0.407E-02 -.245E-02 0.606E-02
   -.659E+00 -.302E+00 0.162E+02   0.659E+00 0.302E+00 -.162E+02   -.405E-02 0.236E-02 0.387E-02
   -.125E+01 -.672E+00 0.166E+02   0.125E+01 0.670E+00 -.166E+02   -.105E-02 0.100E-02 0.333E-02
   -.829E+00 -.664E+00 0.160E+02   0.831E+00 0.665E+00 -.160E+02   -.393E-02 0.125E-02 0.896E-02
   -.755E+00 -.956E+00 0.163E+02   0.755E+00 0.957E+00 -.163E+02   -.291E-02 0.159E-03 0.463E-02
   -.113E+00 -.265E+00 0.157E+02   0.114E+00 0.265E+00 -.157E+02   0.187E-02 0.580E-03 0.723E-02
   0.286E+00 0.716E+00 0.157E+02   -.287E+00 -.716E+00 -.158E+02   -.394E-02 0.169E-02 0.678E-02
   0.861E+00 0.131E+01 0.167E+02   -.861E+00 -.131E+01 -.167E+02   -.660E-03 -.803E-03 0.750E-02
   0.951E-01 0.118E+01 0.161E+02   -.917E-01 -.118E+01 -.161E+02   -.243E-03 0.804E-03 0.216E-02
   -.800E-02 0.171E+01 0.176E+02   0.908E-02 -.172E+01 -.177E+02   -.806E-02 0.187E-02 0.511E-02
   -.227E+00 0.421E+00 0.164E+02   0.229E+00 -.423E+00 -.164E+02   0.406E-02 -.294E-02 0.153E-02
   -.822E+00 0.103E+01 0.170E+02   0.823E+00 -.103E+01 -.170E+02   -.620E-02 0.367E-03 -.131E-02
   -.231E+00 -.522E+00 0.162E+02   0.230E+00 0.522E+00 -.163E+02   0.626E-02 -.134E-02 0.599E-02
   -.470E+00 0.165E+00 0.158E+02   0.468E+00 -.164E+00 -.158E+02   -.361E-02 0.323E-02 -.288E-02
   0.457E-01 -.319E+00 0.158E+02   -.462E-01 0.320E+00 -.158E+02   0.422E-02 -.314E-02 0.569E-02
   0.510E+00 0.364E+00 0.158E+02   -.512E+00 -.362E+00 -.158E+02   -.213E-03 0.174E-02 0.325E-02
   0.359E-03 0.243E-01 -.220E+03   -.450E-02 -.206E-01 0.220E+03   -.289E-02 0.188E-02 -.290E-02
   -.229E+03 0.156E+03 -.343E+03   0.279E+03 -.190E+03 0.346E+03   -.511E+02 0.348E+02 -.343E+01
   0.229E+03 -.156E+03 -.321E+03   -.279E+03 0.190E+03 0.318E+03   0.511E+02 -.348E+02 0.309E+01
 -----------------------------------------------------------------------------------------------
   -.695E-02 0.136E-01 0.344E+00   0.171E-12 -.114E-12 -.568E-13   0.713E-02 -.139E-01 -.343E+00
 
 
 POSITION                                       TOTAL-FORCE (eV/Angst)
 -----------------------------------------------------------------------------------
     11.98348      0.00342      0.01417         0.003171     -0.001635     -0.001030
     -0.34154      1.42665      0.01100        -0.000715     -0.000082     -0.003451
      2.12355      0.00315      0.01249        -0.001726      0.010806     -0.006442
      2.12326      1.42653      0.00641         0.013384      0.001275     -0.008497
     10.75099      2.13819      0.01213         0.000356     -0.005681     -0.000096
     -1.57382      3.56123      0.01110        -0.008953      0.004773     -0.001447
      0.89078      2.13854      0.00548         0.009596     -0.019170      0.002212
      0.89099      3.56147      0.00181        -0.011939     -0.002423      0.011524
      4.58864      0.00346      0.01135         0.003687     -0.015939     -0.003575
      4.58894      1.42623      0.00646        -0.023688      0.013343      0.013637
      9.51854      4.27281      0.01369         0.006589     -0.003087      0.000183
     -2.80632      5.69591      0.01434        -0.006514      0.003385      0.000750
      2.12300      4.27302      0.00000         0.025161     -0.005044      0.020063
      2.12335      5.69594      0.00581        -0.000580      0.009233     -0.002767
      7.05344      0.00333      0.01399         0.009357     -0.005283     -0.000385
      7.05353      1.42635      0.01368        -0.001628      0.004947     -0.003836
      8.28610      6.40752      0.01601         0.002924     -0.001485     -0.000820
     -4.03885      7.83070      0.01636        -0.002200      0.000857     -0.000087
      3.35586      6.40753      0.01007         0.005511      0.000541     -0.001287
      3.35599      7.83072      0.01320        -0.003207      0.000074     -0.000677
     -0.34146      4.27290      0.00723        -0.001909     -0.001446     -0.004571
     -0.34138      5.69591      0.00946        -0.009197      0.006514     -0.001085
      3.35624      2.13791      0.00222        -0.013640      0.012030      0.015627
      3.35573      3.56155      0.00139         0.013626     -0.016004      0.008142
     -1.57395      6.40758      0.01311         0.005394     -0.003976     -0.000599
     -1.57385      7.83068      0.01438        -0.004849      0.003783      0.000037
      5.82093      2.13784      0.01033         0.016125      0.005212     -0.002994
      5.82114      3.56097      0.01156        -0.006375      0.008588     -0.003712
      0.89092      6.40755      0.00907         0.004559      0.002318     -0.002287
      0.89106      7.83068      0.01235        -0.006833      0.003892      0.000341
      4.58871      4.27293      0.00850        -0.012964     -0.006548     -0.010905
      4.58852      5.69606      0.01149         0.001952     -0.001086     -0.004004
      9.51845      0.00337      0.01490         0.004766     -0.004665      0.000169
      9.51855      1.42644      0.01438        -0.005124      0.005453     -0.000337
      8.28593      2.13803      0.01453         0.006728     -0.003405      0.000609
      8.28613      3.56115      0.01464        -0.004337      0.002213     -0.000043
      7.05356      4.27269      0.01457         0.002684     -0.001072     -0.000667
      7.05362      5.69588      0.01553        -0.002462      0.001562     -0.000072
      5.82112      6.40755      0.01489        -0.002939      0.001579     -0.000086
      5.82102      7.83073      0.01579         0.002717      0.000306     -0.000314
      7.05363      8.54227      0.01631        -0.004671      0.001237      0.001057
     -5.27149      9.96549      0.01495         0.000111     -0.002022     -0.002163
     -2.80638      8.54234      0.01558         0.003174     -0.001414     -0.001223
     -2.80627      9.96553      0.01362        -0.006799     -0.000128     -0.003831
     -0.34149      8.54239      0.01378         0.005801     -0.004904      0.000222
     -0.34138      9.96550      0.01354        -0.005876     -0.000065     -0.001291
      2.12343      8.54232      0.01336         0.005860     -0.001540      0.000759
      2.12354      9.96544      0.01469        -0.005185      0.003824     -0.001879
      4.58846      8.54235      0.01505         0.003670     -0.002809      0.000984
      4.58853      9.96550      0.01517        -0.002814      0.003397      0.000135
      3.04930      2.68154      7.49154        -0.006878      0.005567      0.034291
      4.02070      2.02068      7.55596        -0.527197      0.358210     -0.050861
      2.07767      3.34267      7.43208         0.534294     -0.364003      0.016575
 -----------------------------------------------------------------------------------
    total drift:                                0.000173     -0.000300      0.000590


--------------------------------------------------------------------------------------------------------



  FREE ENERGIE OF THE ION-ELECTRON SYSTEM (eV)
  ---------------------------------------------------
  free  energy   TOTEN  =      -484.76953069 eV

  energy  without entropy=     -484.76953069  energy(sigma->0) =     -484.76953069
 


--------------------------------------------------------------------------------------------------------


    POTLOK:  cpu time    0.3774: real time    0.3802


--------------------------------------------------------------------------------------------------------


     LOOP+:  cpu time  141.5251: real time  143.2851
    4ORBIT:  cpu time    0.0000: real time    0.0000

 total amount of memory used by VASP MPI-rank0   215378. kBytes
=======================================================================

   base      :      30000. kBytes
   nonl-proj :      57634. kBytes
   fftplans  :      45914. kBytes
   grid      :      67588. kBytes
   one-center:         43. kBytes
   wavefun   :      14199. kBytes
 
  
  
 General timing and accounting informations for this job:
 ========================================================
  
                  Total CPU time used (sec):      185.236
                            User time (sec):      169.691
                          System time (sec):       15.545
                         Elapsed time (sec):      188.555
  
                   Maximum memory used (kb):      586792.
                   Average memory used (kb):          N/A
  
                          Minor page faults:       220475
                          Major page faults:           94
                 Voluntary context switches:         3757
