 vasp.6.2.1 16May21 (build Nov 06 2021 14:46:37) complex                        
  
 executed on             LinuxIFC date 2025.04.16  17:12:28
 running on  112 total cores
 distrk:  each k-point on  112 cores,    1 groups
 distr:  one band on NCORE=   4 cores,   28 groups


--------------------------------------------------------------------------------------------------------


 INCAR:
   ALGO = Conjugate
   NCORE = 4
   ISMEAR = 0
   SIGMA = 0.01
   PREC = Accurate
   EDIFF = 1E-6
   ENCUT = 1000
   ISIF = 0
   LWAVE = .FALSE.
   LCHARGE = .FALSE.
   SYMPREC = 1E-6

 POTCAR:    PAW_PBE C_h 06Feb2004                 
 POTCAR:    PAW_PBE O_h 06Feb2004                 
 -----------------------------------------------------------------------------
|                                                                             |
|           W    W    AA    RRRRR   N    N  II  N    N   GGGG   !!!           |
|           W    W   A  A   R    R  NN   N  II  NN   N  G    G  !!!           |
|           W    W  A    A  R    R  N N  N  II  N N  N  G       !!!           |
|           W WW W  AAAAAA  RRRRR   N  N N  II  N  N N  G  GGG   !            |
|           WW  WW  A    A  R   R   N   NN  II  N   NN  G    G                |
|           W    W  A    A  R    R  N    N  II  N    N   GGGG   !!!           |
|                                                                             |
|     For optimal performance we recommend to set                             |
|       NCORE = 2 up to number-of-cores-per-socket                            |
|     NCORE specifies how many cores store one orbital (NPAR=cpu/NCORE).      |
|     This setting can greatly improve the performance of VASP for DFT.       |
|     The default, NCORE=1 might be grossly inefficient on modern             |
|     multi-core architectures or massively parallel machines. Do your        |
|     own testing! More info at https://www.vasp.at/wiki/index.php/NCORE      |
|     Unfortunately you need to use the default for GW and RPA                |
|     calculations (for HF NCORE is supported but not extensively tested      |
|     yet).                                                                   |
|                                                                             |
 -----------------------------------------------------------------------------

 POTCAR:    PAW_PBE C_h 06Feb2004                 
   VRHFIN =C: s2p2                                                                                  
   LEXCH  = PE                                                                                      
   EATOM  =   147.1560 eV,   10.8157 Ry                                                             
                                                                                                    
   TITEL  = PAW_PBE C_h 06Feb2004                                                                   
   LULTRA =        F    use ultrasoft PP ?                                                          
   IUNSCR =        1    unscreen: 0-lin 1-nonlin 2-no                                               
   RPACOR =    0.800    partial core radius                                                         
   POMASS =   12.011; ZVAL   =    4.000    mass and valenz                                          
   RCORE  =    1.100    outmost cutoff radius                                                       
   RWIGS  =    1.630; RWIGS  =    0.863    wigner-seitz radius (au A)                               
   ENMAX  =  700.000; ENMIN  =  500.000 eV                                                          
   ICORE  =        2    local potential                                                             
   LCOR   =        T    correct aug charges                                                         
   LPAW   =        T    paw PP                                                                      
   EAUG   =  946.768                                                                                
   DEXC   =    0.000                                                                                
   RMAX   =    1.128    core radius for proj-oper                                                   
   RAUG   =    1.300    factor for augmentation sphere                                              
   RDEP   =    1.162    radius for radial grids                                                     
   RDEPT  =    1.088    core radius for aug-charge                                                  
                                                                                                    
   Atomic configuration                                                                             
    4 entries                                                                                       
     n  l   j            E        occ.                                                              
     1  0  0.50      -273.3789   2.0000                                                             
     2  0  0.50       -13.7508   2.0000                                                             
     2  1  0.50        -5.2854   2.0000                                                             
     3  2  1.50        -5.4423   0.0000                                                             
   Description                                                                                      
     l       E           TYP  RCUT    TYP  RCUT                                                     
     0    -13.7508458     23  1.100                                                                 
     0     -8.2022199     23  1.100                                                                 
     1     -5.2854383     23  1.100                                                                 
     1      1.1560700     23  1.100                                                                 
     2     -5.4423304      7  1.100                                                                 
  local pseudopotential read in
  partial core-charges read in
  partial kinetic energy density read in
  atomic valenz-charges read in
  non local Contribution for L=           0  read in
    real space projection operators read in
  non local Contribution for L=           0  read in
    real space projection operators read in
  non local Contribution for L=           1  read in
    real space projection operators read in
  non local Contribution for L=           1  read in
    real space projection operators read in
    PAW grid and wavefunctions read in
 
   number of l-projection  operators is LMAX  =           4
   number of lm-projection operators is LMMAX =           8
 
 POTCAR:    PAW_PBE O_h 06Feb2004                 
   VRHFIN =O: s2p4                                                                                  
   LEXCH  = PE                                                                                      
   EATOM  =   432.3788 eV,   31.7789 Ry                                                             
                                                                                                    
   TITEL  = PAW_PBE O_h 06Feb2004                                                                   
   LULTRA =        F    use ultrasoft PP ?                                                          
   IUNSCR =        1    unscreen: 0-lin 1-nonlin 2-no                                               
   RPACOR =    0.800    partial core radius                                                         
   POMASS =   16.000; ZVAL   =    6.000    mass and valenz                                          
   RCORE  =    1.100    outmost cutoff radius                                                       
   RWIGS  =    1.400; RWIGS  =    0.741    wigner-seitz radius (au A)                               
   ENMAX  =  700.000; ENMIN  =  500.000 eV                                                          
   ICORE  =        2    local potential                                                             
   LCOR   =        T    correct aug charges                                                         
   LPAW   =        T    paw PP                                                                      
   EAUG   =  888.804                                                                                
   DEXC   =    0.000                                                                                
   RMAX   =    1.128    core radius for proj-oper                                                   
   RAUG   =    1.300    factor for augmentation sphere                                              
   RDEP   =    1.125    radius for radial grids                                                     
   RDEPT  =    1.088    core radius for aug-charge                                                  
                                                                                                    
   Atomic configuration                                                                             
    4 entries                                                                                       
     n  l   j            E        occ.                                                              
     1  0  0.50      -514.6923   2.0000                                                             
     2  0  0.50       -23.9615   2.0000                                                             
     2  1  0.50        -9.0305   4.0000                                                             
     3  2  1.50        -9.5241   0.0000                                                             
   Description                                                                                      
     l       E           TYP  RCUT    TYP  RCUT                                                     
     0    -23.9615319     23  1.100                                                                 
     0    -25.3221145     23  1.100                                                                 
     1     -9.0304911     23  1.100                                                                 
     1     -5.4802209     23  1.100                                                                 
     2     -9.5240782      7  1.100                                                                 
  local pseudopotential read in
  partial core-charges read in
  partial kinetic energy density read in
  atomic valenz-charges read in
  non local Contribution for L=           0  read in
    real space projection operators read in
  non local Contribution for L=           0  read in
    real space projection operators read in
  non local Contribution for L=           1  read in
    real space projection operators read in
  non local Contribution for L=           1  read in
    real space projection operators read in
    PAW grid and wavefunctions read in
 
   number of l-projection  operators is LMAX  =           4
   number of lm-projection operators is LMMAX =           8
 
 -----------------------------------------------------------------------------
|                                                                             |
|               ----> ADVICE to this user running VASP <----                  |
|                                                                             |
|     You have a (more or less) 'large supercell' and for larger cells it     |
|     might be more efficient to use real-space projection operators.         |
|     Therefore, try LREAL= Auto in the INCAR file.                           |
|     Mind: For very accurate calculation, you might also keep the            |
|     reciprocal projection scheme (i.e. LREAL=.FALSE.).                      |
|                                                                             |
 -----------------------------------------------------------------------------

  PAW_PBE C_h 06Feb2004                 :
 energy of atom  1       EATOM= -147.1560
 kinetic energy error for atom=    0.0031 (will be added to EATOM!!)
  PAW_PBE O_h 06Feb2004                 :
 energy of atom  2       EATOM= -432.3788
 kinetic energy error for atom=    0.0171 (will be added to EATOM!!)
 
 
 POSCAR:  C  O
  positions in cartesian coordinates
  No initial velocities read in
 exchange correlation table for  LEXCH =        8
   RHO(1)=    0.500       N(1)  =     2000
   RHO(2)=  100.500       N(2)  =     4000
 


--------------------------------------------------------------------------------------------------------


 ion  position               nearest neighbor table
   1  0.972  0.000  0.001-  50 1.42   2 1.42  42 1.42
   2  0.039  0.134  0.000-   5 1.42   7 1.42   1 1.42
   3  0.172  0.000  0.000-  42 1.42  44 1.42   4 1.42
   4  0.239  0.134  0.000-   7 1.42   3 1.42  23 1.42
   5  0.972  0.200  0.000-   6 1.42   2 1.42  34 1.42
   6  0.039  0.334  0.000-   5 1.42  21 1.42  11 1.42
   7  0.172  0.200  0.000-   8 1.42   2 1.42   4 1.42
   8  0.239  0.334  0.000-  13 1.42   7 1.42  21 1.42
   9  0.372  0.000  0.000-  10 1.42  44 1.42  46 1.42
  10  0.439  0.134  0.000-  27 1.42   9 1.42  23 1.42
  11  0.972  0.400  0.001-  12 1.42  36 1.42   6 1.42
  12  0.039  0.534  0.001-  25 1.42  11 1.42  17 1.42
  13  0.372  0.400  0.000-   8 1.42  14 1.42  24 1.42
  14  0.439  0.534  0.000-  13 1.42  29 1.42  19 1.42
  15  0.572  0.000  0.001-  46 1.42  16 1.42  48 1.42
  16  0.639  0.134  0.001-  15 1.42  35 1.42  27 1.42
  17  0.972  0.600  0.001-  38 1.42  18 1.42  12 1.42
  18  0.039  0.734  0.001-  43 1.42  41 1.42  17 1.42
  19  0.572  0.600  0.000-  14 1.42  20 1.42  32 1.42
  20  0.639  0.734  0.001-  49 1.42  19 1.42  47 1.42
  21  0.172  0.400  0.000-  22 1.42   8 1.42   6 1.42
  22  0.239  0.534  0.000-  21 1.42  29 1.42  25 1.42
  23  0.372  0.200  0.000-  10 1.42   4 1.42  24 1.42
  24  0.439  0.334  0.000-  13 1.42  31 1.42  23 1.42
  25  0.172  0.600  0.001-  26 1.42  12 1.42  22 1.42
  26  0.239  0.734  0.001-  25 1.42  45 1.42  43 1.42
  27  0.572  0.200  0.000-  10 1.42  28 1.42  16 1.42
  28  0.639  0.334  0.000-  27 1.42  37 1.42  31 1.42
  29  0.372  0.600  0.000-  22 1.42  14 1.42  30 1.42
  30  0.439  0.734  0.000-  47 1.42  29 1.42  45 1.42
  31  0.572  0.400  0.000-  32 1.42  28 1.42  24 1.42
  32  0.639  0.534  0.000-  31 1.42  39 1.42  19 1.42
  33  0.772  0.000  0.001-  34 1.42  48 1.42  50 1.42
  34  0.839  0.134  0.001-  33 1.42   5 1.42  35 1.42
  35  0.772  0.200  0.001-  36 1.42  16 1.42  34 1.42
  36  0.839  0.334  0.001-  35 1.42  11 1.42  37 1.42
  37  0.772  0.400  0.001-  28 1.42  38 1.42  36 1.42
  38  0.839  0.534  0.001-  17 1.42  37 1.42  39 1.42
  39  0.772  0.600  0.001-  40 1.42  38 1.42  32 1.42
  40  0.839  0.734  0.001-  39 1.42  49 1.42  41 1.42
  41  0.972  0.800  0.001-  18 1.42  42 1.42  40 1.42
  42  0.039  0.934  0.001-   3 1.42  41 1.42   1 1.42
  43  0.172  0.800  0.001-  18 1.42  44 1.42  26 1.42
  44  0.239  0.934  0.001-   9 1.42  43 1.42   3 1.42
  45  0.372  0.800  0.001-  26 1.42  46 1.42  30 1.42
  46  0.439  0.934  0.001-  15 1.42  45 1.42   9 1.42
  47  0.572  0.800  0.001-  30 1.42  48 1.42  20 1.42
  48  0.639  0.934  0.001-  47 1.42  33 1.42  15 1.42
  49  0.772  0.800  0.001-  50 1.42  20 1.42  40 1.42
  50  0.839  0.934  0.001-  49 1.42   1 1.42  33 1.42
  51  0.373  0.251  0.159-  52 1.18  53 1.18
  52  0.421  0.189  0.161-  51 1.18
  53  0.325  0.313  0.156-  51 1.18
 
  LATTYP: Found a hexagonal cell.
 ALAT       =    12.3250000000
 C/A-ratio  =     2.0283975659
  
  Lattice vectors:
  
 A1 = (  12.3250000000,   0.0000000000,   0.0000000000)
 A2 = (  -6.1625000000,  10.6737631016,   0.0000000000)
 A3 = (   0.0000000000,   0.0000000000,  25.0000000000)


Analysis of symmetry for initial positions (statically):
=====================================================================
 Subroutine PRICEL returns:
 Original cell was already a primitive cell.
 

 Routine SETGRP: Setting up the symmetry group for a 
 hexagonal supercell.


 Subroutine GETGRP returns: Found  1 space group operations
 (whereof  1 operations were pure point group operations)
 out of a pool of 24 trial point group operations.


The static configuration has the point symmetry C_1 .


Analysis of symmetry for dynamics (positions and initial velocities):
=====================================================================
 Subroutine PRICEL returns:
 Original cell was already a primitive cell.
 

 Routine SETGRP: Setting up the symmetry group for a 
 hexagonal supercell.


 Subroutine GETGRP returns: Found  1 space group operations
 (whereof  1 operations were pure point group operations)
 out of a pool of 24 trial point group operations.


The dynamic configuration has the point symmetry C_1 .


 Subroutine INISYM returns: Found  1 space group operations
 (whereof  1 operations are pure point group operations),
 and found     1 'primitive' translations


----------------------------------------------------------------------------------------

                                     Primitive cell                                     

  volume of cell :    3288.8533

  direct lattice vectors                    reciprocal lattice vectors
    12.325000000  0.000000000  0.000000000     0.081135903  0.046843835  0.000000000
    -6.162500000 10.673763102  0.000000000     0.000000000  0.093687670  0.000000000
     0.000000000  0.000000000 25.000000000     0.000000000  0.000000000  0.040000000

  length of vectors
    12.325000000 12.325000000 25.000000000     0.093687670  0.093687670  0.040000000

  position of ions in fractional coordinates (direct lattice)
     0.972450841  0.000320818  0.000566711
     0.039118382  0.133659505  0.000440173
     0.172443627  0.000295449  0.000499628
     0.239096278  0.133647917  0.000256468
     0.972452058  0.200322012  0.000485219
     0.039128360  0.333643771  0.000444150
     0.172451764  0.200354552  0.000219167
     0.239124359  0.333665720  0.000072260
     0.372465565  0.000324403  0.000453913
     0.439137473  0.133619939  0.000258338
     0.972449824  0.400309362  0.000547611
     0.039124981  0.533636789  0.000573410
     0.372416176  0.400329481  0.000000000
     0.439099602  0.533638981  0.000232414
     0.572443676  0.000312125  0.000559580
     0.639110207  0.133631751  0.000547275
     0.972452703  0.600305653  0.000640289
     0.039124495  0.733640359  0.000654513
     0.572433471  0.600306242  0.000402895
     0.639111888  0.733641879  0.000527905
     0.172454630  0.400318228  0.000289045
     0.239120185  0.533636548  0.000378509
     0.372459750  0.200295993  0.000088997
     0.439107096  0.333673419  0.000055762
     0.172452155  0.600311506  0.000524340
     0.239123371  0.733638574  0.000575129
     0.572431082  0.200289171  0.000413296
     0.639112773  0.333618630  0.000462376
     0.372439808  0.600308022  0.000362844
     0.439116090  0.733637858  0.000494190
     0.572469358  0.400320504  0.000339918
     0.639119408  0.533650873  0.000459610
     0.772445723  0.000315427  0.000596161
     0.839116277  0.133640203  0.000575306
     0.772440513  0.200307432  0.000581033
     0.839120241  0.333635728  0.000585467
     0.772446320  0.400298367  0.000582978
     0.839118980  0.533633964  0.000621100
     0.772456143  0.600308173  0.000595712
     0.839115033  0.733643180  0.000631512
     0.972455313  0.800305582  0.000652233
     0.039114714  0.933643289  0.000598051
     0.172457971  0.800312211  0.000623372
     0.239134551  0.933647193  0.000544850
     0.372451396  0.800316674  0.000551399
     0.439124489  0.933644769  0.000541430
     0.572441101  0.800310054  0.000534535
     0.639115067  0.933638985  0.000587644
     0.772445098  0.800313187  0.000602062
     0.839116614  0.933644338  0.000606830
     0.373021009  0.251226878  0.158740105
     0.420879805  0.189313152  0.161316980
     0.325156981  0.313167186  0.156361910

  ion indices of the primitive-cell ions
   primitive index   ion index
                 1           1
                 2           2
                 3           3
                 4           4
                 5           5
                 6           6
                 7           7
                 8           8
                 9           9
                10          10
                11          11
                12          12
                13          13
                14          14
                15          15
                16          16
                17          17
                18          18
                19          19
                20          20
                21          21
                22          22
                23          23
                24          24
                25          25
                26          26
                27          27
                28          28
                29          29
                30          30
                31          31
                32          32
                33          33
                34          34
                35          35
                36          36
                37          37
                38          38
                39          39
                40          40
                41          41
                42          42
                43          43
                44          44
                45          45
                46          46
                47          47
                48          48
                49          49
                50          50
                51          51
                52          52
                53          53

----------------------------------------------------------------------------------------

 
 
 KPOINTS: auto                                    

Automatic generation of k-mesh.
 Grid dimensions read from file:
 generate k-points for:    1    1    1

 Generating k-lattice:

  Cartesian coordinates                     Fractional coordinates (reciprocal lattice)
     0.081135903  0.046843835  0.000000000     1.000000000 -0.000000000  0.000000000
     0.000000000  0.093687670  0.000000000     0.000000000  1.000000000  0.000000000
     0.000000000  0.000000000  0.040000000     0.000000000  0.000000000  1.000000000

  Length of vectors
     0.093687670  0.093687670  0.040000000

  Shift w.r.t. Gamma in fractional coordinates (k-lattice)
     0.000000000  0.000000000  0.000000000

 
 Subroutine IBZKPT returns following result:
 ===========================================
 
 Found      1 irreducible k-points:
 
 Following reciprocal coordinates:
            Coordinates               Weight
  0.000000  0.000000  0.000000      1.000000
 
 Following cartesian coordinates:
            Coordinates               Weight
  0.000000  0.000000  0.000000      1.000000
 


--------------------------------------------------------------------------------------------------------




 Dimension of arrays:
   k-points           NKPTS =      1   k-points in BZ     NKDIM =      1   number of bands    NBANDS=    140
   number of dos      NEDOS =    301   number of ions     NIONS =     53
   non local maximal  LDIM  =      4   non local SUM 2l+1 LMDIM =      8
   total plane-waves  NPLWV = ******
   max r-space proj   IRMAX =      1   max aug-charges    IRDMAX=  10008
   dimension x,y,z NGX =   128 NGY =  128 NGZ =  270
   dimension x,y,z NGXF=   256 NGYF=  256 NGZF=  540
   support grid    NGXF=   256 NGYF=  256 NGZF=  540
   ions per type =              51   2
   NGX,Y,Z   is equivalent  to a cutoff of  17.27, 17.27, 17.95 a.u.
   NGXF,Y,Z  is equivalent  to a cutoff of  34.53, 34.53, 35.91 a.u.

 SYSTEM =  unknown system                          
 POSCAR =   C  O                                   

 Startparameter for this run:
   NWRITE =      2    write-flag & timer
   PREC   = accura    normal or accurate (medium, high low for compatibility)
   ISTART =      0    job   : 0-new  1-cont  2-samecut
   ICHARG =      2    charge: 1-file 2-atom 10-const
   ISPIN  =      1    spin polarized calculation?
   LNONCOLLINEAR =      F non collinear calculations
   LSORBIT =      F    spin-orbit coupling
   INIWAV =      1    electr: 0-lowe 1-rand  2-diag
   LASPH  =      F    aspherical Exc in radial PAW
 Electronic Relaxation 1
   ENCUT  = 1000.0 eV  73.50 Ry    8.57 a.u.  31.78 31.78 64.46*2*pi/ulx,y,z
   ENINI  = 1000.0     initial cutoff
   ENAUG  =  946.8 eV  augmentation charge cutoff
   NELM   =     60;   NELMIN=  2; NELMDL= -5     # of ELM steps 
   EDIFF  = 0.1E-05   stopping-criterion for ELM
   LREAL  =      F    real-space projection
   NLSPLINE    = F    spline interpolate recip. space projectors
   LCOMPAT=      F    compatible to vasp.4.4
   GGA_COMPAT  = T    GGA compatible to vasp.4.4-vasp.4.6
   LMAXPAW     = -100 max onsite density
   LMAXMIX     =    2 max onsite mixed and CHGCAR
   VOSKOWN=      0    Vosko Wilk Nusair interpolation
   ROPT   =    0.00000   0.00000
 Ionic relaxation
   EDIFFG = 0.1E-04   stopping-criterion for IOM
   NSW    =      0    number of steps for IOM
   NBLOCK =      1;   KBLOCK =      1    inner block; outer block 
   IBRION =     -1    ionic relax: 0-MD 1-quasi-New 2-CG
   NFREE  =      0    steps in history (QN), initial steepest desc. (CG)
   ISIF   =      0    stress and relaxation
   IWAVPR =     10    prediction:  0-non 1-charg 2-wave 3-comb
   ISYM   =      2    0-nonsym 1-usesym 2-fastsym
   LCORR  =      T    Harris-Foulkes like correction to forces

   POTIM  = 0.5000    time-step for ionic-motion
   TEIN   =    0.0    initial temperature
   TEBEG  =    0.0;   TEEND  =   0.0 temperature during run
   SMASS  =  -3.00    Nose mass-parameter (am)
   estimated Nose-frequenzy (Omega)   =  0.10E-29 period in steps = 0.13E+47 mass=  -0.347E-26a.u.
   SCALEE = 1.0000    scale energy and forces
   NPACO  =    256;   APACO  = 16.0  distance and # of slots for P.C.
   PSTRESS=    0.0 pullay stress

  Mass of Ions in am
   POMASS =  12.01 16.00
  Ionic Valenz
   ZVAL   =   4.00  6.00
  Atomic Wigner-Seitz radii
   RWIGS  =  -1.00 -1.00
  virtual crystal weights 
   VCA    =   1.00  1.00
   NELECT =     216.0000    total number of electrons
   NUPDOWN=      -1.0000    fix difference up-down

 DOS related values:
   EMIN   =  10.00;   EMAX   =-10.00  energy-range for DOS
   EFERMI =   0.00
   ISMEAR =     0;   SIGMA  =   0.01  broadening in eV -4-tet -1-fermi 0-gaus

 Electronic relaxation 2 (details)
   IALGO  =     58    algorithm
   LDIAG  =      T    sub-space diagonalisation (order eigenvalues)
   LSUBROT=      F    optimize rotation matrix (better conditioning)
   TURBO    =      0    0=normal 1=particle mesh
   IRESTART =      0    0=no restart 2=restart with 2 vectors
   NREBOOT  =      0    no. of reboots
   NMIN     =      0    reboot dimension
   EREF     =   0.00    reference energy to select bands
   IMIX   =      4    mixing-type and parameters
     AMIX     =   0.40;   BMIX     =  1.00
     AMIX_MAG =   1.60;   BMIX_MAG =  1.00
     AMIN     =   0.10
     WC   =   100.;   INIMIX=   1;  MIXPRE=   1;  MAXMIX= -45

 Intra band minimization:
   WEIMIN = 0.0000     energy-eigenvalue tresh-hold
   EBREAK =  0.18E-08  absolut break condition
   DEPER  =   0.30     relativ break condition  

   TIME   =   0.40     timestep for ELM

  volume/ion in A,a.u.               =      62.05       418.76
  Fermi-wavevector in a.u.,A,eV,Ry     =   0.660508  1.248179  5.935820  0.436270
  Thomas-Fermi vector in A             =   1.732977
 
 Write flags
   LWAVE        =      F    write WAVECAR
   LDOWNSAMPLE  =      F    k-point downsampling of WAVECAR
   LCHARG       =      T    write CHGCAR
   LVTOT        =      F    write LOCPOT, total local potential
   LVHAR        =      F    write LOCPOT, Hartree potential only
   LELF         =      F    write electronic localiz. function (ELF)
   LORBIT       =      0    0 simple, 1 ext, 2 COOP (PROOUT), +10 PAW based schemes


 Dipole corrections
   LMONO  =      F    monopole corrections only (constant potential shift)
   LDIPOL =      F    correct potential (dipole corrections)
   IDIPOL =      0    1-x, 2-y, 3-z, 4-all directions 
   EPSILON=  1.0000000 bulk dielectric constant

 Exchange correlation treatment:
   GGA     =    --    GGA type
   LEXCH   =     8    internal setting for exchange type
   VOSKOWN=      0    Vosko Wilk Nusair interpolation
   LHFCALC =     F    Hartree Fock is set to
   LHFONE  =     F    Hartree Fock one center treatment
   AEXX    =    0.0000 exact exchange contribution

 Linear response parameters
   LEPSILON=     F    determine dielectric tensor
   LRPA    =     F    only Hartree local field effects (RPA)
   LNABLA  =     F    use nabla operator in PAW spheres
   LVEL    =     F    velocity operator in full k-point grid
   LINTERFAST=   F  fast interpolation
   KINTER  =     0    interpolate to denser k-point grid
   CSHIFT  =0.1000    complex shift for real part using Kramers Kronig
   OMEGAMAX=  -1.0    maximum frequency
   DEG_THRESHOLD= 0.2000000E-02 threshold for treating states as degnerate
   RTIME   =   -0.100 relaxation time in fs
  (WPLASMAI=    0.000 imaginary part of plasma frequency in eV, 0.658/RTIME)
   DFIELD  = 0.0000000 0.0000000 0.0000000 field for delta impulse in time
 
 Orbital magnetization related:
   ORBITALMAG=     F  switch on orbital magnetization
   LCHIMAG   =     F  perturbation theory with respect to B field
   DQ        =  0.001000  dq finite difference perturbation B field
   LLRAUG    =     F  two centre corrections for induced B field



--------------------------------------------------------------------------------------------------------


 Static calculation
 charge density and potential will be updated during run
 non-spin polarized calculation
 Conjugate gradient for all bands (Freysoldt, et al. PRB 79, 241103 (2009))
 preconditioned conjugated gradient                                        
 perform sub-space diagonalisation
    before iterative eigenvector-optimisation
 modified Broyden-mixing scheme, WC =      100.0
 initial mixing is a Kerker type mixing with AMIX =  0.4000 and BMIX =      1.0000
 Hartree-type preconditioning will be used
 using additional bands           32
 reciprocal scheme for non local part
 use partial core corrections
 no Harris-corrections to forces 
 use gradient corrections 
 use of overlap-Matrix (Vanderbilt PP)
 Gauss-broadening in eV      SIGMA  =   0.01


--------------------------------------------------------------------------------------------------------


  energy-cutoff  :     1000.00
  volume of cell :     3288.85
      direct lattice vectors                 reciprocal lattice vectors
    12.325000000  0.000000000  0.000000000     0.081135903  0.046843835  0.000000000
    -6.162500000 10.673763102  0.000000000     0.000000000  0.093687670  0.000000000
     0.000000000  0.000000000 25.000000000     0.000000000  0.000000000  0.040000000

  length of vectors
    12.325000000 12.325000000 25.000000000     0.093687670  0.093687670  0.040000000


 
 k-points in units of 2pi/SCALE and weight: auto                                    
   0.00000000  0.00000000  0.00000000       1.000
 
 k-points in reciprocal lattice and weights: auto                                    
   0.00000000  0.00000000  0.00000000       1.000
 
 position of ions in fractional coordinates (direct lattice) 
   0.97245084  0.00032082  0.00056671
   0.03911838  0.13365950  0.00044017
   0.17244363  0.00029545  0.00049963
   0.23909628  0.13364792  0.00025647
   0.97245206  0.20032201  0.00048522
   0.03912836  0.33364377  0.00044415
   0.17245176  0.20035455  0.00021917
   0.23912436  0.33366572  0.00007226
   0.37246557  0.00032440  0.00045391
   0.43913747  0.13361994  0.00025834
   0.97244982  0.40030936  0.00054761
   0.03912498  0.53363679  0.00057341
   0.37241618  0.40032948  0.00000000
   0.43909960  0.53363898  0.00023241
   0.57244368  0.00031213  0.00055958
   0.63911021  0.13363175  0.00054727
   0.97245270  0.60030565  0.00064029
   0.03912449  0.73364036  0.00065451
   0.57243347  0.60030624  0.00040289
   0.63911189  0.73364188  0.00052791
   0.17245463  0.40031823  0.00028904
   0.23912018  0.53363655  0.00037851
   0.37245975  0.20029599  0.00008900
   0.43910710  0.33367342  0.00005576
   0.17245216  0.60031151  0.00052434
   0.23912337  0.73363857  0.00057513
   0.57243108  0.20028917  0.00041330
   0.63911277  0.33361863  0.00046238
   0.37243981  0.60030802  0.00036284
   0.43911609  0.73363786  0.00049419
   0.57246936  0.40032050  0.00033992
   0.63911941  0.53365087  0.00045961
   0.77244572  0.00031543  0.00059616
   0.83911628  0.13364020  0.00057531
   0.77244051  0.20030743  0.00058103
   0.83912024  0.33363573  0.00058547
   0.77244632  0.40029837  0.00058298
   0.83911898  0.53363396  0.00062110
   0.77245614  0.60030817  0.00059571
   0.83911503  0.73364318  0.00063151
   0.97245531  0.80030558  0.00065223
   0.03911471  0.93364329  0.00059805
   0.17245797  0.80031221  0.00062337
   0.23913455  0.93364719  0.00054485
   0.37245140  0.80031667  0.00055140
   0.43912449  0.93364477  0.00054143
   0.57244110  0.80031005  0.00053453
   0.63911507  0.93363899  0.00058764
   0.77244510  0.80031319  0.00060206
   0.83911661  0.93364434  0.00060683
   0.37302101  0.25122688  0.15874011
   0.42087980  0.18931315  0.16131698
   0.32515698  0.31316719  0.15636191
 
 position of ions in cartesian coordinates  (Angst):
  11.98347958  0.00342433  0.01416777
  -0.34154264  1.42664989  0.01100432
   2.12354700  0.00315355  0.01249070
   2.12325634  1.42652621  0.00641170
  10.75098721  2.13818970  0.01213047
  -1.57382270  3.56123457  0.01110375
   0.89078307  2.13853702  0.00547917
   0.89099273  3.56146885  0.00180651
   4.58863896  0.00346260  0.01134782
   4.58893648  1.42622757  0.00645846
   9.51853763  4.27280730  0.01369027
  -2.80632132  5.69591267  0.01433526
   2.12299894  4.27302204  0.00000000
   2.12335237  5.69593607  0.00581036
   7.05344483  0.00333155  0.01398950
   7.05352764  1.42635365  0.01368187
   8.28609598  6.40752033  0.01600723
  -4.03884931  7.83070339  0.01636283
   3.35585531  6.40752662  0.01007237
   3.35598594  7.83071962  0.01319763
  -0.34145776  4.27290193  0.00722612
  -0.34137895  5.69591010  0.00946273
   3.35624236  2.13791198  0.00222492
   3.35573251  3.56155103  0.00139405
  -1.57394684  6.40758280  0.01310850
  -1.57385216  7.83068434  0.01437823
   5.82093107  2.13783916  0.01033241
   5.82114012  3.56096622  0.01155939
   0.89092245  6.40754561  0.00907111
   0.89106251  7.83067670  0.01235474
   4.58870974  4.27292622  0.00849795
   4.58852320  5.69606300  0.01149026
   9.51844972  0.00336679  0.01490402
   9.51855036  1.42644387  0.01438264
   8.28593477  2.13803408  0.01452582
   8.28612680  3.56114872  0.01463668
   7.05356221  4.27268994  0.01457444
   7.05362213  5.69588251  0.01552751
   5.82112285  6.40754723  0.01489279
   5.82101669  7.83073350  0.01578780
   7.05362858  8.54227219  0.01630582
  -5.27148792  9.96548729  0.01495127
  -2.80637951  8.54234295  0.01558431
  -2.80626749  9.96552896  0.01362126
  -0.34148805  8.54239058  0.01378498
  -0.34137657  9.96550309  0.01353576
   2.12342586  8.54231992  0.01336337
   2.12354296  9.96544135  0.01469111
   4.58845581  8.54235337  0.01505154
   4.58852904  9.96549848  0.01517076
   3.04929830  2.68153618  3.96850263
   4.02070129  2.02068374  4.03292449
   2.07766701  3.34267235  3.90904776
 


--------------------------------------------------------------------------------------------------------


 k-point   1 :   0.0000 0.0000 0.0000  plane waves:  236157

 maximum and minimum number of plane-waves per node :     59046    59034

 maximum number of plane-waves:    236157
 maximum index in each direction: 
   IXMAX=   31   IYMAX=   31   IZMAX=   64
   IXMIN=  -31   IYMIN=  -31   IZMIN=  -64


 parallel 3D FFT for wavefunctions:
    minimum data exchange during FFTs selected (reduces bandwidth)
 parallel 3D FFT for charge:
    minimum data exchange during FFTs selected (reduces bandwidth)


 total amount of memory used by VASP MPI-rank0   215378. kBytes
=======================================================================

   base      :      30000. kBytes
   nonl-proj :      57634. kBytes
   fftplans  :      45914. kBytes
   grid      :      67588. kBytes
   one-center:         43. kBytes
   wavefun   :      14199. kBytes
 
     INWAV:  cpu time    0.0000: real time    0.0000
 Broyden mixing: mesh for mixing (old mesh)
   NGX = 63   NGY = 63   NGZ =129
  (NGX  =256   NGY  =256   NGZ  =540)
  gives a total of 512001 points

 initial charge density was supplied:
 charge density of overlapping atoms calculated
 number of electron     216.0000000 magnetization 
 keeping initial charge density in first step


--------------------------------------------------------------------------------------------------------


 Maximum index for augmentation-charges          471 (set IRDMAX)


--------------------------------------------------------------------------------------------------------


 First call to EWALD:  gamma=   0.119
 Maximum number of real-space cells 4x 4x 2
 Maximum number of reciprocal cells 2x 2x 4

    FEWALD:  cpu time    0.0023: real time    0.0023


--------------------------------------- Iteration      1(   1)  ---------------------------------------


    POTLOK:  cpu time    0.3946: real time    0.3995
    SETDIJ:  cpu time    0.0044: real time    0.0045
    TRIAL :  cpu time    5.6064: real time    5.6630
    CORREC:  cpu time    0.0005: real time    0.0007
    --------------------------------------------
      LOOP:  cpu time    6.0122: real time    6.0947

 eigenvalue-minimisations  :   280
 total energy-change (2. order) : 0.2772467E+04  (-0.1023922E+05)
 number of electron     216.0000000 magnetization 
 augmentation part      216.0000000 magnetization 

 Free energy of the ion-electron system (eV)
  ---------------------------------------------------
  alpha Z        PSCENC =        47.94900195
  Ewald energy   TEWEN  =     46249.24210674
  -Hartree energ DENC   =    -52318.32417697
  -exchange      EXHF   =         0.00000000
  -V(xc)+E(xc)   XCENC  =       420.83553983
  PAW double counting   =      6525.96553977    -6260.36035765
  entropy T*S    EENTRO =        -0.00000000
  eigenvalues    EBANDS =      -262.36463009
  atomic energy  EATOM  =      8369.52358910
  ---------------------------------------------------
  free energy    TOTEN  =      2772.46661269 eV

  energy without entropy =     2772.46661269  energy(sigma->0) =     2772.46661269


--------------------------------------------------------------------------------------------------------




--------------------------------------- Iteration      1(   2)  ---------------------------------------


    TRIAL :  cpu time    8.0984: real time    8.1747
    CORREC:  cpu time    0.0001: real time    0.0001
    --------------------------------------------
      LOOP:  cpu time    8.1532: real time    8.2316

 eigenvalue-minimisations  :   448
 total energy-change (2. order) :-0.2441985E+04  (-0.2285214E+04)
 number of electron     216.0000000 magnetization 
 augmentation part      216.0000000 magnetization 

 Free energy of the ion-electron system (eV)
  ---------------------------------------------------
  alpha Z        PSCENC =        47.94900195
  Ewald energy   TEWEN  =     46249.24210674
  -Hartree energ DENC   =    -52318.32417697
  -exchange      EXHF   =         0.00000000
  -V(xc)+E(xc)   XCENC  =       420.83553983
  PAW double counting   =      6525.96553977    -6260.36035765
  entropy T*S    EENTRO =        -0.00000000
  eigenvalues    EBANDS =     -2704.34962425
  atomic energy  EATOM  =      8369.52358910
  ---------------------------------------------------
  free energy    TOTEN  =       330.48161853 eV

  energy without entropy =      330.48161853  energy(sigma->0) =      330.48161853


--------------------------------------------------------------------------------------------------------




--------------------------------------- Iteration      1(   3)  ---------------------------------------


    TRIAL :  cpu time    6.8357: real time    6.8972
    CORREC:  cpu time    0.0001: real time    0.0001
    --------------------------------------------
      LOOP:  cpu time    6.8712: real time    6.9447

 eigenvalue-minimisations  :   364
 total energy-change (2. order) :-0.7932279E+03  (-0.7819921E+03)
 number of electron     216.0000000 magnetization 
 augmentation part      216.0000000 magnetization 

 Free energy of the ion-electron system (eV)
  ---------------------------------------------------
  alpha Z        PSCENC =        47.94900195
  Ewald energy   TEWEN  =     46249.24210674
  -Hartree energ DENC   =    -52318.32417697
  -exchange      EXHF   =         0.00000000
  -V(xc)+E(xc)   XCENC  =       420.83553983
  PAW double counting   =      6525.96553977    -6260.36035765
  entropy T*S    EENTRO =        -0.00000000
  eigenvalues    EBANDS =     -3497.57750879
  atomic energy  EATOM  =      8369.52358910
  ---------------------------------------------------
  free energy    TOTEN  =      -462.74626601 eV

  energy without entropy =     -462.74626601  energy(sigma->0) =     -462.74626601


--------------------------------------------------------------------------------------------------------




--------------------------------------- Iteration      1(   4)  ---------------------------------------


    TRIAL :  cpu time    6.8386: real time    6.9039
    CORREC:  cpu time    0.0001: real time    0.0002
    --------------------------------------------
      LOOP:  cpu time    6.9423: real time    7.0131

 eigenvalue-minimisations  :   364
 total energy-change (2. order) :-0.5383324E+02  (-0.5352044E+02)
 number of electron     216.0000000 magnetization 
 augmentation part      216.0000000 magnetization 

 Free energy of the ion-electron system (eV)
  ---------------------------------------------------
  alpha Z        PSCENC =        47.94900195
  Ewald energy   TEWEN  =     46249.24210674
  -Hartree energ DENC   =    -52318.32417697
  -exchange      EXHF   =         0.00000000
  -V(xc)+E(xc)   XCENC  =       420.83553983
  PAW double counting   =      6525.96553977    -6260.36035765
  entropy T*S    EENTRO =        -0.00000000
  eigenvalues    EBANDS =     -3551.41074824
  atomic energy  EATOM  =      8369.52358910
  ---------------------------------------------------
  free energy    TOTEN  =      -516.57950546 eV

  energy without entropy =     -516.57950546  energy(sigma->0) =     -516.57950546


--------------------------------------------------------------------------------------------------------




--------------------------------------- Iteration      1(   5)  ---------------------------------------


    TRIAL :  cpu time    7.2506: real time    7.3224
    CORREC:  cpu time    0.0001: real time    0.0001
    CHARGE:  cpu time    0.3112: real time    0.3143
    --------------------------------------------
      LOOP:  cpu time    7.5974: real time    7.6748

 eigenvalue-minimisations  :   392
 total energy-change (2. order) :-0.1428677E+01  (-0.1424500E+01)
 number of electron     216.0000000 magnetization 
 augmentation part       -0.2696611 magnetization 

 Free energy of the ion-electron system (eV)
  ---------------------------------------------------
  alpha Z        PSCENC =        47.94900195
  Ewald energy   TEWEN  =     46249.24210674
  -Hartree energ DENC   =    -52318.32417697
  -exchange      EXHF   =         0.00000000
  -V(xc)+E(xc)   XCENC  =       420.83553983
  PAW double counting   =      6525.96553977    -6260.36035765
  entropy T*S    EENTRO =        -0.00000000
  eigenvalues    EBANDS =     -3552.83942493
  atomic energy  EATOM  =      8369.52358910
  ---------------------------------------------------
  free energy    TOTEN  =      -518.00818215 eV

  energy without entropy =     -518.00818215  energy(sigma->0) =     -518.00818215


--------------------------------------------------------------------------------------------------------




--------------------------------------- Iteration      1(   6)  ---------------------------------------


    POTLOK:  cpu time    0.3770: real time    0.3799
    SETDIJ:  cpu time    0.0028: real time    0.0028
    TRIAL :  cpu time    2.6796: real time    2.7040
    CORREC:  cpu time    1.0652: real time    1.0742
    CHARGE:  cpu time    0.3096: real time    0.3122
    --------------------------------------------
      LOOP:  cpu time    4.4603: real time    4.5160

 eigenvalue-minimisations  :     0
 total energy-change (2. order) : 0.5109445E+02  (-0.1536303E+02)
 number of electron     216.0000000 magnetization 
 augmentation part       -0.3665134 magnetization 

 Free energy of the ion-electron system (eV)
  ---------------------------------------------------
  alpha Z        PSCENC =        47.94900195
  Ewald energy   TEWEN  =     46249.24210674
  -Hartree energ DENC   =    -53755.17886570
  -exchange      EXHF   =         0.00000000
  -V(xc)+E(xc)   XCENC  =       468.89932620
  PAW double counting   =     89842.61817453   -89585.26530665
  entropy T*S    EENTRO =        -0.00000000
  eigenvalues    EBANDS =     -2104.70175822
  atomic energy  EATOM  =      8369.52358910
  ---------------------------------------------------
  free energy    TOTEN  =      -466.91373205 eV

  energy without entropy =     -466.91373205  energy(sigma->0) =     -466.91373205


--------------------------------------------------------------------------------------------------------




--------------------------------------- Iteration      1(   7)  ---------------------------------------


    POTLOK:  cpu time    0.3805: real time    0.3834
    SETDIJ:  cpu time    0.0027: real time    0.0028
    TRIAL :  cpu time    2.6781: real time    2.7048
    CORREC:  cpu time    1.0653: real time    1.0739
    CHARGE:  cpu time    0.3110: real time    0.3135
    --------------------------------------------
      LOOP:  cpu time    4.5163: real time    4.5577

 eigenvalue-minimisations  :     0
 total energy-change (2. order) :-0.1540078E+02  (-0.1772448E+01)
 number of electron     216.0000000 magnetization 
 augmentation part       -0.4138284 magnetization 

 Free energy of the ion-electron system (eV)
  ---------------------------------------------------
  alpha Z        PSCENC =        47.94900195
  Ewald energy   TEWEN  =     46249.24210674
  -Hartree energ DENC   =    -53246.13258562
  -exchange      EXHF   =         0.00000000
  -V(xc)+E(xc)   XCENC  =       451.93713427
  PAW double counting   =    105943.27404315  -105683.11072289
  entropy T*S    EENTRO =        -0.00000000
  eigenvalues    EBANDS =     -2614.99707708
  atomic energy  EATOM  =      8369.52358910
  ---------------------------------------------------
  free energy    TOTEN  =      -482.31451037 eV

  energy without entropy =     -482.31451037  energy(sigma->0) =     -482.31451037


--------------------------------------------------------------------------------------------------------




--------------------------------------- Iteration      1(   8)  ---------------------------------------


    POTLOK:  cpu time    0.3808: real time    0.3835
    SETDIJ:  cpu time    0.0028: real time    0.0028
    TRIAL :  cpu time    2.6804: real time    2.7049
    CORREC:  cpu time    1.0661: real time    1.0749
    CHARGE:  cpu time    0.3120: real time    0.3144
    --------------------------------------------
      LOOP:  cpu time    4.5124: real time    4.5541

 eigenvalue-minimisations  :     0
 total energy-change (2. order) :-0.1771763E+01  (-0.4580974E+00)
 number of electron     216.0000000 magnetization 
 augmentation part       -0.4305213 magnetization 

 Free energy of the ion-electron system (eV)
  ---------------------------------------------------
  alpha Z        PSCENC =        47.94900195
  Ewald energy   TEWEN  =     46249.24210674
  -Hartree energ DENC   =    -53220.43857808
  -exchange      EXHF   =         0.00000000
  -V(xc)+E(xc)   XCENC  =       451.38601518
  PAW double counting   =    110271.05770027  -110010.48965613
  entropy T*S    EENTRO =        -0.00000000
  eigenvalues    EBANDS =     -2642.31645266
  atomic energy  EATOM  =      8369.52358910
  ---------------------------------------------------
  free energy    TOTEN  =      -484.08627362 eV

  energy without entropy =     -484.08627362  energy(sigma->0) =     -484.08627362


--------------------------------------------------------------------------------------------------------




--------------------------------------- Iteration      1(   9)  ---------------------------------------


    POTLOK:  cpu time    0.3791: real time    0.3817
    SETDIJ:  cpu time    0.0028: real time    0.0029
    TRIAL :  cpu time    2.6817: real time    2.7060
    CORREC:  cpu time    1.0645: real time    1.0762
    CHARGE:  cpu time    0.3116: real time    0.3144
    --------------------------------------------
      LOOP:  cpu time    4.5007: real time    4.5524

 eigenvalue-minimisations  :     0
 total energy-change (2. order) :-0.4579097E+00  (-0.1467776E+00)
 number of electron     216.0000000 magnetization 
 augmentation part       -0.4375419 magnetization 

 Free energy of the ion-electron system (eV)
  ---------------------------------------------------
  alpha Z        PSCENC =        47.94900195
  Ewald energy   TEWEN  =     46249.24210674
  -Hartree energ DENC   =    -53236.51543211
  -exchange      EXHF   =         0.00000000
  -V(xc)+E(xc)   XCENC  =       451.56793164
  PAW double counting   =    112961.70194967  -112700.98417365
  entropy T*S    EENTRO =        -0.00000000
  eigenvalues    EBANDS =     -2627.02915664
  atomic energy  EATOM  =      8369.52358910
  ---------------------------------------------------
  free energy    TOTEN  =      -484.54418330 eV

  energy without entropy =     -484.54418330  energy(sigma->0) =     -484.54418330


--------------------------------------------------------------------------------------------------------




--------------------------------------- Iteration      1(  10)  ---------------------------------------


    POTLOK:  cpu time    0.3849: real time    0.3878
    SETDIJ:  cpu time    0.0026: real time    0.0027
    TRIAL :  cpu time    2.6795: real time    2.7066
    CORREC:  cpu time    1.0628: real time    1.0721
    CHARGE:  cpu time    0.3116: real time    0.3144
    --------------------------------------------
      LOOP:  cpu time    4.4760: real time    4.5256

 eigenvalue-minimisations  :     0
 total energy-change (2. order) :-0.1465636E+00  (-0.5972375E-01)
 number of electron     216.0000000 magnetization 
 augmentation part       -0.4379394 magnetization 

 Free energy of the ion-electron system (eV)
  ---------------------------------------------------
  alpha Z        PSCENC =        47.94900195
  Ewald energy   TEWEN  =     46249.24210674
  -Hartree energ DENC   =    -53237.57712118
  -exchange      EXHF   =         0.00000000
  -V(xc)+E(xc)   XCENC  =       451.49213799
  PAW double counting   =    113397.05953112  -113136.26183376
  entropy T*S    EENTRO =        -0.00000000
  eigenvalues    EBANDS =     -2626.11815886
  atomic energy  EATOM  =      8369.52358910
  ---------------------------------------------------
  free energy    TOTEN  =      -484.69074690 eV

  energy without entropy =     -484.69074690  energy(sigma->0) =     -484.69074690


--------------------------------------------------------------------------------------------------------




--------------------------------------- Iteration      1(  11)  ---------------------------------------


    POTLOK:  cpu time    0.3833: real time    0.3859
    SETDIJ:  cpu time    0.0027: real time    0.0028
    TRIAL :  cpu time    2.6814: real time    2.7053
    CORREC:  cpu time    1.0623: real time    1.0707
    CHARGE:  cpu time    0.3093: real time    0.3141
    --------------------------------------------
      LOOP:  cpu time    4.4676: real time    4.5099

 eigenvalue-minimisations  :     0
 total energy-change (2. order) :-0.5959171E-01  (-0.2414084E-01)
 number of electron     216.0000000 magnetization 
 augmentation part       -0.4374302 magnetization 

 Free energy of the ion-electron system (eV)
  ---------------------------------------------------
  alpha Z        PSCENC =        47.94900195
  Ewald energy   TEWEN  =     46249.24210674
  -Hartree energ DENC   =    -53233.43628998
  -exchange      EXHF   =         0.00000000
  -V(xc)+E(xc)   XCENC  =       451.42890627
  PAW double counting   =    112923.40117999  -112662.60394371
  entropy T*S    EENTRO =        -0.00000000
  eigenvalues    EBANDS =     -2630.25488898
  atomic energy  EATOM  =      8369.52358910
  ---------------------------------------------------
  free energy    TOTEN  =      -484.75033861 eV

  energy without entropy =     -484.75033861  energy(sigma->0) =     -484.75033861


--------------------------------------------------------------------------------------------------------




--------------------------------------- Iteration      1(  12)  ---------------------------------------


    POTLOK:  cpu time    0.3883: real time    0.3909
    SETDIJ:  cpu time    0.0028: real time    0.0028
    TRIAL :  cpu time    2.6827: real time    2.7070
    CORREC:  cpu time    1.0588: real time    1.0676
    CHARGE:  cpu time    0.3122: real time    0.3146
    --------------------------------------------
      LOOP:  cpu time    4.4638: real time    4.5071

 eigenvalue-minimisations  :     0
 total energy-change (2. order) :-0.2405557E-01  (-0.8273667E-02)
 number of electron     216.0000000 magnetization 
 augmentation part       -0.4375726 magnetization 

 Free energy of the ion-electron system (eV)
  ---------------------------------------------------
  alpha Z        PSCENC =        47.94900195
  Ewald energy   TEWEN  =     46249.24210674
  -Hartree energ DENC   =    -53231.58694276
  -exchange      EXHF   =         0.00000000
  -V(xc)+E(xc)   XCENC  =       451.39479893
  PAW double counting   =    112549.99976134  -112289.22478280
  entropy T*S    EENTRO =        -0.00000000
  eigenvalues    EBANDS =     -2632.07192668
  atomic energy  EATOM  =      8369.52358910
  ---------------------------------------------------
  free energy    TOTEN  =      -484.77439418 eV

  energy without entropy =     -484.77439418  energy(sigma->0) =     -484.77439418


--------------------------------------------------------------------------------------------------------




--------------------------------------- Iteration      1(  13)  ---------------------------------------


    POTLOK:  cpu time    0.3773: real time    0.3800
    SETDIJ:  cpu time    0.0028: real time    0.0028
    TRIAL :  cpu time    2.6810: real time    2.7059
    CORREC:  cpu time    1.0561: real time    1.0654
    CHARGE:  cpu time    0.3147: real time    0.3172
    --------------------------------------------
      LOOP:  cpu time    4.4782: real time    4.5205

 eigenvalue-minimisations  :     0
 total energy-change (2. order) :-0.8257386E-02  (-0.2464102E-02)
 number of electron     216.0000000 magnetization 
 augmentation part       -0.4372400 magnetization 

 Free energy of the ion-electron system (eV)
  ---------------------------------------------------
  alpha Z        PSCENC =        47.94900195
  Ewald energy   TEWEN  =     46249.24210674
  -Hartree energ DENC   =    -53231.45740110
  -exchange      EXHF   =         0.00000000
  -V(xc)+E(xc)   XCENC  =       451.38270220
  PAW double counting   =    112443.65336304  -112182.88806702
  entropy T*S    EENTRO =        -0.00000000
  eigenvalues    EBANDS =     -2632.18794648
  atomic energy  EATOM  =      8369.52358910
  ---------------------------------------------------
  free energy    TOTEN  =      -484.78265156 eV

  energy without entropy =     -484.78265156  energy(sigma->0) =     -484.78265156


--------------------------------------------------------------------------------------------------------




--------------------------------------- Iteration      1(  14)  ---------------------------------------


    POTLOK:  cpu time    0.3775: real time    0.3800
    SETDIJ:  cpu time    0.0029: real time    0.0030
    TRIAL :  cpu time    2.6759: real time    2.7067
    CORREC:  cpu time    1.0555: real time    1.0650
    CHARGE:  cpu time    0.3114: real time    0.3138
    --------------------------------------------
      LOOP:  cpu time    4.4701: real time    4.5160

 eigenvalue-minimisations  :     0
 total energy-change (2. order) :-0.2464335E-02  (-0.7097262E-03)
 number of electron     216.0000000 magnetization 
 augmentation part       -0.4370016 magnetization 

 Free energy of the ion-electron system (eV)
  ---------------------------------------------------
  alpha Z        PSCENC =        47.94900195
  Ewald energy   TEWEN  =     46249.24210674
  -Hartree energ DENC   =    -53231.41976243
  -exchange      EXHF   =         0.00000000
  -V(xc)+E(xc)   XCENC  =       451.38011287
  PAW double counting   =    112482.55241918  -112221.78943717
  entropy T*S    EENTRO =        -0.00000000
  eigenvalues    EBANDS =     -2632.22314615
  atomic energy  EATOM  =      8369.52358910
  ---------------------------------------------------
  free energy    TOTEN  =      -484.78511590 eV

  energy without entropy =     -484.78511590  energy(sigma->0) =     -484.78511590


--------------------------------------------------------------------------------------------------------




--------------------------------------- Iteration      1(  15)  ---------------------------------------


    POTLOK:  cpu time    0.3736: real time    0.3763
    SETDIJ:  cpu time    0.0027: real time    0.0027
    TRIAL :  cpu time    2.6848: real time    2.7096
    CORREC:  cpu time    1.0521: real time    1.0610
    CHARGE:  cpu time    0.3110: real time    0.3135
    --------------------------------------------
      LOOP:  cpu time    4.4859: real time    4.5336

 eigenvalue-minimisations  :     0
 total energy-change (2. order) :-0.7110790E-03  (-0.2442069E-03)
 number of electron     216.0000000 magnetization 
 augmentation part       -0.4367343 magnetization 

 Free energy of the ion-electron system (eV)
  ---------------------------------------------------
  alpha Z        PSCENC =        47.94900195
  Ewald energy   TEWEN  =     46249.24210674
  -Hartree energ DENC   =    -53231.11539266
  -exchange      EXHF   =         0.00000000
  -V(xc)+E(xc)   XCENC  =       451.36725233
  PAW double counting   =    112512.11570919  -112251.35100417
  entropy T*S    EENTRO =        -0.00000000
  eigenvalues    EBANDS =     -2632.51708946
  atomic energy  EATOM  =      8369.52358910
  ---------------------------------------------------
  free energy    TOTEN  =      -484.78582698 eV

  energy without entropy =     -484.78582698  energy(sigma->0) =     -484.78582698


--------------------------------------------------------------------------------------------------------




--------------------------------------- Iteration      1(  16)  ---------------------------------------


    POTLOK:  cpu time    0.3768: real time    0.3794
    SETDIJ:  cpu time    0.0029: real time    0.0029
    TRIAL :  cpu time    2.6858: real time    2.7143
    CORREC:  cpu time    1.0558: real time    1.0651
    CHARGE:  cpu time    0.3096: real time    0.3120
    --------------------------------------------
      LOOP:  cpu time    4.4718: real time    4.5171

 eigenvalue-minimisations  :     0
 total energy-change (2. order) :-0.2450999E-03  (-0.9692672E-04)
 number of electron     216.0000000 magnetization 
 augmentation part       -0.4365688 magnetization 

 Free energy of the ion-electron system (eV)
  ---------------------------------------------------
  alpha Z        PSCENC =        47.94900195
  Ewald energy   TEWEN  =     46249.24210674
  -Hartree energ DENC   =    -53231.21065842
  -exchange      EXHF   =         0.00000000
  -V(xc)+E(xc)   XCENC  =       451.37087860
  PAW double counting   =    112489.53870267  -112228.77455975
  entropy T*S    EENTRO =        -0.00000000
  eigenvalues    EBANDS =     -2632.42513298
  atomic energy  EATOM  =      8369.52358910
  ---------------------------------------------------
  free energy    TOTEN  =      -484.78607208 eV

  energy without entropy =     -484.78607208  energy(sigma->0) =     -484.78607208


--------------------------------------------------------------------------------------------------------




--------------------------------------- Iteration      1(  17)  ---------------------------------------


    POTLOK:  cpu time    0.3896: real time    0.3922
    SETDIJ:  cpu time    0.0028: real time    0.0028
    TRIAL :  cpu time    2.6817: real time    2.7065
    CORREC:  cpu time    1.0542: real time    1.0631
    CHARGE:  cpu time    0.3112: real time    0.3136
    --------------------------------------------
      LOOP:  cpu time    4.4750: real time    4.5260

 eigenvalue-minimisations  :     0
 total energy-change (2. order) :-0.9728465E-04  (-0.3702454E-04)
 number of electron     216.0000000 magnetization 
 augmentation part       -0.4365770 magnetization 

 Free energy of the ion-electron system (eV)
  ---------------------------------------------------
  alpha Z        PSCENC =        47.94900195
  Ewald energy   TEWEN  =     46249.24210674
  -Hartree energ DENC   =    -53231.32603504
  -exchange      EXHF   =         0.00000000
  -V(xc)+E(xc)   XCENC  =       451.37469944
  PAW double counting   =    112458.80525535  -112198.04156699
  entropy T*S    EENTRO =        -0.00000000
  eigenvalues    EBANDS =     -2632.31321991
  atomic energy  EATOM  =      8369.52358910
  ---------------------------------------------------
  free energy    TOTEN  =      -484.78616936 eV

  energy without entropy =     -484.78616936  energy(sigma->0) =     -484.78616936


--------------------------------------------------------------------------------------------------------




--------------------------------------- Iteration      1(  18)  ---------------------------------------


    POTLOK:  cpu time    0.3756: real time    0.3784
    SETDIJ:  cpu time    0.0027: real time    0.0027
    TRIAL :  cpu time    2.6741: real time    2.7025
    CORREC:  cpu time    1.0533: real time    1.0626
    CHARGE:  cpu time    0.3120: real time    0.3144
    --------------------------------------------
      LOOP:  cpu time    4.4460: real time    4.4914

 eigenvalue-minimisations  :     0
 total energy-change (2. order) :-0.3700967E-04  (-0.1376744E-04)
 number of electron     216.0000000 magnetization 
 augmentation part       -0.4366242 magnetization 

 Free energy of the ion-electron system (eV)
  ---------------------------------------------------
  alpha Z        PSCENC =        47.94900195
  Ewald energy   TEWEN  =     46249.24210674
  -Hartree energ DENC   =    -53231.30608410
  -exchange      EXHF   =         0.00000000
  -V(xc)+E(xc)   XCENC  =       451.37365313
  PAW double counting   =    112450.81898330  -112190.05480861
  entropy T*S    EENTRO =        -0.00000000
  eigenvalues    EBANDS =     -2632.33264789
  atomic energy  EATOM  =      8369.52358910
  ---------------------------------------------------
  free energy    TOTEN  =      -484.78620637 eV

  energy without entropy =     -484.78620637  energy(sigma->0) =     -484.78620637


--------------------------------------------------------------------------------------------------------




--------------------------------------- Iteration      1(  19)  ---------------------------------------


    POTLOK:  cpu time    0.3731: real time    0.3756
    SETDIJ:  cpu time    0.0027: real time    0.0027
    TRIAL :  cpu time    2.6798: real time    2.7055
    CORREC:  cpu time    1.0541: real time    1.0636
    CHARGE:  cpu time    0.3106: real time    0.3129
    --------------------------------------------
      LOOP:  cpu time    4.4547: real time    4.4953

 eigenvalue-minimisations  :     0
 total energy-change (2. order) :-0.1354721E-04  (-0.5000164E-05)
 number of electron     216.0000000 magnetization 
 augmentation part       -0.4366939 magnetization 

 Free energy of the ion-electron system (eV)
  ---------------------------------------------------
  alpha Z        PSCENC =        47.94900195
  Ewald energy   TEWEN  =     46249.24210674
  -Hartree energ DENC   =    -53231.33182955
  -exchange      EXHF   =         0.00000000
  -V(xc)+E(xc)   XCENC  =       451.37488235
  PAW double counting   =    112455.83453233  -112195.07025288
  entropy T*S    EENTRO =        -0.00000000
  eigenvalues    EBANDS =     -2632.30824996
  atomic energy  EATOM  =      8369.52358910
  ---------------------------------------------------
  free energy    TOTEN  =      -484.78621992 eV

  energy without entropy =     -484.78621992  energy(sigma->0) =     -484.78621992


--------------------------------------------------------------------------------------------------------




--------------------------------------- Iteration      1(  20)  ---------------------------------------


    POTLOK:  cpu time    0.3699: real time    0.3724
    SETDIJ:  cpu time    0.0027: real time    0.0028
    TRIAL :  cpu time    2.6782: real time    2.7034
    CORREC:  cpu time    1.0516: real time    1.0634
    CHARGE:  cpu time    0.3110: real time    0.3134
    --------------------------------------------
      LOOP:  cpu time    4.4674: real time    4.5105

 eigenvalue-minimisations  :     0
 total energy-change (2. order) :-0.4771267E-05  (-0.1874942E-05)
 number of electron     216.0000000 magnetization 
 augmentation part       -0.4367091 magnetization 

 Free energy of the ion-electron system (eV)
  ---------------------------------------------------
  alpha Z        PSCENC =        47.94900195
  Ewald energy   TEWEN  =     46249.24210674
  -Hartree energ DENC   =    -53231.32685813
  -exchange      EXHF   =         0.00000000
  -V(xc)+E(xc)   XCENC  =       451.37423761
  PAW double counting   =    112461.69269897  -112200.92810517
  entropy T*S    EENTRO =        -0.00000000
  eigenvalues    EBANDS =     -2632.31289577
  atomic energy  EATOM  =      8369.52358910
  ---------------------------------------------------
  free energy    TOTEN  =      -484.78622469 eV

  energy without entropy =     -484.78622469  energy(sigma->0) =     -484.78622469


--------------------------------------------------------------------------------------------------------




--------------------------------------- Iteration      1(  21)  ---------------------------------------


    POTLOK:  cpu time    0.3743: real time    0.3769
    SETDIJ:  cpu time    0.0028: real time    0.0028
    TRIAL :  cpu time    2.6745: real time    2.7033
    CORREC:  cpu time    1.0535: real time    1.0625
    CHARGE:  cpu time    0.3105: real time    0.3129
    --------------------------------------------
      LOOP:  cpu time    4.4518: real time    4.4997

 eigenvalue-minimisations  :     0
 total energy-change (2. order) :-0.1768407E-05  (-0.8356447E-06)
 number of electron     216.0000000 magnetization 
 augmentation part       -0.4367126 magnetization 

 Free energy of the ion-electron system (eV)
  ---------------------------------------------------
  alpha Z        PSCENC =        47.94900195
  Ewald energy   TEWEN  =     46249.24210674
  -Hartree energ DENC   =    -53231.34099015
  -exchange      EXHF   =         0.00000000
  -V(xc)+E(xc)   XCENC  =       451.37486618
  PAW double counting   =    112463.64567965  -112202.88118077
  entropy T*S    EENTRO =        -0.00000000
  eigenvalues    EBANDS =     -2632.29929916
  atomic energy  EATOM  =      8369.52358910
  ---------------------------------------------------
  free energy    TOTEN  =      -484.78622646 eV

  energy without entropy =     -484.78622646  energy(sigma->0) =     -484.78622646


--------------------------------------------------------------------------------------------------------




--------------------------------------- Iteration      1(  22)  ---------------------------------------


    POTLOK:  cpu time    0.3731: real time    0.3757
    SETDIJ:  cpu time    0.0030: real time    0.0030
    TRIAL :  cpu time    2.6779: real time    2.7027
    CORREC:  cpu time    1.0560: real time    1.0651
    EDDIAG:  cpu time    0.5925: real time    0.6007
    CHARGE:  cpu time    0.3164: real time    0.3192
    --------------------------------------------
      LOOP:  cpu time    5.0519: real time    5.1377

 eigenvalue-minimisations  :     0
 total energy-change (2. order) :-0.8029892E-06  (-0.3676820E-06)
 number of electron     216.0000000 magnetization 
 augmentation part       -0.4367091 magnetization 

 Free energy of the ion-electron system (eV)
  ---------------------------------------------------
  alpha Z        PSCENC =        47.94900195
  Ewald energy   TEWEN  =     46249.24210674
  -Hartree energ DENC   =    -53231.33545089
  -exchange      EXHF   =         0.00000000
  -V(xc)+E(xc)   XCENC  =       451.37463260
  PAW double counting   =    112463.19429917  -112202.42982143
  entropy T*S    EENTRO =        -0.00000000
  eigenvalues    EBANDS =     -2632.30458450
  atomic energy  EATOM  =      8369.52358910
  ---------------------------------------------------
  free energy    TOTEN  =      -484.78622726 eV

  energy without entropy =     -484.78622726  energy(sigma->0) =     -484.78622726


--------------------------------------------------------------------------------------------------------


  average scaling for gradient   0.9465


 average (electrostatic) potential at core
  the test charge radii are     0.5770  0.5955
  (the norm of the test charge is              1.0000)
       1 -85.6390       2 -85.6364       3 -85.6424       4 -85.6474       5 -85.6337
       6 -85.6318       7 -85.6410       8 -85.6345       9 -85.6351      10 -85.6402
      11 -85.6328      12 -85.6347      13 -85.6395      14 -85.6347      15 -85.6316
      16 -85.6323      17 -85.6353      18 -85.6370      19 -85.6385      20 -85.6354
      21 -85.6306      22 -85.6306      23 -85.6497      24 -85.6488      25 -85.6322
      26 -85.6337      27 -85.6358      28 -85.6407      29 -85.6317      30 -85.6322
      31 -85.6449      32 -85.6405      33 -85.6354      34 -85.6333      35 -85.6328
      36 -85.6343      37 -85.6362      38 -85.6379      39 -85.6381      40 -85.6372
      41 -85.6375      42 -85.6392      43 -85.6352      44 -85.6388      45 -85.6321
      46 -85.6321      47 -85.6344      48 -85.6330      49 -85.6373      50 -85.6358
      51 -89.5602      52-120.3388      53-120.3390
 
 
 
 E-fermi :  -4.2499     XC(G=0):  -1.8951     alpha+bet : -1.6890

 Fermi energy:        -4.2498704480

 k-point     1 :       0.0000    0.0000    0.0000
  band No.  band energies     occupation 
      1     -27.6602      2.00000
      2     -26.6552      2.00000
      3     -22.3863      2.00000
      4     -21.4504      2.00000
      5     -21.4482      2.00000
      6     -21.4450      2.00000
      7     -21.4445      2.00000
      8     -21.4426      2.00000
      9     -21.4426      2.00000
     10     -19.6026      2.00000
     11     -19.6024      2.00000
     12     -19.6013      2.00000
     13     -19.6008      2.00000
     14     -19.6003      2.00000
     15     -19.6001      2.00000
     16     -18.7040      2.00000
     17     -18.7037      2.00000
     18     -18.7035      2.00000
     19     -18.7031      2.00000
     20     -18.7027      2.00000
     21     -18.7023      2.00000
     22     -16.5367      2.00000
     23     -16.5364      2.00000
     24     -16.5359      2.00000
     25     -16.5353      2.00000
     26     -16.5330      2.00000
     27     -16.5328      2.00000
     28     -15.5505      2.00000
     29     -15.5503      2.00000
     30     -15.5491      2.00000
     31     -15.5489      2.00000
     32     -15.5486      2.00000
     33     -15.5485      2.00000
     34     -14.1965      2.00000
     35     -14.1964      2.00000
     36     -14.1961      2.00000
     37     -14.1958      2.00000
     38     -14.1958      2.00000
     39     -14.1950      2.00000
     40     -12.4657      2.00000
     41     -11.8074      2.00000
     42     -11.8073      2.00000
     43     -11.8066      2.00000
     44     -11.8066      2.00000
     45     -11.8061      2.00000
     46     -11.8061      2.00000
     47     -11.7115      2.00000
     48     -11.7114      2.00000
     49     -11.7102      2.00000
     50     -11.7101      2.00000
     51     -11.7085      2.00000
     52     -11.7082      2.00000
     53     -11.2769      2.00000
     54     -11.2158      2.00000
     55     -11.2100      2.00000
     56     -10.4759      2.00000
     57     -10.3331      2.00000
     58     -10.3329      2.00000
     59     -10.3323      2.00000
     60     -10.3321      2.00000
     61     -10.3314      2.00000
     62     -10.3313      2.00000
     63      -9.3672      2.00000
     64      -9.3652      2.00000
     65      -9.3598      2.00000
     66      -9.3595      2.00000
     67      -9.3566      2.00000
     68      -9.3560      2.00000
     69      -9.0550      2.00000
     70      -9.0532      2.00000
     71      -9.0530      2.00000
     72      -9.0515      2.00000
     73      -9.0512      2.00000
     74      -9.0510      2.00000
     75      -9.0052      2.00000
     76      -9.0051      2.00000
     77      -9.0048      2.00000
     78      -9.0039      2.00000
     79      -9.0031      2.00000
     80      -9.0025      2.00000
     81      -7.6691      2.00000
     82      -7.6646      2.00000
     83      -7.3970      2.00000
     84      -7.3968      2.00000
     85      -7.3964      2.00000
     86      -7.3962      2.00000
     87      -7.3933      2.00000
     88      -7.3933      2.00000
     89      -7.2353      2.00000
     90      -7.2349      2.00000
     91      -7.2306      2.00000
     92      -7.2294      2.00000
     93      -7.2293      2.00000
     94      -7.2262      2.00000
     95      -6.3388      2.00000
     96      -6.3371      2.00000
     97      -6.3363      2.00000
     98      -6.3333      2.00000
     99      -6.3329      2.00000
    100      -6.3323      2.00000
    101      -5.9080      2.00000
    102      -5.9058      2.00000
    103      -4.3556      2.00000
    104      -4.3547      2.00000
    105      -4.3531      2.00000
    106      -4.3523      2.00000
    107      -4.3487      2.00000
    108      -4.3484      2.00000
    109      -1.5528      0.00000
    110      -1.5526      0.00000
    111      -1.5487      0.00000
    112      -1.5484      0.00000
    113      -1.5472      0.00000
    114      -1.5468      0.00000
    115       0.1198      0.00000
    116       0.3112      0.00000
    117       0.3119      0.00000
    118       0.3132      0.00000
    119       0.3160      0.00000
    120       0.3164      0.00000
    121       0.3193      0.00000
    122       0.7431      0.00000
    123       0.8258      0.00000
    124       0.8747      0.00000
    125       1.3706      0.00000
    126       1.4586      0.00000
    127       1.5693      0.00000
    128       1.6617      0.00000
    129       1.6686      0.00000
    130       1.6762      0.00000
    131       1.6911      0.00000
    132       2.0177      0.00000
    133       2.0542      0.00000
    134       2.0562      0.00000
    135       2.0583      0.00000
    136       2.0610      0.00000
    137       2.0727      0.00000
    138       2.2668      0.00000
    139       2.4600      0.00000
    140       2.9999      0.00000


--------------------------------------------------------------------------------------------------------


 soft charge-density along one line, spin component           1
         0         1         2         3         4         5         6         7         8         9
 total charge-density along one line
 
 pseudopotential strength for first ion, spin component:           1
 12.703  21.376  -0.000   0.000   0.000  -0.000   0.000   0.000
 21.376  35.970  -0.000   0.000   0.000  -0.000   0.000   0.000
 -0.000  -0.000  -3.170  -0.000   0.000  -5.681  -0.000   0.000
  0.000   0.000  -0.000  -3.171  -0.000  -0.000  -5.683  -0.000
  0.000   0.000   0.000  -0.000  -3.170   0.000  -0.000  -5.681
 -0.000  -0.000  -5.681  -0.000   0.000 -10.161  -0.000   0.000
  0.000   0.000  -0.000  -5.683  -0.000  -0.000 -10.164  -0.000
  0.000   0.000   0.000  -0.000  -5.681   0.000  -0.000 -10.161
 total augmentation occupancy for first ion, spin component:           1
  7.879  -2.765  -0.000  -0.002   0.000   0.000   0.001  -0.000
 -2.765   1.007   0.000   0.001  -0.000  -0.000  -0.000   0.000
 -0.000   0.000   7.264  -0.008   0.000  -2.462   0.003  -0.000
 -0.002   0.001  -0.008   3.234  -0.000   0.003  -0.862   0.000
  0.000  -0.000   0.000  -0.000   7.263  -0.000   0.000  -2.462
  0.000  -0.000  -2.462   0.003  -0.000   0.849  -0.001   0.000
  0.001  -0.000   0.003  -0.862   0.000  -0.001   0.236  -0.000
 -0.000   0.000  -0.000   0.000  -2.462   0.000  -0.000   0.849


------------------------ aborting loop because EDIFF is reached ----------------------------------------


    FORLOC:  cpu time    0.0664: real time    0.0670
    FORNL :  cpu time    1.0733: real time    1.0864
    FORCOR:  cpu time    0.3930: real time    0.3964
    OFIELD:  cpu time    0.0016: real time    0.0016

 VOLUME and BASIS-vectors are now :
 -----------------------------------------------------------------------------
  energy-cutoff  :     1000.00
  volume of cell :     3288.85
      direct lattice vectors                 reciprocal lattice vectors
    12.325000000  0.000000000  0.000000000     0.081135903  0.046843835  0.000000000
    -6.162500000 10.673763102  0.000000000     0.000000000  0.093687670  0.000000000
     0.000000000  0.000000000 25.000000000     0.000000000  0.000000000  0.040000000

  length of vectors
    12.325000000 12.325000000 25.000000000     0.093687670  0.093687670  0.040000000


 FORCES acting on ions:
    Electron-Ion                     Ewald-Force                    Non-Local-Force
 -----------------------------------------------------------------------------------------------
   0.757E+01 0.662E+01 0.256E+02   -.758E+01 -.661E+01 -.256E+02   0.114E-01 -.237E-02 0.898E-02
   0.118E+02 0.575E+01 0.312E+02   -.118E+02 -.575E+01 -.312E+02   0.154E-01 -.771E-02 -.782E-02
   0.543E+01 0.142E+02 0.363E+02   -.543E+01 -.142E+02 -.363E+02   -.169E-02 0.298E-01 0.148E-01
   0.786E+01 0.114E+02 0.508E+02   -.788E+01 -.114E+02 -.509E+02   0.293E-01 0.991E-02 0.294E-01
   0.816E+01 0.192E+01 0.258E+02   -.816E+01 -.192E+01 -.258E+02   0.407E-02 -.122E-01 -.387E-02
   0.847E+01 -.153E+01 0.262E+02   -.846E+01 0.154E+01 -.262E+02   -.107E-01 -.306E-04 -.132E-01
   0.142E+02 0.540E+01 0.457E+02   -.142E+02 -.538E+01 -.457E+02   0.344E-01 -.348E-01 0.753E-03
   0.138E+02 -.482E+01 0.476E+02   -.138E+02 0.484E+01 -.476E+02   0.984E-02 -.189E-01 -.263E-01
   -.624E+01 0.129E+02 0.367E+02   0.626E+01 -.129E+02 -.367E+02   -.129E-01 -.396E-02 -.183E-01
   -.104E+02 0.877E+01 0.492E+02   0.104E+02 -.880E+01 -.491E+02   -.526E-01 0.323E-01 -.406E-03
   0.206E+01 -.191E+01 0.219E+02   -.205E+01 0.190E+01 -.219E+02   -.830E-03 -.291E-03 -.514E-02
   0.169E+01 -.139E+01 0.207E+02   -.169E+01 0.139E+01 -.207E+02   -.125E-01 0.550E-02 0.206E-02
   0.547E+01 -.122E+02 0.525E+02   -.551E+01 0.122E+02 -.525E+02   0.552E-01 -.242E-01 -.498E-02
   0.279E+01 -.142E+02 0.372E+02   -.281E+01 0.142E+02 -.371E+02   0.170E-01 -.126E-02 -.268E-01
   -.729E+01 0.455E+01 0.251E+02   0.729E+01 -.455E+01 -.251E+02   0.102E-01 -.494E-02 -.426E-02
   -.104E+02 0.302E+01 0.281E+02   0.104E+02 -.302E+01 -.281E+02   -.532E-02 0.105E-01 -.190E-01
   -.118E+01 -.476E+00 0.200E+02   0.119E+01 0.472E+00 -.200E+02   -.539E-02 0.180E-02 0.945E-03
   0.606E+00 0.424E+01 0.210E+02   -.601E+00 -.424E+01 -.210E+02   -.684E-02 0.372E-02 0.891E-02
   -.209E+01 -.125E+02 0.303E+02   0.208E+01 0.125E+02 -.303E+02   0.163E-01 -.733E-02 0.185E-02
   -.984E+00 -.648E+01 0.228E+02   0.975E+00 0.649E+01 -.228E+02   0.501E-02 -.514E-02 -.201E-02
   0.119E+02 -.523E+01 0.331E+02   -.119E+02 0.524E+01 -.330E+02   0.116E-02 -.690E-02 -.373E-01
   0.748E+01 -.636E+01 0.276E+02   -.748E+01 0.636E+01 -.276E+02   -.886E-02 0.881E-02 -.160E-01
   -.267E+01 0.544E+01 0.602E+02   0.269E+01 -.546E+01 -.602E+02   -.264E-01 0.250E-01 0.585E-01
   -.402E+01 -.858E+01 0.582E+02   0.401E+01 0.860E+01 -.582E+02   0.212E-01 -.343E-01 0.429E-01
   0.367E+01 -.156E+01 0.220E+02   -.366E+01 0.155E+01 -.220E+02   -.267E-02 -.235E-03 -.931E-02
   0.736E+00 0.326E+01 0.222E+02   -.730E+00 -.326E+01 -.222E+02   -.106E-01 0.587E-02 0.151E-03
   -.146E+02 0.189E+01 0.394E+02   0.146E+02 -.190E+01 -.394E+02   -.252E-02 0.179E-01 -.151E-01
   -.138E+02 -.566E+01 0.368E+02   0.138E+02 0.564E+01 -.368E+02   -.257E-01 0.185E-01 0.560E-02
   0.451E+01 -.913E+01 0.286E+02   -.452E+01 0.913E+01 -.286E+02   0.112E-01 0.300E-02 -.196E-01
   0.414E+00 -.359E+01 0.232E+02   -.420E+00 0.358E+01 -.232E+02   -.139E-02 0.471E-02 -.872E-02
   -.107E+02 -.113E+02 0.433E+02   0.107E+02 0.114E+02 -.433E+02   -.284E-01 -.177E-01 0.162E-01
   -.661E+01 -.121E+02 0.318E+02   0.661E+01 0.121E+02 -.319E+02   0.475E-03 -.152E-01 0.118E-01
   0.455E+00 0.182E+01 0.206E+02   -.460E+00 -.182E+01 -.206E+02   0.101E-01 -.706E-02 0.410E-02
   0.124E+01 0.182E+01 0.218E+02   -.124E+01 -.182E+01 -.218E+02   -.273E-03 0.137E-02 -.556E-02
   -.512E+01 0.704E+00 0.234E+02   0.512E+01 -.708E+00 -.234E+02   0.591E-02 -.134E-03 -.106E-02
   -.446E+01 -.182E+01 0.229E+02   0.446E+01 0.181E+01 -.229E+02   -.937E-02 0.615E-02 -.130E-02
   -.890E+01 -.462E+01 0.260E+02   0.891E+01 0.462E+01 -.260E+02   -.111E-01 0.288E-02 0.168E-02
   -.535E+01 -.431E+01 0.226E+02   0.535E+01 0.431E+01 -.226E+02   -.923E-02 0.218E-02 0.989E-02
   -.496E+01 -.645E+01 0.239E+02   0.497E+01 0.645E+01 -.239E+02   -.841E-02 -.391E-02 0.760E-02
   -.741E+00 -.158E+01 0.211E+02   0.741E+00 0.158E+01 -.211E+02   0.274E-02 -.142E-02 0.845E-02
   0.186E+01 0.453E+01 0.218E+02   -.186E+01 -.454E+01 -.218E+02   -.482E-02 0.645E-02 0.816E-02
   0.600E+01 0.941E+01 0.268E+02   -.601E+01 -.941E+01 -.268E+02   0.627E-02 0.585E-02 0.131E-01
   0.496E+00 0.789E+01 0.236E+02   -.487E+00 -.790E+01 -.236E+02   -.616E-02 0.638E-02 -.661E-03
   -.512E-01 0.137E+02 0.322E+02   0.684E-01 -.137E+02 -.322E+02   -.211E-01 0.982E-02 0.492E-02
   -.149E+01 0.293E+01 0.231E+02   0.150E+01 -.293E+01 -.231E+02   0.220E-02 -.443E-02 -.580E-02
   -.608E+01 0.763E+01 0.273E+02   0.609E+01 -.763E+01 -.272E+02   -.114E-01 0.132E-02 -.147E-01
   -.115E+01 -.314E+01 0.217E+02   0.114E+01 0.314E+01 -.217E+02   0.119E-01 -.275E-02 0.178E-02
   -.289E+01 0.114E+01 0.210E+02   0.288E+01 -.114E+01 -.210E+02   0.207E-02 0.138E-02 -.779E-02
   0.256E+00 -.196E+01 0.208E+02   -.259E+00 0.196E+01 -.208E+02   0.731E-02 -.415E-02 0.593E-02
   0.309E+01 0.225E+01 0.210E+02   -.310E+01 -.225E+01 -.210E+02   0.528E-02 0.102E-02 0.296E-02
   0.609E-01 -.411E-01 -.375E+03   -.617E-01 0.426E-01 0.375E+03   -.427E-02 0.278E-02 -.706E-02
   -.229E+03 0.156E+03 -.575E+03   0.279E+03 -.190E+03 0.578E+03   -.511E+02 0.347E+02 -.340E+01
   0.229E+03 -.156E+03 -.553E+03   -.279E+03 0.190E+03 0.550E+03   0.511E+02 -.348E+02 0.311E+01
 -----------------------------------------------------------------------------------------------
   0.251E-02 0.819E-02 0.302E+00   0.114E-12 -.114E-12 0.000E+00   -.272E-02 -.792E-02 -.301E+00
 
 
 POSITION                                       TOTAL-FORCE (eV/Angst)
 -----------------------------------------------------------------------------------
     11.98348      0.00342      0.01417         0.002526     -0.000404     -0.001392
     -0.34154      1.42665      0.01100        -0.002513     -0.000187     -0.003078
      2.12355      0.00315      0.01249        -0.000611      0.003790     -0.005324
      2.12326      1.42653      0.00641         0.005396     -0.001280     -0.004877
     10.75099      2.13819      0.01213         0.000389     -0.004688      0.000150
     -1.57382      3.56123      0.01110        -0.006269      0.005782     -0.001469
      0.89078      2.13854      0.00548         0.003501     -0.012044      0.002039
      0.89099      3.56147      0.00181        -0.013384      0.000625      0.009836
      4.58864      0.00346      0.01135         0.005174     -0.015119     -0.003904
      4.58894      1.42623      0.00646        -0.013334      0.007328      0.012905
      9.51854      4.27281      0.01369         0.007119     -0.004283      0.000144
     -2.80632      5.69591      0.01434        -0.006452      0.003424      0.000883
      2.12300      4.27302      0.00000         0.014081     -0.000605      0.018410
      2.12335      5.69594      0.00581        -0.002120      0.008919     -0.002739
      7.05344      0.00333      0.01399         0.007776     -0.004087     -0.000269
      7.05353      1.42635      0.01368        -0.002280      0.004307     -0.003579
      8.28610      6.40752      0.01601         0.003472     -0.001562     -0.000717
     -4.03885      7.83070      0.01636        -0.001694      0.001230     -0.000183
      3.35586      6.40753      0.01007         0.002685      0.000317     -0.001679
      3.35599      7.83072      0.01320        -0.003336      0.000709     -0.000461
     -0.34146      4.27290      0.00723        -0.000370     -0.001726     -0.004285
     -0.34138      5.69591      0.00946        -0.007887      0.004332     -0.000883
      3.35624      2.13791      0.00222        -0.006307      0.005817      0.019166
      3.35573      3.56155      0.00139         0.008540     -0.007760      0.011366
     -1.57395      6.40758      0.01311         0.007253     -0.004319     -0.000725
     -1.57385      7.83068      0.01438        -0.004635      0.003825      0.000172
      5.82093      2.13784      0.01033         0.016168      0.002625     -0.003644
      5.82114      3.56097      0.01156        -0.002880      0.004703     -0.003842
      0.89092      6.40755      0.00907         0.004078      0.001086     -0.001901
      0.89106      7.83068      0.01235        -0.007370      0.002070      0.000240
      4.58871      4.27293      0.00850        -0.005180     -0.003385     -0.008563
      4.58852      5.69606      0.01149         0.001620      0.002833     -0.003627
      9.51845      0.00337      0.01490         0.004663     -0.004735      0.000248
      9.51855      1.42644      0.01438        -0.004695      0.006575     -0.000410
      8.28593      2.13803      0.01453         0.004836     -0.004241      0.000536
      8.28613      3.56115      0.01464        -0.004197      0.001782      0.000052
      7.05356      4.27269      0.01457         0.003888     -0.000682     -0.000450
      7.05362      5.69588      0.01553        -0.002221      0.000815     -0.000272
      5.82112      6.40755      0.01489        -0.001719      0.001968     -0.000150
      5.82102      7.83073      0.01579         0.002377      0.000756     -0.000365
      7.05363      8.54227      0.01631        -0.004223      0.000229      0.001023
     -5.27149      9.96549      0.01495        -0.001347     -0.002843     -0.002288
     -2.80638      8.54234      0.01558         0.003315     -0.001991     -0.001053
     -2.80627      9.96553      0.01362        -0.003383     -0.000299     -0.004162
     -0.34149      8.54239      0.01378         0.005877     -0.003202      0.000203
     -0.34138      9.96550      0.01354        -0.005832      0.001009     -0.001105
      2.12343      8.54232      0.01336         0.005737     -0.001563      0.000874
      2.12354      9.96544      0.01469        -0.006634      0.004351     -0.001989
      4.58846      8.54235      0.01505         0.003482     -0.002981      0.000917
      4.58853      9.96550      0.01517        -0.003482      0.003156      0.000291
      3.04930      2.68154      3.96850        -0.004884      0.004144      0.020555
      4.02070      2.02068      4.03292        -0.525142      0.357458     -0.048837
      2.07767      3.34267      3.90905         0.530428     -0.361977      0.018212
 -----------------------------------------------------------------------------------
    total drift:                               -0.000218      0.000265      0.000661


--------------------------------------------------------------------------------------------------------



  FREE ENERGIE OF THE ION-ELECTRON SYSTEM (eV)
  ---------------------------------------------------
  free  energy   TOTEN  =      -484.78622726 eV

  energy  without entropy=     -484.78622726  energy(sigma->0) =     -484.78622726
 


--------------------------------------------------------------------------------------------------------


    POTLOK:  cpu time    0.3765: real time    0.3798


--------------------------------------------------------------------------------------------------------


     LOOP+:  cpu time  141.1672: real time  142.7176
    4ORBIT:  cpu time    0.0000: real time    0.0000

 total amount of memory used by VASP MPI-rank0   215378. kBytes
=======================================================================

   base      :      30000. kBytes
   nonl-proj :      57634. kBytes
   fftplans  :      45914. kBytes
   grid      :      67588. kBytes
   one-center:         43. kBytes
   wavefun   :      14199. kBytes
 
  
  
 General timing and accounting informations for this job:
 ========================================================
  
                  Total CPU time used (sec):      184.442
                            User time (sec):      170.372
                          System time (sec):       14.070
                         Elapsed time (sec):      187.384
  
                   Maximum memory used (kb):      585776.
                   Average memory used (kb):          N/A
  
                          Minor page faults:       220668
                          Major page faults:           94
                 Voluntary context switches:         3791
