 vasp.6.2.1 16May21 (build Nov 06 2021 14:46:37) complex                        
  
 executed on             LinuxIFC date 2025.04.16  17:22:04
 running on  112 total cores
 distrk:  each k-point on  112 cores,    1 groups
 distr:  one band on NCORE=   4 cores,   28 groups


--------------------------------------------------------------------------------------------------------


 INCAR:
   ALGO = Conjugate
   NCORE = 4
   ISMEAR = 0
   SIGMA = 0.01
   PREC = Accurate
   EDIFF = 1E-6
   ENCUT = 1000
   ISIF = 0
   LWAVE = .FALSE.
   LCHARGE = .FALSE.
   SYMPREC = 1E-6

 POTCAR:    PAW_PBE C_h 06Feb2004                 
 POTCAR:    PAW_PBE O_h 06Feb2004                 
 -----------------------------------------------------------------------------
|                                                                             |
|           W    W    AA    RRRRR   N    N  II  N    N   GGGG   !!!           |
|           W    W   A  A   R    R  NN   N  II  NN   N  G    G  !!!           |
|           W    W  A    A  R    R  N N  N  II  N N  N  G       !!!           |
|           W WW W  AAAAAA  RRRRR   N  N N  II  N  N N  G  GGG   !            |
|           WW  WW  A    A  R   R   N   NN  II  N   NN  G    G                |
|           W    W  A    A  R    R  N    N  II  N    N   GGGG   !!!           |
|                                                                             |
|     For optimal performance we recommend to set                             |
|       NCORE = 2 up to number-of-cores-per-socket                            |
|     NCORE specifies how many cores store one orbital (NPAR=cpu/NCORE).      |
|     This setting can greatly improve the performance of VASP for DFT.       |
|     The default, NCORE=1 might be grossly inefficient on modern             |
|     multi-core architectures or massively parallel machines. Do your        |
|     own testing! More info at https://www.vasp.at/wiki/index.php/NCORE      |
|     Unfortunately you need to use the default for GW and RPA                |
|     calculations (for HF NCORE is supported but not extensively tested      |
|     yet).                                                                   |
|                                                                             |
 -----------------------------------------------------------------------------

 POTCAR:    PAW_PBE C_h 06Feb2004                 
   VRHFIN =C: s2p2                                                                                  
   LEXCH  = PE                                                                                      
   EATOM  =   147.1560 eV,   10.8157 Ry                                                             
                                                                                                    
   TITEL  = PAW_PBE C_h 06Feb2004                                                                   
   LULTRA =        F    use ultrasoft PP ?                                                          
   IUNSCR =        1    unscreen: 0-lin 1-nonlin 2-no                                               
   RPACOR =    0.800    partial core radius                                                         
   POMASS =   12.011; ZVAL   =    4.000    mass and valenz                                          
   RCORE  =    1.100    outmost cutoff radius                                                       
   RWIGS  =    1.630; RWIGS  =    0.863    wigner-seitz radius (au A)                               
   ENMAX  =  700.000; ENMIN  =  500.000 eV                                                          
   ICORE  =        2    local potential                                                             
   LCOR   =        T    correct aug charges                                                         
   LPAW   =        T    paw PP                                                                      
   EAUG   =  946.768                                                                                
   DEXC   =    0.000                                                                                
   RMAX   =    1.128    core radius for proj-oper                                                   
   RAUG   =    1.300    factor for augmentation sphere                                              
   RDEP   =    1.162    radius for radial grids                                                     
   RDEPT  =    1.088    core radius for aug-charge                                                  
                                                                                                    
   Atomic configuration                                                                             
    4 entries                                                                                       
     n  l   j            E        occ.                                                              
     1  0  0.50      -273.3789   2.0000                                                             
     2  0  0.50       -13.7508   2.0000                                                             
     2  1  0.50        -5.2854   2.0000                                                             
     3  2  1.50        -5.4423   0.0000                                                             
   Description                                                                                      
     l       E           TYP  RCUT    TYP  RCUT                                                     
     0    -13.7508458     23  1.100                                                                 
     0     -8.2022199     23  1.100                                                                 
     1     -5.2854383     23  1.100                                                                 
     1      1.1560700     23  1.100                                                                 
     2     -5.4423304      7  1.100                                                                 
  local pseudopotential read in
  partial core-charges read in
  partial kinetic energy density read in
  atomic valenz-charges read in
  non local Contribution for L=           0  read in
    real space projection operators read in
  non local Contribution for L=           0  read in
    real space projection operators read in
  non local Contribution for L=           1  read in
    real space projection operators read in
  non local Contribution for L=           1  read in
    real space projection operators read in
    PAW grid and wavefunctions read in
 
   number of l-projection  operators is LMAX  =           4
   number of lm-projection operators is LMMAX =           8
 
 POTCAR:    PAW_PBE O_h 06Feb2004                 
   VRHFIN =O: s2p4                                                                                  
   LEXCH  = PE                                                                                      
   EATOM  =   432.3788 eV,   31.7789 Ry                                                             
                                                                                                    
   TITEL  = PAW_PBE O_h 06Feb2004                                                                   
   LULTRA =        F    use ultrasoft PP ?                                                          
   IUNSCR =        1    unscreen: 0-lin 1-nonlin 2-no                                               
   RPACOR =    0.800    partial core radius                                                         
   POMASS =   16.000; ZVAL   =    6.000    mass and valenz                                          
   RCORE  =    1.100    outmost cutoff radius                                                       
   RWIGS  =    1.400; RWIGS  =    0.741    wigner-seitz radius (au A)                               
   ENMAX  =  700.000; ENMIN  =  500.000 eV                                                          
   ICORE  =        2    local potential                                                             
   LCOR   =        T    correct aug charges                                                         
   LPAW   =        T    paw PP                                                                      
   EAUG   =  888.804                                                                                
   DEXC   =    0.000                                                                                
   RMAX   =    1.128    core radius for proj-oper                                                   
   RAUG   =    1.300    factor for augmentation sphere                                              
   RDEP   =    1.125    radius for radial grids                                                     
   RDEPT  =    1.088    core radius for aug-charge                                                  
                                                                                                    
   Atomic configuration                                                                             
    4 entries                                                                                       
     n  l   j            E        occ.                                                              
     1  0  0.50      -514.6923   2.0000                                                             
     2  0  0.50       -23.9615   2.0000                                                             
     2  1  0.50        -9.0305   4.0000                                                             
     3  2  1.50        -9.5241   0.0000                                                             
   Description                                                                                      
     l       E           TYP  RCUT    TYP  RCUT                                                     
     0    -23.9615319     23  1.100                                                                 
     0    -25.3221145     23  1.100                                                                 
     1     -9.0304911     23  1.100                                                                 
     1     -5.4802209     23  1.100                                                                 
     2     -9.5240782      7  1.100                                                                 
  local pseudopotential read in
  partial core-charges read in
  partial kinetic energy density read in
  atomic valenz-charges read in
  non local Contribution for L=           0  read in
    real space projection operators read in
  non local Contribution for L=           0  read in
    real space projection operators read in
  non local Contribution for L=           1  read in
    real space projection operators read in
  non local Contribution for L=           1  read in
    real space projection operators read in
    PAW grid and wavefunctions read in
 
   number of l-projection  operators is LMAX  =           4
   number of lm-projection operators is LMMAX =           8
 
 -----------------------------------------------------------------------------
|                                                                             |
|               ----> ADVICE to this user running VASP <----                  |
|                                                                             |
|     You have a (more or less) 'large supercell' and for larger cells it     |
|     might be more efficient to use real-space projection operators.         |
|     Therefore, try LREAL= Auto in the INCAR file.                           |
|     Mind: For very accurate calculation, you might also keep the            |
|     reciprocal projection scheme (i.e. LREAL=.FALSE.).                      |
|                                                                             |
 -----------------------------------------------------------------------------

  PAW_PBE C_h 06Feb2004                 :
 energy of atom  1       EATOM= -147.1560
 kinetic energy error for atom=    0.0031 (will be added to EATOM!!)
  PAW_PBE O_h 06Feb2004                 :
 energy of atom  2       EATOM= -432.3788
 kinetic energy error for atom=    0.0171 (will be added to EATOM!!)
 
 
 POSCAR:  C  O
  positions in cartesian coordinates
  No initial velocities read in
 exchange correlation table for  LEXCH =        8
   RHO(1)=    0.500       N(1)  =     2000
   RHO(2)=  100.500       N(2)  =     4000
 


--------------------------------------------------------------------------------------------------------


 ion  position               nearest neighbor table
   1  0.972  0.000  0.001-  50 1.42   2 1.42  42 1.42
   2  0.039  0.134  0.000-   5 1.42   7 1.42   1 1.42
   3  0.172  0.000  0.000-  42 1.42  44 1.42   4 1.42
   4  0.239  0.134  0.000-   7 1.42   3 1.42  23 1.42
   5  0.972  0.200  0.000-   6 1.42   2 1.42  34 1.42
   6  0.039  0.334  0.000-   5 1.42  21 1.42  11 1.42
   7  0.172  0.200  0.000-   8 1.42   2 1.42   4 1.42
   8  0.239  0.334  0.000-  13 1.42   7 1.42  21 1.42
   9  0.372  0.000  0.000-  10 1.42  44 1.42  46 1.42
  10  0.439  0.134  0.000-  27 1.42   9 1.42  23 1.42
  11  0.972  0.400  0.001-  12 1.42  36 1.42   6 1.42
  12  0.039  0.534  0.001-  25 1.42  11 1.42  17 1.42
  13  0.372  0.400  0.000-   8 1.42  14 1.42  24 1.42
  14  0.439  0.534  0.000-  13 1.42  29 1.42  19 1.42
  15  0.572  0.000  0.001-  46 1.42  16 1.42  48 1.42
  16  0.639  0.134  0.001-  15 1.42  35 1.42  27 1.42
  17  0.972  0.600  0.001-  38 1.42  18 1.42  12 1.42
  18  0.039  0.734  0.001-  43 1.42  41 1.42  17 1.42
  19  0.572  0.600  0.000-  14 1.42  20 1.42  32 1.42
  20  0.639  0.734  0.001-  49 1.42  19 1.42  47 1.42
  21  0.172  0.400  0.000-  22 1.42   8 1.42   6 1.42
  22  0.239  0.534  0.000-  21 1.42  29 1.42  25 1.42
  23  0.372  0.200  0.000-  10 1.42   4 1.42  24 1.42
  24  0.439  0.334  0.000-  13 1.42  31 1.42  23 1.42
  25  0.172  0.600  0.001-  26 1.42  12 1.42  22 1.42
  26  0.239  0.734  0.001-  25 1.42  45 1.42  43 1.42
  27  0.572  0.200  0.000-  10 1.42  28 1.42  16 1.42
  28  0.639  0.334  0.000-  27 1.42  37 1.42  31 1.42
  29  0.372  0.600  0.000-  22 1.42  14 1.42  30 1.42
  30  0.439  0.734  0.000-  47 1.42  29 1.42  45 1.42
  31  0.572  0.400  0.000-  32 1.42  28 1.42  24 1.42
  32  0.639  0.534  0.000-  31 1.42  39 1.42  19 1.42
  33  0.772  0.000  0.001-  34 1.42  48 1.42  50 1.42
  34  0.839  0.134  0.001-  33 1.42   5 1.42  35 1.42
  35  0.772  0.200  0.001-  36 1.42  16 1.42  34 1.42
  36  0.839  0.334  0.001-  35 1.42  11 1.42  37 1.42
  37  0.772  0.400  0.001-  28 1.42  38 1.42  36 1.42
  38  0.839  0.534  0.001-  17 1.42  37 1.42  39 1.42
  39  0.772  0.600  0.001-  40 1.42  38 1.42  32 1.42
  40  0.839  0.734  0.001-  39 1.42  49 1.42  41 1.42
  41  0.972  0.800  0.001-  18 1.42  42 1.42  40 1.42
  42  0.039  0.934  0.001-   3 1.42  41 1.42   1 1.42
  43  0.172  0.800  0.001-  18 1.42  44 1.42  26 1.42
  44  0.239  0.934  0.001-   9 1.42  43 1.42   3 1.42
  45  0.372  0.800  0.001-  26 1.42  46 1.42  30 1.42
  46  0.439  0.934  0.001-  15 1.42  45 1.42   9 1.42
  47  0.572  0.800  0.001-  30 1.42  48 1.42  20 1.42
  48  0.639  0.934  0.001-  47 1.42  33 1.42  15 1.42
  49  0.772  0.800  0.001-  50 1.42  20 1.42  40 1.42
  50  0.839  0.934  0.001-  49 1.42   1 1.42  33 1.42
  51  0.373  0.251  0.189-  52 1.18  53 1.18
  52  0.421  0.189  0.191-  51 1.18
  53  0.325  0.313  0.186-  51 1.18
 
  LATTYP: Found a hexagonal cell.
 ALAT       =    12.3250000000
 C/A-ratio  =     2.0283975659
  
  Lattice vectors:
  
 A1 = (  12.3250000000,   0.0000000000,   0.0000000000)
 A2 = (  -6.1625000000,  10.6737631016,   0.0000000000)
 A3 = (   0.0000000000,   0.0000000000,  25.0000000000)


Analysis of symmetry for initial positions (statically):
=====================================================================
 Subroutine PRICEL returns:
 Original cell was already a primitive cell.
 

 Routine SETGRP: Setting up the symmetry group for a 
 hexagonal supercell.


 Subroutine GETGRP returns: Found  1 space group operations
 (whereof  1 operations were pure point group operations)
 out of a pool of 24 trial point group operations.


The static configuration has the point symmetry C_1 .


Analysis of symmetry for dynamics (positions and initial velocities):
=====================================================================
 Subroutine PRICEL returns:
 Original cell was already a primitive cell.
 

 Routine SETGRP: Setting up the symmetry group for a 
 hexagonal supercell.


 Subroutine GETGRP returns: Found  1 space group operations
 (whereof  1 operations were pure point group operations)
 out of a pool of 24 trial point group operations.


The dynamic configuration has the point symmetry C_1 .


 Subroutine INISYM returns: Found  1 space group operations
 (whereof  1 operations are pure point group operations),
 and found     1 'primitive' translations


----------------------------------------------------------------------------------------

                                     Primitive cell                                     

  volume of cell :    3288.8533

  direct lattice vectors                    reciprocal lattice vectors
    12.325000000  0.000000000  0.000000000     0.081135903  0.046843835  0.000000000
    -6.162500000 10.673763102  0.000000000     0.000000000  0.093687670  0.000000000
     0.000000000  0.000000000 25.000000000     0.000000000  0.000000000  0.040000000

  length of vectors
    12.325000000 12.325000000 25.000000000     0.093687670  0.093687670  0.040000000

  position of ions in fractional coordinates (direct lattice)
     0.972450841  0.000320818  0.000566711
     0.039118382  0.133659505  0.000440173
     0.172443627  0.000295449  0.000499628
     0.239096278  0.133647917  0.000256468
     0.972452058  0.200322012  0.000485219
     0.039128360  0.333643771  0.000444150
     0.172451764  0.200354552  0.000219167
     0.239124359  0.333665720  0.000072260
     0.372465565  0.000324403  0.000453913
     0.439137473  0.133619939  0.000258338
     0.972449824  0.400309362  0.000547611
     0.039124981  0.533636789  0.000573410
     0.372416176  0.400329481  0.000000000
     0.439099602  0.533638981  0.000232414
     0.572443676  0.000312125  0.000559580
     0.639110207  0.133631751  0.000547275
     0.972452703  0.600305653  0.000640289
     0.039124495  0.733640359  0.000654513
     0.572433471  0.600306242  0.000402895
     0.639111888  0.733641879  0.000527905
     0.172454630  0.400318228  0.000289045
     0.239120185  0.533636548  0.000378509
     0.372459750  0.200295993  0.000088997
     0.439107096  0.333673419  0.000055762
     0.172452155  0.600311506  0.000524340
     0.239123371  0.733638574  0.000575129
     0.572431082  0.200289171  0.000413296
     0.639112773  0.333618630  0.000462376
     0.372439808  0.600308022  0.000362844
     0.439116090  0.733637858  0.000494190
     0.572469358  0.400320504  0.000339918
     0.639119408  0.533650873  0.000459610
     0.772445723  0.000315427  0.000596161
     0.839116277  0.133640203  0.000575306
     0.772440513  0.200307432  0.000581033
     0.839120241  0.333635728  0.000585467
     0.772446320  0.400298367  0.000582978
     0.839118980  0.533633964  0.000621100
     0.772456143  0.600308173  0.000595712
     0.839115033  0.733643180  0.000631512
     0.972455313  0.800305582  0.000652233
     0.039114714  0.933643289  0.000598051
     0.172457971  0.800312211  0.000623372
     0.239134551  0.933647193  0.000544850
     0.372451396  0.800316674  0.000551399
     0.439124489  0.933644769  0.000541430
     0.572441101  0.800310054  0.000534535
     0.639115067  0.933638985  0.000587644
     0.772445098  0.800313187  0.000602062
     0.839116614  0.933644338  0.000606830
     0.373021009  0.251226878  0.188774862
     0.420879805  0.189313152  0.191351737
     0.325156981  0.313167186  0.186396668

  ion indices of the primitive-cell ions
   primitive index   ion index
                 1           1
                 2           2
                 3           3
                 4           4
                 5           5
                 6           6
                 7           7
                 8           8
                 9           9
                10          10
                11          11
                12          12
                13          13
                14          14
                15          15
                16          16
                17          17
                18          18
                19          19
                20          20
                21          21
                22          22
                23          23
                24          24
                25          25
                26          26
                27          27
                28          28
                29          29
                30          30
                31          31
                32          32
                33          33
                34          34
                35          35
                36          36
                37          37
                38          38
                39          39
                40          40
                41          41
                42          42
                43          43
                44          44
                45          45
                46          46
                47          47
                48          48
                49          49
                50          50
                51          51
                52          52
                53          53

----------------------------------------------------------------------------------------

 
 
 KPOINTS: auto                                    

Automatic generation of k-mesh.
 Grid dimensions read from file:
 generate k-points for:    1    1    1

 Generating k-lattice:

  Cartesian coordinates                     Fractional coordinates (reciprocal lattice)
     0.081135903  0.046843835  0.000000000     1.000000000 -0.000000000  0.000000000
     0.000000000  0.093687670  0.000000000     0.000000000  1.000000000  0.000000000
     0.000000000  0.000000000  0.040000000     0.000000000  0.000000000  1.000000000

  Length of vectors
     0.093687670  0.093687670  0.040000000

  Shift w.r.t. Gamma in fractional coordinates (k-lattice)
     0.000000000  0.000000000  0.000000000

 
 Subroutine IBZKPT returns following result:
 ===========================================
 
 Found      1 irreducible k-points:
 
 Following reciprocal coordinates:
            Coordinates               Weight
  0.000000  0.000000  0.000000      1.000000
 
 Following cartesian coordinates:
            Coordinates               Weight
  0.000000  0.000000  0.000000      1.000000
 


--------------------------------------------------------------------------------------------------------




 Dimension of arrays:
   k-points           NKPTS =      1   k-points in BZ     NKDIM =      1   number of bands    NBANDS=    140
   number of dos      NEDOS =    301   number of ions     NIONS =     53
   non local maximal  LDIM  =      4   non local SUM 2l+1 LMDIM =      8
   total plane-waves  NPLWV = ******
   max r-space proj   IRMAX =      1   max aug-charges    IRDMAX=  10008
   dimension x,y,z NGX =   128 NGY =  128 NGZ =  270
   dimension x,y,z NGXF=   256 NGYF=  256 NGZF=  540
   support grid    NGXF=   256 NGYF=  256 NGZF=  540
   ions per type =              51   2
   NGX,Y,Z   is equivalent  to a cutoff of  17.27, 17.27, 17.95 a.u.
   NGXF,Y,Z  is equivalent  to a cutoff of  34.53, 34.53, 35.91 a.u.

 SYSTEM =  unknown system                          
 POSCAR =   C  O                                   

 Startparameter for this run:
   NWRITE =      2    write-flag & timer
   PREC   = accura    normal or accurate (medium, high low for compatibility)
   ISTART =      0    job   : 0-new  1-cont  2-samecut
   ICHARG =      2    charge: 1-file 2-atom 10-const
   ISPIN  =      1    spin polarized calculation?
   LNONCOLLINEAR =      F non collinear calculations
   LSORBIT =      F    spin-orbit coupling
   INIWAV =      1    electr: 0-lowe 1-rand  2-diag
   LASPH  =      F    aspherical Exc in radial PAW
 Electronic Relaxation 1
   ENCUT  = 1000.0 eV  73.50 Ry    8.57 a.u.  31.78 31.78 64.46*2*pi/ulx,y,z
   ENINI  = 1000.0     initial cutoff
   ENAUG  =  946.8 eV  augmentation charge cutoff
   NELM   =     60;   NELMIN=  2; NELMDL= -5     # of ELM steps 
   EDIFF  = 0.1E-05   stopping-criterion for ELM
   LREAL  =      F    real-space projection
   NLSPLINE    = F    spline interpolate recip. space projectors
   LCOMPAT=      F    compatible to vasp.4.4
   GGA_COMPAT  = T    GGA compatible to vasp.4.4-vasp.4.6
   LMAXPAW     = -100 max onsite density
   LMAXMIX     =    2 max onsite mixed and CHGCAR
   VOSKOWN=      0    Vosko Wilk Nusair interpolation
   ROPT   =    0.00000   0.00000
 Ionic relaxation
   EDIFFG = 0.1E-04   stopping-criterion for IOM
   NSW    =      0    number of steps for IOM
   NBLOCK =      1;   KBLOCK =      1    inner block; outer block 
   IBRION =     -1    ionic relax: 0-MD 1-quasi-New 2-CG
   NFREE  =      0    steps in history (QN), initial steepest desc. (CG)
   ISIF   =      0    stress and relaxation
   IWAVPR =     10    prediction:  0-non 1-charg 2-wave 3-comb
   ISYM   =      2    0-nonsym 1-usesym 2-fastsym
   LCORR  =      T    Harris-Foulkes like correction to forces

   POTIM  = 0.5000    time-step for ionic-motion
   TEIN   =    0.0    initial temperature
   TEBEG  =    0.0;   TEEND  =   0.0 temperature during run
   SMASS  =  -3.00    Nose mass-parameter (am)
   estimated Nose-frequenzy (Omega)   =  0.10E-29 period in steps = 0.13E+47 mass=  -0.347E-26a.u.
   SCALEE = 1.0000    scale energy and forces
   NPACO  =    256;   APACO  = 16.0  distance and # of slots for P.C.
   PSTRESS=    0.0 pullay stress

  Mass of Ions in am
   POMASS =  12.01 16.00
  Ionic Valenz
   ZVAL   =   4.00  6.00
  Atomic Wigner-Seitz radii
   RWIGS  =  -1.00 -1.00
  virtual crystal weights 
   VCA    =   1.00  1.00
   NELECT =     216.0000    total number of electrons
   NUPDOWN=      -1.0000    fix difference up-down

 DOS related values:
   EMIN   =  10.00;   EMAX   =-10.00  energy-range for DOS
   EFERMI =   0.00
   ISMEAR =     0;   SIGMA  =   0.01  broadening in eV -4-tet -1-fermi 0-gaus

 Electronic relaxation 2 (details)
   IALGO  =     58    algorithm
   LDIAG  =      T    sub-space diagonalisation (order eigenvalues)
   LSUBROT=      F    optimize rotation matrix (better conditioning)
   TURBO    =      0    0=normal 1=particle mesh
   IRESTART =      0    0=no restart 2=restart with 2 vectors
   NREBOOT  =      0    no. of reboots
   NMIN     =      0    reboot dimension
   EREF     =   0.00    reference energy to select bands
   IMIX   =      4    mixing-type and parameters
     AMIX     =   0.40;   BMIX     =  1.00
     AMIX_MAG =   1.60;   BMIX_MAG =  1.00
     AMIN     =   0.10
     WC   =   100.;   INIMIX=   1;  MIXPRE=   1;  MAXMIX= -45

 Intra band minimization:
   WEIMIN = 0.0000     energy-eigenvalue tresh-hold
   EBREAK =  0.18E-08  absolut break condition
   DEPER  =   0.30     relativ break condition  

   TIME   =   0.40     timestep for ELM

  volume/ion in A,a.u.               =      62.05       418.76
  Fermi-wavevector in a.u.,A,eV,Ry     =   0.660508  1.248179  5.935820  0.436270
  Thomas-Fermi vector in A             =   1.732977
 
 Write flags
   LWAVE        =      F    write WAVECAR
   LDOWNSAMPLE  =      F    k-point downsampling of WAVECAR
   LCHARG       =      T    write CHGCAR
   LVTOT        =      F    write LOCPOT, total local potential
   LVHAR        =      F    write LOCPOT, Hartree potential only
   LELF         =      F    write electronic localiz. function (ELF)
   LORBIT       =      0    0 simple, 1 ext, 2 COOP (PROOUT), +10 PAW based schemes


 Dipole corrections
   LMONO  =      F    monopole corrections only (constant potential shift)
   LDIPOL =      F    correct potential (dipole corrections)
   IDIPOL =      0    1-x, 2-y, 3-z, 4-all directions 
   EPSILON=  1.0000000 bulk dielectric constant

 Exchange correlation treatment:
   GGA     =    --    GGA type
   LEXCH   =     8    internal setting for exchange type
   VOSKOWN=      0    Vosko Wilk Nusair interpolation
   LHFCALC =     F    Hartree Fock is set to
   LHFONE  =     F    Hartree Fock one center treatment
   AEXX    =    0.0000 exact exchange contribution

 Linear response parameters
   LEPSILON=     F    determine dielectric tensor
   LRPA    =     F    only Hartree local field effects (RPA)
   LNABLA  =     F    use nabla operator in PAW spheres
   LVEL    =     F    velocity operator in full k-point grid
   LINTERFAST=   F  fast interpolation
   KINTER  =     0    interpolate to denser k-point grid
   CSHIFT  =0.1000    complex shift for real part using Kramers Kronig
   OMEGAMAX=  -1.0    maximum frequency
   DEG_THRESHOLD= 0.2000000E-02 threshold for treating states as degnerate
   RTIME   =   -0.100 relaxation time in fs
  (WPLASMAI=    0.000 imaginary part of plasma frequency in eV, 0.658/RTIME)
   DFIELD  = 0.0000000 0.0000000 0.0000000 field for delta impulse in time
 
 Orbital magnetization related:
   ORBITALMAG=     F  switch on orbital magnetization
   LCHIMAG   =     F  perturbation theory with respect to B field
   DQ        =  0.001000  dq finite difference perturbation B field
   LLRAUG    =     F  two centre corrections for induced B field



--------------------------------------------------------------------------------------------------------


 Static calculation
 charge density and potential will be updated during run
 non-spin polarized calculation
 Conjugate gradient for all bands (Freysoldt, et al. PRB 79, 241103 (2009))
 preconditioned conjugated gradient                                        
 perform sub-space diagonalisation
    before iterative eigenvector-optimisation
 modified Broyden-mixing scheme, WC =      100.0
 initial mixing is a Kerker type mixing with AMIX =  0.4000 and BMIX =      1.0000
 Hartree-type preconditioning will be used
 using additional bands           32
 reciprocal scheme for non local part
 use partial core corrections
 no Harris-corrections to forces 
 use gradient corrections 
 use of overlap-Matrix (Vanderbilt PP)
 Gauss-broadening in eV      SIGMA  =   0.01


--------------------------------------------------------------------------------------------------------


  energy-cutoff  :     1000.00
  volume of cell :     3288.85
      direct lattice vectors                 reciprocal lattice vectors
    12.325000000  0.000000000  0.000000000     0.081135903  0.046843835  0.000000000
    -6.162500000 10.673763102  0.000000000     0.000000000  0.093687670  0.000000000
     0.000000000  0.000000000 25.000000000     0.000000000  0.000000000  0.040000000

  length of vectors
    12.325000000 12.325000000 25.000000000     0.093687670  0.093687670  0.040000000


 
 k-points in units of 2pi/SCALE and weight: auto                                    
   0.00000000  0.00000000  0.00000000       1.000
 
 k-points in reciprocal lattice and weights: auto                                    
   0.00000000  0.00000000  0.00000000       1.000
 
 position of ions in fractional coordinates (direct lattice) 
   0.97245084  0.00032082  0.00056671
   0.03911838  0.13365950  0.00044017
   0.17244363  0.00029545  0.00049963
   0.23909628  0.13364792  0.00025647
   0.97245206  0.20032201  0.00048522
   0.03912836  0.33364377  0.00044415
   0.17245176  0.20035455  0.00021917
   0.23912436  0.33366572  0.00007226
   0.37246557  0.00032440  0.00045391
   0.43913747  0.13361994  0.00025834
   0.97244982  0.40030936  0.00054761
   0.03912498  0.53363679  0.00057341
   0.37241618  0.40032948  0.00000000
   0.43909960  0.53363898  0.00023241
   0.57244368  0.00031213  0.00055958
   0.63911021  0.13363175  0.00054727
   0.97245270  0.60030565  0.00064029
   0.03912449  0.73364036  0.00065451
   0.57243347  0.60030624  0.00040289
   0.63911189  0.73364188  0.00052791
   0.17245463  0.40031823  0.00028904
   0.23912018  0.53363655  0.00037851
   0.37245975  0.20029599  0.00008900
   0.43910710  0.33367342  0.00005576
   0.17245216  0.60031151  0.00052434
   0.23912337  0.73363857  0.00057513
   0.57243108  0.20028917  0.00041330
   0.63911277  0.33361863  0.00046238
   0.37243981  0.60030802  0.00036284
   0.43911609  0.73363786  0.00049419
   0.57246936  0.40032050  0.00033992
   0.63911941  0.53365087  0.00045961
   0.77244572  0.00031543  0.00059616
   0.83911628  0.13364020  0.00057531
   0.77244051  0.20030743  0.00058103
   0.83912024  0.33363573  0.00058547
   0.77244632  0.40029837  0.00058298
   0.83911898  0.53363396  0.00062110
   0.77245614  0.60030817  0.00059571
   0.83911503  0.73364318  0.00063151
   0.97245531  0.80030558  0.00065223
   0.03911471  0.93364329  0.00059805
   0.17245797  0.80031221  0.00062337
   0.23913455  0.93364719  0.00054485
   0.37245140  0.80031667  0.00055140
   0.43912449  0.93364477  0.00054143
   0.57244110  0.80031005  0.00053453
   0.63911507  0.93363899  0.00058764
   0.77244510  0.80031319  0.00060206
   0.83911661  0.93364434  0.00060683
   0.37302101  0.25122688  0.18877486
   0.42087980  0.18931315  0.19135174
   0.32515698  0.31316719  0.18639667
 
 position of ions in cartesian coordinates  (Angst):
  11.98347958  0.00342433  0.01416777
  -0.34154264  1.42664989  0.01100432
   2.12354700  0.00315355  0.01249070
   2.12325634  1.42652621  0.00641170
  10.75098721  2.13818970  0.01213047
  -1.57382270  3.56123457  0.01110375
   0.89078307  2.13853702  0.00547917
   0.89099273  3.56146885  0.00180651
   4.58863896  0.00346260  0.01134782
   4.58893648  1.42622757  0.00645846
   9.51853763  4.27280730  0.01369027
  -2.80632132  5.69591267  0.01433526
   2.12299894  4.27302204  0.00000000
   2.12335237  5.69593607  0.00581036
   7.05344483  0.00333155  0.01398950
   7.05352764  1.42635365  0.01368187
   8.28609598  6.40752033  0.01600723
  -4.03884931  7.83070339  0.01636283
   3.35585531  6.40752662  0.01007237
   3.35598594  7.83071962  0.01319763
  -0.34145776  4.27290193  0.00722612
  -0.34137895  5.69591010  0.00946273
   3.35624236  2.13791198  0.00222492
   3.35573251  3.56155103  0.00139405
  -1.57394684  6.40758280  0.01310850
  -1.57385216  7.83068434  0.01437823
   5.82093107  2.13783916  0.01033241
   5.82114012  3.56096622  0.01155939
   0.89092245  6.40754561  0.00907111
   0.89106251  7.83067670  0.01235474
   4.58870974  4.27292622  0.00849795
   4.58852320  5.69606300  0.01149026
   9.51844972  0.00336679  0.01490402
   9.51855036  1.42644387  0.01438264
   8.28593477  2.13803408  0.01452582
   8.28612680  3.56114872  0.01463668
   7.05356221  4.27268994  0.01457444
   7.05362213  5.69588251  0.01552751
   5.82112285  6.40754723  0.01489279
   5.82101669  7.83073350  0.01578780
   7.05362858  8.54227219  0.01630582
  -5.27148792  9.96548729  0.01495127
  -2.80637951  8.54234295  0.01558431
  -2.80626749  9.96552896  0.01362126
  -0.34148805  8.54239058  0.01378498
  -0.34137657  9.96550309  0.01353576
   2.12342586  8.54231992  0.01336337
   2.12354296  9.96544135  0.01469111
   4.58845581  8.54235337  0.01505154
   4.58852904  9.96549848  0.01517076
   3.04929830  2.68153618  4.71937156
   4.02070129  2.02068374  4.78379342
   2.07766701  3.34267235  4.65991669
 


--------------------------------------------------------------------------------------------------------


 k-point   1 :   0.0000 0.0000 0.0000  plane waves:  236157

 maximum and minimum number of plane-waves per node :     59046    59034

 maximum number of plane-waves:    236157
 maximum index in each direction: 
   IXMAX=   31   IYMAX=   31   IZMAX=   64
   IXMIN=  -31   IYMIN=  -31   IZMIN=  -64


 parallel 3D FFT for wavefunctions:
    minimum data exchange during FFTs selected (reduces bandwidth)
 parallel 3D FFT for charge:
    minimum data exchange during FFTs selected (reduces bandwidth)


 total amount of memory used by VASP MPI-rank0   215378. kBytes
=======================================================================

   base      :      30000. kBytes
   nonl-proj :      57634. kBytes
   fftplans  :      45914. kBytes
   grid      :      67588. kBytes
   one-center:         43. kBytes
   wavefun   :      14199. kBytes
 
     INWAV:  cpu time    0.0000: real time    0.0000
 Broyden mixing: mesh for mixing (old mesh)
   NGX = 63   NGY = 63   NGZ =129
  (NGX  =256   NGY  =256   NGZ  =540)
  gives a total of 512001 points

 initial charge density was supplied:
 charge density of overlapping atoms calculated
 number of electron     216.0000000 magnetization 
 keeping initial charge density in first step


--------------------------------------------------------------------------------------------------------


 Maximum index for augmentation-charges          471 (set IRDMAX)


--------------------------------------------------------------------------------------------------------


 First call to EWALD:  gamma=   0.119
 Maximum number of real-space cells 4x 4x 2
 Maximum number of reciprocal cells 2x 2x 4

    FEWALD:  cpu time    0.0024: real time    0.0024


--------------------------------------- Iteration      1(   1)  ---------------------------------------


    POTLOK:  cpu time    0.3962: real time    0.3996
    SETDIJ:  cpu time    0.0046: real time    0.0048
    TRIAL :  cpu time    5.6112: real time    5.6643
    CORREC:  cpu time    0.0006: real time    0.0008
    --------------------------------------------
      LOOP:  cpu time    6.0178: real time    6.0955

 eigenvalue-minimisations  :   280
 total energy-change (2. order) : 0.2765823E+04  (-0.1023986E+05)
 number of electron     216.0000000 magnetization 
 augmentation part      216.0000000 magnetization 

 Free energy of the ion-electron system (eV)
  ---------------------------------------------------
  alpha Z        PSCENC =        47.94900195
  Ewald energy   TEWEN  =     45170.36305123
  -Hartree energ DENC   =    -51239.51742434
  -exchange      EXHF   =         0.00000000
  -V(xc)+E(xc)   XCENC  =       420.80350982
  PAW double counting   =      6525.96553977    -6260.36035765
  entropy T*S    EENTRO =        -0.00000012
  eigenvalues    EBANDS =      -268.90379699
  atomic energy  EATOM  =      8369.52358910
  ---------------------------------------------------
  free energy    TOTEN  =      2765.82311276 eV

  energy without entropy =     2765.82311289  energy(sigma->0) =     2765.82311282


--------------------------------------------------------------------------------------------------------




--------------------------------------- Iteration      1(   2)  ---------------------------------------


    TRIAL :  cpu time    8.9575: real time    9.0494
    CORREC:  cpu time    0.0001: real time    0.0001
    --------------------------------------------
      LOOP:  cpu time    8.9866: real time    9.0796

 eigenvalue-minimisations  :   504
 total energy-change (2. order) :-0.2495710E+04  (-0.2361051E+04)
 number of electron     216.0000000 magnetization 
 augmentation part      216.0000000 magnetization 

 Free energy of the ion-electron system (eV)
  ---------------------------------------------------
  alpha Z        PSCENC =        47.94900195
  Ewald energy   TEWEN  =     45170.36305123
  -Hartree energ DENC   =    -51239.51742434
  -exchange      EXHF   =         0.00000000
  -V(xc)+E(xc)   XCENC  =       420.80350982
  PAW double counting   =      6525.96553977    -6260.36035765
  entropy T*S    EENTRO =        -0.00000000
  eigenvalues    EBANDS =     -2764.61343314
  atomic energy  EATOM  =      8369.52358910
  ---------------------------------------------------
  free energy    TOTEN  =       270.11347674 eV

  energy without entropy =      270.11347674  energy(sigma->0) =      270.11347674


--------------------------------------------------------------------------------------------------------




--------------------------------------- Iteration      1(   3)  ---------------------------------------


    TRIAL :  cpu time    6.8396: real time    6.9144
    CORREC:  cpu time    0.0001: real time    0.0001
    --------------------------------------------
      LOOP:  cpu time    6.8766: real time    6.9633

 eigenvalue-minimisations  :   364
 total energy-change (2. order) :-0.7416658E+03  (-0.7358132E+03)
 number of electron     216.0000000 magnetization 
 augmentation part      216.0000000 magnetization 

 Free energy of the ion-electron system (eV)
  ---------------------------------------------------
  alpha Z        PSCENC =        47.94900195
  Ewald energy   TEWEN  =     45170.36305123
  -Hartree energ DENC   =    -51239.51742434
  -exchange      EXHF   =         0.00000000
  -V(xc)+E(xc)   XCENC  =       420.80350982
  PAW double counting   =      6525.96553977    -6260.36035765
  entropy T*S    EENTRO =        -0.00000000
  eigenvalues    EBANDS =     -3506.27919924
  atomic energy  EATOM  =      8369.52358910
  ---------------------------------------------------
  free energy    TOTEN  =      -471.55228936 eV

  energy without entropy =     -471.55228936  energy(sigma->0) =     -471.55228936


--------------------------------------------------------------------------------------------------------




--------------------------------------- Iteration      1(   4)  ---------------------------------------


    TRIAL :  cpu time    6.4234: real time    6.4854
    CORREC:  cpu time    0.0001: real time    0.0001
    --------------------------------------------
      LOOP:  cpu time    6.4429: real time    6.5098

 eigenvalue-minimisations  :   336
 total energy-change (2. order) :-0.4514876E+02  (-0.4490899E+02)
 number of electron     216.0000000 magnetization 
 augmentation part      216.0000000 magnetization 

 Free energy of the ion-electron system (eV)
  ---------------------------------------------------
  alpha Z        PSCENC =        47.94900195
  Ewald energy   TEWEN  =     45170.36305123
  -Hartree energ DENC   =    -51239.51742434
  -exchange      EXHF   =         0.00000000
  -V(xc)+E(xc)   XCENC  =       420.80350982
  PAW double counting   =      6525.96553977    -6260.36035765
  entropy T*S    EENTRO =        -0.00000000
  eigenvalues    EBANDS =     -3551.42795604
  atomic energy  EATOM  =      8369.52358910
  ---------------------------------------------------
  free energy    TOTEN  =      -516.70104616 eV

  energy without entropy =     -516.70104616  energy(sigma->0) =     -516.70104616


--------------------------------------------------------------------------------------------------------




--------------------------------------- Iteration      1(   5)  ---------------------------------------


    TRIAL :  cpu time    8.1070: real time    8.1866
    CORREC:  cpu time    0.0001: real time    0.0001
    CHARGE:  cpu time    0.3124: real time    0.3150
    --------------------------------------------
      LOOP:  cpu time    8.4444: real time    8.5435

 eigenvalue-minimisations  :   448
 total energy-change (2. order) :-0.1343976E+01  (-0.1340964E+01)
 number of electron     216.0000000 magnetization 
 augmentation part       -0.2634252 magnetization 

 Free energy of the ion-electron system (eV)
  ---------------------------------------------------
  alpha Z        PSCENC =        47.94900195
  Ewald energy   TEWEN  =     45170.36305123
  -Hartree energ DENC   =    -51239.51742434
  -exchange      EXHF   =         0.00000000
  -V(xc)+E(xc)   XCENC  =       420.80350982
  PAW double counting   =      6525.96553977    -6260.36035765
  entropy T*S    EENTRO =        -0.00000000
  eigenvalues    EBANDS =     -3552.77193226
  atomic energy  EATOM  =      8369.52358910
  ---------------------------------------------------
  free energy    TOTEN  =      -518.04502238 eV

  energy without entropy =     -518.04502238  energy(sigma->0) =     -518.04502238


--------------------------------------------------------------------------------------------------------




--------------------------------------- Iteration      1(   6)  ---------------------------------------


    POTLOK:  cpu time    0.3790: real time    0.3818
    SETDIJ:  cpu time    0.0028: real time    0.0028
    TRIAL :  cpu time    2.6804: real time    2.7052
    CORREC:  cpu time    1.0701: real time    1.0792
    CHARGE:  cpu time    0.3139: real time    0.3161
    --------------------------------------------
      LOOP:  cpu time    4.4949: real time    4.5345

 eigenvalue-minimisations  :     0
 total energy-change (2. order) : 0.5139614E+02  (-0.1555567E+02)
 number of electron     216.0000000 magnetization 
 augmentation part       -0.3638816 magnetization 

 Free energy of the ion-electron system (eV)
  ---------------------------------------------------
  alpha Z        PSCENC =        47.94900195
  Ewald energy   TEWEN  =     45170.36305123
  -Hartree energ DENC   =    -52679.50377841
  -exchange      EXHF   =         0.00000000
  -V(xc)+E(xc)   XCENC  =       469.02673000
  PAW double counting   =     89589.03788317   -89331.72320296
  entropy T*S    EENTRO =        -0.00000000
  eigenvalues    EBANDS =     -2101.32215272
  atomic energy  EATOM  =      8369.52358910
  ---------------------------------------------------
  free energy    TOTEN  =      -466.64887864 eV

  energy without entropy =     -466.64887864  energy(sigma->0) =     -466.64887864


--------------------------------------------------------------------------------------------------------




--------------------------------------- Iteration      1(   7)  ---------------------------------------


    POTLOK:  cpu time    0.3852: real time    0.3881
    SETDIJ:  cpu time    0.0027: real time    0.0027
    TRIAL :  cpu time    2.6739: real time    2.6986
    CORREC:  cpu time    1.0757: real time    1.0841
    CHARGE:  cpu time    0.3120: real time    0.3143
    --------------------------------------------
      LOOP:  cpu time    4.4998: real time    4.5407

 eigenvalue-minimisations  :     0
 total energy-change (2. order) :-0.1559706E+02  (-0.1815640E+01)
 number of electron     216.0000000 magnetization 
 augmentation part       -0.4120478 magnetization 

 Free energy of the ion-electron system (eV)
  ---------------------------------------------------
  alpha Z        PSCENC =        47.94900195
  Ewald energy   TEWEN  =     45170.36305123
  -Hartree energ DENC   =    -52167.58929519
  -exchange      EXHF   =         0.00000000
  -V(xc)+E(xc)   XCENC  =       451.93286880
  PAW double counting   =    105775.43595384  -105515.28737196
  entropy T*S    EENTRO =        -0.00000000
  eigenvalues    EBANDS =     -2614.57373897
  atomic energy  EATOM  =      8369.52358910
  ---------------------------------------------------
  free energy    TOTEN  =      -482.24594120 eV

  energy without entropy =     -482.24594120  energy(sigma->0) =     -482.24594120


--------------------------------------------------------------------------------------------------------




--------------------------------------- Iteration      1(   8)  ---------------------------------------


    POTLOK:  cpu time    0.3817: real time    0.3844
    SETDIJ:  cpu time    0.0027: real time    0.0028
    TRIAL :  cpu time    2.6741: real time    2.6988
    CORREC:  cpu time    1.0730: real time    1.0819
    CHARGE:  cpu time    0.3123: real time    0.3148
    --------------------------------------------
      LOOP:  cpu time    4.5208: real time    4.5708

 eigenvalue-minimisations  :     0
 total energy-change (2. order) :-0.1814395E+01  (-0.4714310E+00)
 number of electron     216.0000000 magnetization 
 augmentation part       -0.4295947 magnetization 

 Free energy of the ion-electron system (eV)
  ---------------------------------------------------
  alpha Z        PSCENC =        47.94900195
  Ewald energy   TEWEN  =     45170.36305123
  -Hartree energ DENC   =    -52139.96470782
  -exchange      EXHF   =         0.00000000
  -V(xc)+E(xc)   XCENC  =       451.35261810
  PAW double counting   =    110151.78490647  -109891.22276384
  entropy T*S    EENTRO =        -0.00000000
  eigenvalues    EBANDS =     -2643.84603100
  atomic energy  EATOM  =      8369.52358910
  ---------------------------------------------------
  free energy    TOTEN  =      -484.06033582 eV

  energy without entropy =     -484.06033582  energy(sigma->0) =     -484.06033582


--------------------------------------------------------------------------------------------------------




--------------------------------------- Iteration      1(   9)  ---------------------------------------


    POTLOK:  cpu time    0.3819: real time    0.3846
    SETDIJ:  cpu time    0.0026: real time    0.0027
    TRIAL :  cpu time    2.6753: real time    2.7002
    CORREC:  cpu time    1.0734: real time    1.0820
    CHARGE:  cpu time    0.3125: real time    0.3147
    --------------------------------------------
      LOOP:  cpu time    4.4999: real time    4.5486

 eigenvalue-minimisations  :     0
 total energy-change (2. order) :-0.4712921E+00  (-0.1490001E+00)
 number of electron     216.0000000 magnetization 
 augmentation part       -0.4372106 magnetization 

 Free energy of the ion-electron system (eV)
  ---------------------------------------------------
  alpha Z        PSCENC =        47.94900195
  Ewald energy   TEWEN  =     45170.36305123
  -Hartree energ DENC   =    -52157.29876107
  -exchange      EXHF   =         0.00000000
  -V(xc)+E(xc)   XCENC  =       451.55947281
  PAW double counting   =    112943.12500113  -112682.41020930
  entropy T*S    EENTRO =        -0.00000000
  eigenvalues    EBANDS =     -2627.34277376
  atomic energy  EATOM  =      8369.52358910
  ---------------------------------------------------
  free energy    TOTEN  =      -484.53162791 eV

  energy without entropy =     -484.53162791  energy(sigma->0) =     -484.53162791


--------------------------------------------------------------------------------------------------------




--------------------------------------- Iteration      1(  10)  ---------------------------------------


    POTLOK:  cpu time    0.3817: real time    0.3843
    SETDIJ:  cpu time    0.0027: real time    0.0027
    TRIAL :  cpu time    2.6715: real time    2.6966
    CORREC:  cpu time    1.0732: real time    1.0820
    CHARGE:  cpu time    0.3121: real time    0.3143
    --------------------------------------------
      LOOP:  cpu time    4.5288: real time    4.5702

 eigenvalue-minimisations  :     0
 total energy-change (2. order) :-0.1487848E+00  (-0.5987628E-01)
 number of electron     216.0000000 magnetization 
 augmentation part       -0.4379482 magnetization 

 Free energy of the ion-electron system (eV)
  ---------------------------------------------------
  alpha Z        PSCENC =        47.94900195
  Ewald energy   TEWEN  =     45170.36305123
  -Hartree energ DENC   =    -52158.51120337
  -exchange      EXHF   =         0.00000000
  -V(xc)+E(xc)   XCENC  =       451.48393897
  PAW double counting   =    113399.95540110  -113139.15784305
  entropy T*S    EENTRO =        -0.00000000
  eigenvalues    EBANDS =     -2626.28634865
  atomic energy  EATOM  =      8369.52358910
  ---------------------------------------------------
  free energy    TOTEN  =      -484.68041272 eV

  energy without entropy =     -484.68041272  energy(sigma->0) =     -484.68041272


--------------------------------------------------------------------------------------------------------




--------------------------------------- Iteration      1(  11)  ---------------------------------------


    POTLOK:  cpu time    0.3823: real time    0.3850
    SETDIJ:  cpu time    0.0028: real time    0.0028
    TRIAL :  cpu time    2.6725: real time    2.6974
    CORREC:  cpu time    1.0726: real time    1.0812
    CHARGE:  cpu time    0.3124: real time    0.3150
    --------------------------------------------
      LOOP:  cpu time    4.5039: real time    4.5437

 eigenvalue-minimisations  :     0
 total energy-change (2. order) :-0.5974008E-01  (-0.2441927E-01)
 number of electron     216.0000000 magnetization 
 augmentation part       -0.4374930 magnetization 

 Free energy of the ion-electron system (eV)
  ---------------------------------------------------
  alpha Z        PSCENC =        47.94900195
  Ewald energy   TEWEN  =     45170.36305123
  -Hartree energ DENC   =    -52154.45603902
  -exchange      EXHF   =         0.00000000
  -V(xc)+E(xc)   XCENC  =       451.42524123
  PAW double counting   =    112928.66044659  -112667.86279884
  entropy T*S    EENTRO =        -0.00000000
  eigenvalues    EBANDS =     -2630.34264504
  atomic energy  EATOM  =      8369.52358910
  ---------------------------------------------------
  free energy    TOTEN  =      -484.74015280 eV

  energy without entropy =     -484.74015280  energy(sigma->0) =     -484.74015280


--------------------------------------------------------------------------------------------------------




--------------------------------------- Iteration      1(  12)  ---------------------------------------


    POTLOK:  cpu time    0.3837: real time    0.3863
    SETDIJ:  cpu time    0.0028: real time    0.0028
    TRIAL :  cpu time    2.6689: real time    2.6936
    CORREC:  cpu time    1.0697: real time    1.0783
    CHARGE:  cpu time    0.3118: real time    0.3141
    --------------------------------------------
      LOOP:  cpu time    4.4890: real time    4.5279

 eigenvalue-minimisations  :     0
 total energy-change (2. order) :-0.2433051E-01  (-0.8380925E-02)
 number of electron     216.0000000 magnetization 
 augmentation part       -0.4375907 magnetization 

 Free energy of the ion-electron system (eV)
  ---------------------------------------------------
  alpha Z        PSCENC =        47.94900195
  Ewald energy   TEWEN  =     45170.36305123
  -Hartree energ DENC   =    -52152.64866807
  -exchange      EXHF   =         0.00000000
  -V(xc)+E(xc)   XCENC  =       451.39146669
  PAW double counting   =    112553.91551872  -112293.14020009
  entropy T*S    EENTRO =        -0.00000000
  eigenvalues    EBANDS =     -2632.11824283
  atomic energy  EATOM  =      8369.52358910
  ---------------------------------------------------
  free energy    TOTEN  =      -484.76448331 eV

  energy without entropy =     -484.76448331  energy(sigma->0) =     -484.76448331


--------------------------------------------------------------------------------------------------------




--------------------------------------- Iteration      1(  13)  ---------------------------------------


    POTLOK:  cpu time    0.3790: real time    0.3815
    SETDIJ:  cpu time    0.0028: real time    0.0028
    TRIAL :  cpu time    2.6723: real time    2.6976
    CORREC:  cpu time    1.0648: real time    1.0738
    CHARGE:  cpu time    0.3119: real time    0.3142
    --------------------------------------------
      LOOP:  cpu time    4.4792: real time    4.5194

 eigenvalue-minimisations  :     0
 total energy-change (2. order) :-0.8366533E-02  (-0.2466798E-02)
 number of electron     216.0000000 magnetization 
 augmentation part       -0.4372526 magnetization 

 Free energy of the ion-electron system (eV)
  ---------------------------------------------------
  alpha Z        PSCENC =        47.94900195
  Ewald energy   TEWEN  =     45170.36305123
  -Hartree energ DENC   =    -52152.57409069
  -exchange      EXHF   =         0.00000000
  -V(xc)+E(xc)   XCENC  =       451.37938638
  PAW double counting   =    112445.11660743  -112184.35115061
  entropy T*S    EENTRO =        -0.00000000
  eigenvalues    EBANDS =     -2632.17924463
  atomic energy  EATOM  =      8369.52358910
  ---------------------------------------------------
  free energy    TOTEN  =      -484.77284984 eV

  energy without entropy =     -484.77284984  energy(sigma->0) =     -484.77284984


--------------------------------------------------------------------------------------------------------




--------------------------------------- Iteration      1(  14)  ---------------------------------------


    POTLOK:  cpu time    0.3760: real time    0.3788
    SETDIJ:  cpu time    0.0030: real time    0.0030
    TRIAL :  cpu time    2.6706: real time    2.6973
    CORREC:  cpu time    1.0735: real time    1.0838
    CHARGE:  cpu time    0.3117: real time    0.3143
    --------------------------------------------
      LOOP:  cpu time    4.4981: real time    4.5450

 eigenvalue-minimisations  :     0
 total energy-change (2. order) :-0.2468450E-02  (-0.7118029E-03)
 number of electron     216.0000000 magnetization 
 augmentation part       -0.4370314 magnetization 

 Free energy of the ion-electron system (eV)
  ---------------------------------------------------
  alpha Z        PSCENC =        47.94900195
  Ewald energy   TEWEN  =     45170.36305123
  -Hartree energ DENC   =    -52152.59516754
  -exchange      EXHF   =         0.00000000
  -V(xc)+E(xc)   XCENC  =       451.37811658
  PAW double counting   =    112481.19105417  -112220.42805520
  entropy T*S    EENTRO =        -0.00000000
  eigenvalues    EBANDS =     -2632.15690858
  atomic energy  EATOM  =      8369.52358910
  ---------------------------------------------------
  free energy    TOTEN  =      -484.77531829 eV

  energy without entropy =     -484.77531829  energy(sigma->0) =     -484.77531829


--------------------------------------------------------------------------------------------------------




--------------------------------------- Iteration      1(  15)  ---------------------------------------


    POTLOK:  cpu time    0.3772: real time    0.3824
    SETDIJ:  cpu time    0.0026: real time    0.0026
    TRIAL :  cpu time    2.6678: real time    2.6956
    CORREC:  cpu time    1.0677: real time    1.0765
    CHARGE:  cpu time    0.3122: real time    0.3145
    --------------------------------------------
      LOOP:  cpu time    4.4493: real time    4.5127

 eigenvalue-minimisations  :     0
 total energy-change (2. order) :-0.7136975E-03  (-0.2433337E-03)
 number of electron     216.0000000 magnetization 
 augmentation part       -0.4367484 magnetization 

 Free energy of the ion-electron system (eV)
  ---------------------------------------------------
  alpha Z        PSCENC =        47.94900195
  Ewald energy   TEWEN  =     45170.36305123
  -Hartree energ DENC   =    -52152.28345465
  -exchange      EXHF   =         0.00000000
  -V(xc)+E(xc)   XCENC  =       451.36444167
  PAW double counting   =    112511.73579272  -112250.97094046
  entropy T*S    EENTRO =        -0.00000000
  eigenvalues    EBANDS =     -2632.45751355
  atomic energy  EATOM  =      8369.52358910
  ---------------------------------------------------
  free energy    TOTEN  =      -484.77603199 eV

  energy without entropy =     -484.77603199  energy(sigma->0) =     -484.77603199


--------------------------------------------------------------------------------------------------------




--------------------------------------- Iteration      1(  16)  ---------------------------------------


    POTLOK:  cpu time    0.3768: real time    0.3794
    SETDIJ:  cpu time    0.0028: real time    0.0028
    TRIAL :  cpu time    2.6726: real time    2.6973
    CORREC:  cpu time    1.0669: real time    1.0759
    CHARGE:  cpu time    0.3113: real time    0.3135
    --------------------------------------------
      LOOP:  cpu time    4.4377: real time    4.4918

 eigenvalue-minimisations  :     0
 total energy-change (2. order) :-0.2445069E-03  (-0.9484710E-04)
 number of electron     216.0000000 magnetization 
 augmentation part       -0.4365938 magnetization 

 Free energy of the ion-electron system (eV)
  ---------------------------------------------------
  alpha Z        PSCENC =        47.94900195
  Ewald energy   TEWEN  =     45170.36305123
  -Hartree energ DENC   =    -52152.38074579
  -exchange      EXHF   =         0.00000000
  -V(xc)+E(xc)   XCENC  =       451.36874131
  PAW double counting   =    112490.70504286  -112229.94091286
  entropy T*S    EENTRO =        -0.00000000
  eigenvalues    EBANDS =     -2632.36404429
  atomic energy  EATOM  =      8369.52358910
  ---------------------------------------------------
  free energy    TOTEN  =      -484.77627649 eV

  energy without entropy =     -484.77627649  energy(sigma->0) =     -484.77627649


--------------------------------------------------------------------------------------------------------




--------------------------------------- Iteration      1(  17)  ---------------------------------------


    POTLOK:  cpu time    0.3820: real time    0.3844
    SETDIJ:  cpu time    0.0027: real time    0.0027
    TRIAL :  cpu time    2.6696: real time    2.6943
    CORREC:  cpu time    1.0639: real time    1.0726
    CHARGE:  cpu time    0.3103: real time    0.3129
    --------------------------------------------
      LOOP:  cpu time    4.5188: real time    4.5619

 eigenvalue-minimisations  :     0
 total energy-change (2. order) :-0.9540872E-04  (-0.3564664E-04)
 number of electron     216.0000000 magnetization 
 augmentation part       -0.4365915 magnetization 

 Free energy of the ion-electron system (eV)
  ---------------------------------------------------
  alpha Z        PSCENC =        47.94900195
  Ewald energy   TEWEN  =     45170.36305123
  -Hartree energ DENC   =    -52152.47663275
  -exchange      EXHF   =         0.00000000
  -V(xc)+E(xc)   XCENC  =       451.37170324
  PAW double counting   =    112460.43304470  -112199.66921357
  entropy T*S    EENTRO =        -0.00000000
  eigenvalues    EBANDS =     -2632.27091580
  atomic energy  EATOM  =      8369.52358910
  ---------------------------------------------------
  free energy    TOTEN  =      -484.77637190 eV

  energy without entropy =     -484.77637190  energy(sigma->0) =     -484.77637190


--------------------------------------------------------------------------------------------------------




--------------------------------------- Iteration      1(  18)  ---------------------------------------


    POTLOK:  cpu time    0.3745: real time    0.3771
    SETDIJ:  cpu time    0.0026: real time    0.0026
    TRIAL :  cpu time    2.6707: real time    2.6954
    CORREC:  cpu time    1.0651: real time    1.0735
    CHARGE:  cpu time    0.3125: real time    0.3149
    --------------------------------------------
      LOOP:  cpu time    4.4760: real time    4.5145

 eigenvalue-minimisations  :     0
 total energy-change (2. order) :-0.3571925E-04  (-0.1329090E-04)
 number of electron     216.0000000 magnetization 
 augmentation part       -0.4366441 magnetization 

 Free energy of the ion-electron system (eV)
  ---------------------------------------------------
  alpha Z        PSCENC =        47.94900195
  Ewald energy   TEWEN  =     45170.36305123
  -Hartree energ DENC   =    -52152.47306277
  -exchange      EXHF   =         0.00000000
  -V(xc)+E(xc)   XCENC  =       451.37131689
  PAW double counting   =    112451.90256203  -112191.13836444
  entropy T*S    EENTRO =        -0.00000000
  eigenvalues    EBANDS =     -2632.27450161
  atomic energy  EATOM  =      8369.52358910
  ---------------------------------------------------
  free energy    TOTEN  =      -484.77640762 eV

  energy without entropy =     -484.77640762  energy(sigma->0) =     -484.77640762


--------------------------------------------------------------------------------------------------------




--------------------------------------- Iteration      1(  19)  ---------------------------------------


    POTLOK:  cpu time    0.3920: real time    0.3946
    SETDIJ:  cpu time    0.0027: real time    0.0028
    TRIAL :  cpu time    2.6702: real time    2.6948
    CORREC:  cpu time    1.0650: real time    1.0735
    CHARGE:  cpu time    0.3120: real time    0.3143
    --------------------------------------------
      LOOP:  cpu time    4.4778: real time    4.5265

 eigenvalue-minimisations  :     0
 total energy-change (2. order) :-0.1306935E-04  (-0.4630042E-05)
 number of electron     216.0000000 magnetization 
 augmentation part       -0.4367097 magnetization 

 Free energy of the ion-electron system (eV)
  ---------------------------------------------------
  alpha Z        PSCENC =        47.94900195
  Ewald energy   TEWEN  =     45170.36305123
  -Hartree energ DENC   =    -52152.48403804
  -exchange      EXHF   =         0.00000000
  -V(xc)+E(xc)   XCENC  =       451.37190375
  PAW double counting   =    112456.69387821  -112195.92947623
  entropy T*S    EENTRO =        -0.00000000
  eigenvalues    EBANDS =     -2632.26433066
  atomic energy  EATOM  =      8369.52358910
  ---------------------------------------------------
  free energy    TOTEN  =      -484.77642069 eV

  energy without entropy =     -484.77642069  energy(sigma->0) =     -484.77642069


--------------------------------------------------------------------------------------------------------




--------------------------------------- Iteration      1(  20)  ---------------------------------------


    POTLOK:  cpu time    0.3719: real time    0.3743
    SETDIJ:  cpu time    0.0027: real time    0.0027
    TRIAL :  cpu time    2.6696: real time    2.6945
    CORREC:  cpu time    1.0657: real time    1.0743
    CHARGE:  cpu time    0.3114: real time    0.3136
    --------------------------------------------
      LOOP:  cpu time    4.4686: real time    4.5555

 eigenvalue-minimisations  :     0
 total energy-change (2. order) :-0.4356072E-05  (-0.1585149E-05)
 number of electron     216.0000000 magnetization 
 augmentation part       -0.4367214 magnetization 

 Free energy of the ion-electron system (eV)
  ---------------------------------------------------
  alpha Z        PSCENC =        47.94900195
  Ewald energy   TEWEN  =     45170.36305123
  -Hartree energ DENC   =    -52152.48216707
  -exchange      EXHF   =         0.00000000
  -V(xc)+E(xc)   XCENC  =       451.37152116
  PAW double counting   =    112462.22665740  -112201.46199463
  entropy T*S    EENTRO =        -0.00000000
  eigenvalues    EBANDS =     -2632.26608417
  atomic energy  EATOM  =      8369.52358910
  ---------------------------------------------------
  free energy    TOTEN  =      -484.77642505 eV

  energy without entropy =     -484.77642505  energy(sigma->0) =     -484.77642505


--------------------------------------------------------------------------------------------------------




--------------------------------------- Iteration      1(  21)  ---------------------------------------


    POTLOK:  cpu time    0.3751: real time    0.3777
    SETDIJ:  cpu time    0.0027: real time    0.0027
    TRIAL :  cpu time    2.6704: real time    2.6958
    CORREC:  cpu time    1.0648: real time    1.0735
    CHARGE:  cpu time    0.3118: real time    0.3141
    --------------------------------------------
      LOOP:  cpu time    4.4608: real time    4.5312

 eigenvalue-minimisations  :     0
 total energy-change (2. order) :-0.1456501E-05  (-0.6151628E-06)
 number of electron     216.0000000 magnetization 
 augmentation part       -0.4367313 magnetization 

 Free energy of the ion-electron system (eV)
  ---------------------------------------------------
  alpha Z        PSCENC =        47.94900195
  Ewald energy   TEWEN  =     45170.36305123
  -Hartree energ DENC   =    -52152.49930417
  -exchange      EXHF   =         0.00000000
  -V(xc)+E(xc)   XCENC  =       451.37231074
  PAW double counting   =    112463.82744011  -112203.06290230
  entropy T*S    EENTRO =        -0.00000000
  eigenvalues    EBANDS =     -2632.24961316
  atomic energy  EATOM  =      8369.52358910
  ---------------------------------------------------
  free energy    TOTEN  =      -484.77642650 eV

  energy without entropy =     -484.77642650  energy(sigma->0) =     -484.77642650


--------------------------------------------------------------------------------------------------------




--------------------------------------- Iteration      1(  22)  ---------------------------------------


    POTLOK:  cpu time    0.3758: real time    0.3784
    SETDIJ:  cpu time    0.0030: real time    0.0030
    TRIAL :  cpu time    2.6709: real time    2.6988
    CORREC:  cpu time    1.0635: real time    1.0725
    EDDIAG:  cpu time    0.5927: real time    0.5986
    CHARGE:  cpu time    0.3116: real time    0.3139
    --------------------------------------------
      LOOP:  cpu time    5.0772: real time    5.1265

 eigenvalue-minimisations  :     0
 total energy-change (2. order) :-0.5937327E-06  (-0.3032994E-06)
 number of electron     216.0000000 magnetization 
 augmentation part       -0.4367236 magnetization 

 Free energy of the ion-electron system (eV)
  ---------------------------------------------------
  alpha Z        PSCENC =        47.94900195
  Ewald energy   TEWEN  =     45170.36305123
  -Hartree energ DENC   =    -52152.48609680
  -exchange      EXHF   =         0.00000000
  -V(xc)+E(xc)   XCENC  =       451.37164225
  PAW double counting   =    112463.29410355  -112202.52949655
  entropy T*S    EENTRO =        -0.00000000
  eigenvalues    EBANDS =     -2632.26222183
  atomic energy  EATOM  =      8369.52358910
  ---------------------------------------------------
  free energy    TOTEN  =      -484.77642710 eV

  energy without entropy =     -484.77642710  energy(sigma->0) =     -484.77642710


--------------------------------------------------------------------------------------------------------


  average scaling for gradient   0.9250


 average (electrostatic) potential at core
  the test charge radii are     0.5770  0.5955
  (the norm of the test charge is              1.0000)
       1 -85.6372       2 -85.6357       3 -85.6392       4 -85.6420       5 -85.6336
       6 -85.6325       7 -85.6386       8 -85.6350       9 -85.6351      10 -85.6383
      11 -85.6328      12 -85.6338      13 -85.6379      14 -85.6348      15 -85.6324
      16 -85.6331      17 -85.6347      18 -85.6359      19 -85.6369      20 -85.6348
      21 -85.6321      22 -85.6317      23 -85.6435      24 -85.6431      25 -85.6324
      26 -85.6334      27 -85.6356      28 -85.6384      29 -85.6325      30 -85.6325
      31 -85.6406      32 -85.6381      33 -85.6343      34 -85.6332      35 -85.6331
      36 -85.6340      37 -85.6355      38 -85.6365      39 -85.6367      40 -85.6362
      41 -85.6363      42 -85.6373      43 -85.6347      44 -85.6372      45 -85.6325
      46 -85.6328      47 -85.6338      48 -85.6329      49 -85.6362      50 -85.6350
      51 -89.5699      52-120.3491      53-120.3487
 
 
 
 E-fermi :  -4.2856     XC(G=0):  -1.9136     alpha+bet : -1.6890

 Fermi energy:        -4.2856428156

 k-point     1 :       0.0000    0.0000    0.0000
  band No.  band energies     occupation 
      1     -27.6703      2.00000
      2     -26.6652      2.00000
      3     -22.3854      2.00000
      4     -21.4470      2.00000
      5     -21.4461      2.00000
      6     -21.4451      2.00000
      7     -21.4439      2.00000
      8     -21.4428      2.00000
      9     -21.4427      2.00000
     10     -19.6007      2.00000
     11     -19.6004      2.00000
     12     -19.6003      2.00000
     13     -19.6002      2.00000
     14     -19.6001      2.00000
     15     -19.5998      2.00000
     16     -18.7028      2.00000
     17     -18.7027      2.00000
     18     -18.7024      2.00000
     19     -18.7020      2.00000
     20     -18.7019      2.00000
     21     -18.7017      2.00000
     22     -16.5352      2.00000
     23     -16.5351      2.00000
     24     -16.5345      2.00000
     25     -16.5341      2.00000
     26     -16.5328      2.00000
     27     -16.5326      2.00000
     28     -15.5489      2.00000
     29     -15.5487      2.00000
     30     -15.5486      2.00000
     31     -15.5485      2.00000
     32     -15.5477      2.00000
     33     -15.5476      2.00000
     34     -14.1956      2.00000
     35     -14.1955      2.00000
     36     -14.1950      2.00000
     37     -14.1948      2.00000
     38     -14.1947      2.00000
     39     -14.1943      2.00000
     40     -12.4740      2.00000
     41     -11.8065      2.00000
     42     -11.8063      2.00000
     43     -11.8058      2.00000
     44     -11.8058      2.00000
     45     -11.8050      2.00000
     46     -11.8048      2.00000
     47     -11.7100      2.00000
     48     -11.7100      2.00000
     49     -11.7093      2.00000
     50     -11.7092      2.00000
     51     -11.7081      2.00000
     52     -11.7079      2.00000
     53     -11.2847      2.00000
     54     -11.2200      2.00000
     55     -11.2193      2.00000
     56     -10.4771      2.00000
     57     -10.3324      2.00000
     58     -10.3323      2.00000
     59     -10.3311      2.00000
     60     -10.3307      2.00000
     61     -10.3305      2.00000
     62     -10.3304      2.00000
     63      -9.3647      2.00000
     64      -9.3628      2.00000
     65      -9.3598      2.00000
     66      -9.3593      2.00000
     67      -9.3572      2.00000
     68      -9.3571      2.00000
     69      -9.0531      2.00000
     70      -9.0520      2.00000
     71      -9.0518      2.00000
     72      -9.0510      2.00000
     73      -9.0507      2.00000
     74      -9.0505      2.00000
     75      -9.0038      2.00000
     76      -9.0037      2.00000
     77      -9.0035      2.00000
     78      -9.0034      2.00000
     79      -9.0026      2.00000
     80      -9.0018      2.00000
     81      -7.6737      2.00000
     82      -7.6730      2.00000
     83      -7.3964      2.00000
     84      -7.3955      2.00000
     85      -7.3951      2.00000
     86      -7.3946      2.00000
     87      -7.3929      2.00000
     88      -7.3928      2.00000
     89      -7.2320      2.00000
     90      -7.2319      2.00000
     91      -7.2307      2.00000
     92      -7.2304      2.00000
     93      -7.2299      2.00000
     94      -7.2297      2.00000
     95      -6.3362      2.00000
     96      -6.3349      2.00000
     97      -6.3347      2.00000
     98      -6.3339      2.00000
     99      -6.3335      2.00000
    100      -6.3328      2.00000
    101      -5.9070      2.00000
    102      -5.9048      2.00000
    103      -4.3528      2.00000
    104      -4.3524      2.00000
    105      -4.3521      2.00000
    106      -4.3514      2.00000
    107      -4.3490      2.00000
    108      -4.3488      2.00000
    109      -1.5502      0.00000
    110      -1.5499      0.00000
    111      -1.5478      0.00000
    112      -1.5475      0.00000
    113      -1.5472      0.00000
    114      -1.5470      0.00000
    115       0.0956      0.00000
    116       0.3136      0.00000
    117       0.3146      0.00000
    118       0.3152      0.00000
    119       0.3165      0.00000
    120       0.3167      0.00000
    121       0.3192      0.00000
    122       0.6790      0.00000
    123       0.8548      0.00000
    124       1.0805      0.00000
    125       1.3582      0.00000
    126       1.4522      0.00000
    127       1.5567      0.00000
    128       1.6193      0.00000
    129       1.6673      0.00000
    130       1.6738      0.00000
    131       1.6875      0.00000
    132       2.0591      0.00000
    133       2.0645      0.00000
    134       2.0690      0.00000
    135       2.0801      0.00000
    136       2.0846      0.00000
    137       2.0996      0.00000
    138       2.5633      0.00000
    139       2.8822      0.00000
    140       2.9740      0.00000


--------------------------------------------------------------------------------------------------------


 soft charge-density along one line, spin component           1
         0         1         2         3         4         5         6         7         8         9
 total charge-density along one line
 
 pseudopotential strength for first ion, spin component:           1
 12.703  21.376  -0.000   0.000   0.000  -0.000   0.000   0.000
 21.376  35.970  -0.000   0.000   0.000  -0.000   0.000   0.000
 -0.000  -0.000  -3.169  -0.000   0.000  -5.681  -0.000   0.000
  0.000   0.000  -0.000  -3.171  -0.000  -0.000  -5.683  -0.000
  0.000   0.000   0.000  -0.000  -3.169   0.000  -0.000  -5.681
 -0.000  -0.000  -5.681  -0.000   0.000 -10.161  -0.000   0.000
  0.000   0.000  -0.000  -5.683  -0.000  -0.000 -10.163  -0.000
  0.000   0.000   0.000  -0.000  -5.681   0.000  -0.000 -10.161
 total augmentation occupancy for first ion, spin component:           1
  7.880  -2.765  -0.000  -0.002  -0.000   0.000   0.001   0.000
 -2.765   1.007   0.000   0.001  -0.000  -0.000  -0.000   0.000
 -0.000   0.000   7.264  -0.008   0.000  -2.462   0.003  -0.000
 -0.002   0.001  -0.008   3.235  -0.000   0.003  -0.862   0.000
 -0.000  -0.000   0.000  -0.000   7.263  -0.000   0.000  -2.462
  0.000  -0.000  -2.462   0.003  -0.000   0.849  -0.001   0.000
  0.001  -0.000   0.003  -0.862   0.000  -0.001   0.236  -0.000
  0.000   0.000  -0.000   0.000  -2.462   0.000  -0.000   0.849


------------------------ aborting loop because EDIFF is reached ----------------------------------------


    FORLOC:  cpu time    0.0658: real time    0.0664
    FORNL :  cpu time    1.0820: real time    1.0957
    FORCOR:  cpu time    0.3984: real time    0.4012
    OFIELD:  cpu time    0.0017: real time    0.0017

 VOLUME and BASIS-vectors are now :
 -----------------------------------------------------------------------------
  energy-cutoff  :     1000.00
  volume of cell :     3288.85
      direct lattice vectors                 reciprocal lattice vectors
    12.325000000  0.000000000  0.000000000     0.081135903  0.046843835  0.000000000
    -6.162500000 10.673763102  0.000000000     0.000000000  0.093687670  0.000000000
     0.000000000  0.000000000 25.000000000     0.000000000  0.000000000  0.040000000

  length of vectors
    12.325000000 12.325000000 25.000000000     0.093687670  0.093687670  0.040000000


 FORCES acting on ions:
    Electron-Ion                     Ewald-Force                    Non-Local-Force
 -----------------------------------------------------------------------------------------------
   0.514E+01 0.447E+01 0.245E+02   -.515E+01 -.447E+01 -.246E+02   0.908E-02 -.143E-02 0.801E-02
   0.767E+01 0.373E+01 0.286E+02   -.768E+01 -.373E+01 -.286E+02   0.110E-01 -.551E-02 -.625E-02
   0.338E+01 0.897E+01 0.318E+02   -.338E+01 -.899E+01 -.318E+02   -.978E-03 0.209E-01 0.829E-02
   0.461E+01 0.668E+01 0.410E+02   -.462E+01 -.669E+01 -.410E+02   0.197E-01 0.478E-02 0.669E-02
   0.550E+01 0.130E+01 0.248E+02   -.550E+01 -.129E+01 -.248E+02   0.300E-02 -.936E-02 -.121E-02
   0.567E+01 -.108E+01 0.251E+02   -.567E+01 0.108E+01 -.251E+02   -.766E-02 0.142E-02 -.968E-02
   0.858E+01 0.317E+01 0.381E+02   -.860E+01 -.316E+01 -.381E+02   0.237E-01 -.258E-01 -.315E-03
   0.830E+01 -.296E+01 0.395E+02   -.832E+01 0.297E+01 -.395E+02   0.372E-02 -.127E-01 -.110E-01
   -.398E+01 0.809E+01 0.320E+02   0.399E+01 -.810E+01 -.320E+02   -.769E-02 -.634E-02 -.972E-02
   -.622E+01 0.523E+01 0.399E+02   0.624E+01 -.525E+01 -.399E+02   -.393E-01 0.240E-01 0.668E-02
   0.142E+01 -.136E+01 0.219E+02   -.141E+01 0.136E+01 -.219E+02   0.121E-02 -.177E-02 -.391E-02
   0.120E+01 -.997E+00 0.209E+02   -.119E+01 0.995E+00 -.209E+02   -.104E-01 0.472E-02 0.295E-02
   0.332E+01 -.717E+01 0.426E+02   -.334E+01 0.719E+01 -.426E+02   0.401E-01 -.168E-01 0.200E-02
   0.181E+01 -.897E+01 0.328E+02   -.182E+01 0.898E+01 -.328E+02   0.114E-01 0.626E-03 -.201E-01
   -.494E+01 0.306E+01 0.241E+02   0.494E+01 -.306E+01 -.241E+02   0.808E-02 -.380E-02 0.287E-04
   -.687E+01 0.202E+01 0.262E+02   0.688E+01 -.203E+01 -.262E+02   -.529E-02 0.878E-02 -.128E-01
   -.848E+00 -.337E+00 0.203E+02   0.855E+00 0.334E+00 -.203E+02   -.399E-02 0.157E-02 0.115E-02
   0.409E+00 0.299E+01 0.211E+02   -.405E+00 -.299E+01 -.211E+02   -.556E-02 0.326E-02 0.909E-02
   -.135E+01 -.824E+01 0.281E+02   0.134E+01 0.824E+01 -.281E+02   0.115E-01 -.575E-02 0.141E-02
   -.682E+00 -.451E+01 0.226E+02   0.675E+00 0.451E+01 -.226E+02   0.350E-02 -.393E-02 -.164E-02
   0.768E+01 -.339E+01 0.300E+02   -.769E+01 0.339E+01 -.299E+02   0.198E-02 -.591E-02 -.275E-01
   0.501E+01 -.421E+01 0.262E+02   -.501E+01 0.421E+01 -.262E+02   -.713E-02 0.621E-02 -.110E-01
   -.160E+01 0.311E+01 0.467E+02   0.160E+01 -.312E+01 -.467E+02   -.164E-01 0.163E-01 0.295E-01
   -.224E+01 -.489E+01 0.457E+02   0.223E+01 0.490E+01 -.457E+02   0.158E-01 -.231E-01 0.158E-01
   0.257E+01 -.105E+01 0.220E+02   -.257E+01 0.105E+01 -.220E+02   0.482E-03 -.137E-02 -.781E-02
   0.554E+00 0.227E+01 0.220E+02   -.550E+00 -.227E+01 -.220E+02   -.872E-02 0.525E-02 0.165E-02
   -.909E+01 0.124E+01 0.338E+02   0.911E+01 -.125E+01 -.337E+02   0.243E-02 0.131E-01 -.598E-02
   -.868E+01 -.349E+01 0.321E+02   0.869E+01 0.348E+01 -.321E+02   -.181E-01 0.132E-01 0.459E-02
   0.300E+01 -.602E+01 0.269E+02   -.300E+01 0.602E+01 -.269E+02   0.919E-02 0.149E-02 -.145E-01
   0.267E+00 -.247E+01 0.229E+02   -.272E+00 0.247E+01 -.229E+02   -.282E-02 0.319E-02 -.706E-02
   -.652E+01 -.685E+01 0.364E+02   0.653E+01 0.686E+01 -.364E+02   -.198E-01 -.128E-01 0.226E-02
   -.428E+01 -.790E+01 0.290E+02   0.429E+01 0.790E+01 -.290E+02   0.679E-03 -.860E-02 0.814E-02
   0.332E+00 0.131E+01 0.208E+02   -.335E+00 -.131E+01 -.208E+02   0.834E-02 -.613E-02 0.478E-02
   0.872E+00 0.130E+01 0.218E+02   -.876E+00 -.130E+01 -.218E+02   -.994E-03 0.310E-02 -.449E-02
   -.347E+01 0.519E+00 0.229E+02   0.347E+01 -.522E+00 -.229E+02   0.430E-02 -.125E-02 0.117E-02
   -.305E+01 -.127E+01 0.226E+02   0.305E+01 0.127E+01 -.226E+02   -.775E-02 0.457E-02 0.377E-03
   -.599E+01 -.311E+01 0.247E+02   0.600E+01 0.311E+01 -.248E+02   -.750E-02 0.203E-02 0.269E-02
   -.372E+01 -.298E+01 0.223E+02   0.373E+01 0.298E+01 -.223E+02   -.756E-02 0.170E-02 0.970E-02
   -.342E+01 -.442E+01 0.233E+02   0.342E+01 0.442E+01 -.233E+02   -.618E-02 -.204E-02 0.700E-02
   -.517E+00 -.111E+01 0.212E+02   0.517E+00 0.112E+01 -.212E+02   0.258E-02 -.666E-03 0.836E-02
   0.128E+01 0.317E+01 0.216E+02   -.128E+01 -.317E+01 -.217E+02   -.464E-02 0.456E-02 0.806E-02
   0.403E+01 0.631E+01 0.254E+02   -.404E+01 -.632E+01 -.254E+02   0.324E-02 0.272E-02 0.115E-01
   0.348E+00 0.541E+01 0.230E+02   -.341E+00 -.542E+01 -.230E+02   -.413E-02 0.467E-02 0.437E-03
   -.827E-01 0.883E+01 0.290E+02   0.922E-01 -.883E+01 -.290E+02   -.148E-01 0.724E-02 0.585E-02
   -.102E+01 0.198E+01 0.227E+02   0.102E+01 -.198E+01 -.227E+02   0.290E-02 -.311E-02 -.377E-02
   -.405E+01 0.502E+01 0.256E+02   0.405E+01 -.502E+01 -.256E+02   -.101E-01 0.206E-02 -.916E-02
   -.839E+00 -.222E+01 0.218E+02   0.835E+00 0.222E+01 -.218E+02   0.982E-02 -.245E-02 0.279E-02
   -.202E+01 0.781E+00 0.211E+02   0.202E+01 -.779E+00 -.211E+02   -.745E-03 0.239E-02 -.665E-02
   0.198E+00 -.139E+01 0.210E+02   -.201E+00 0.139E+01 -.210E+02   0.642E-02 -.399E-02 0.593E-02
   0.219E+01 0.158E+01 0.211E+02   -.220E+01 -.158E+01 -.211E+02   0.364E-02 0.100E-02 0.297E-02
   0.332E-01 -.129E-01 -.342E+03   -.357E-01 0.155E-01 0.342E+03   -.333E-02 0.215E-02 -.510E-02
   -.229E+03 0.156E+03 -.525E+03   0.279E+03 -.190E+03 0.529E+03   -.511E+02 0.348E+02 -.342E+01
   0.229E+03 -.156E+03 -.503E+03   -.279E+03 0.190E+03 0.500E+03   0.511E+02 -.348E+02 0.309E+01
 -----------------------------------------------------------------------------------------------
   -.354E-02 0.114E-01 0.340E+00   0.171E-12 -.142E-12 0.568E-13   0.363E-02 -.116E-01 -.339E+00
 
 
 POSITION                                       TOTAL-FORCE (eV/Angst)
 -----------------------------------------------------------------------------------
     11.98348      0.00342      0.01417         0.002777     -0.001051     -0.001224
     -0.34154      1.42665      0.01100        -0.002105     -0.000141     -0.003268
      2.12355      0.00315      0.01249        -0.001203      0.007651     -0.006007
      2.12326      1.42653      0.00641         0.010011     -0.000005     -0.006744
     10.75099      2.13819      0.01213         0.000155     -0.005013     -0.000046
     -1.57382      3.56123      0.01110        -0.007654      0.005252     -0.001559
      0.89078      2.13854      0.00548         0.006745     -0.016424      0.002585
      0.89099      3.56147      0.00181        -0.013602     -0.001024      0.011767
      4.58864      0.00346      0.01135         0.004627     -0.016817     -0.003596
      4.58894      1.42623      0.00646        -0.019182      0.010606      0.014440
      9.51854      4.27281      0.01369         0.006895     -0.003548      0.000162
     -2.80632      5.69591      0.01434        -0.006235      0.003289      0.000824
      2.12300      4.27302      0.00000         0.020645     -0.002887      0.020862
      2.12335      5.69594      0.00581        -0.001525      0.010270     -0.002638
      7.05344      0.00333      0.01399         0.008577     -0.004736     -0.000412
      7.05353      1.42635      0.01368        -0.001514      0.004393     -0.003777
      8.28610      6.40752      0.01601         0.003402     -0.001571     -0.000754
     -4.03885      7.83070      0.01636        -0.001831      0.000957     -0.000156
      3.35586      6.40753      0.01007         0.004006      0.000546     -0.001533
      3.35599      7.83072      0.01320        -0.003463      0.000578     -0.000564
     -0.34146      4.27290      0.00723        -0.002041     -0.001027     -0.004481
     -0.34138      5.69591      0.00946        -0.008569      0.005498     -0.001155
      3.35624      2.13791      0.00222        -0.010919      0.009649      0.018531
      3.35573      3.56155      0.00139         0.011848     -0.012710      0.010569
     -1.57395      6.40758      0.01311         0.006279     -0.004201     -0.000648
     -1.57385      7.83068      0.01438        -0.004583      0.003701      0.000103
      5.82093      2.13784      0.01033         0.017359      0.004295     -0.003027
      5.82114      3.56097      0.01156        -0.004469      0.006823     -0.003810
      0.89092      6.40755      0.00907         0.004023      0.001894     -0.002224
      0.89106      7.83068      0.01235        -0.007100      0.003078      0.000285
      4.58871      4.27293      0.00850        -0.009611     -0.005100     -0.009937
      4.58852      5.69606      0.01149         0.001750      0.000923     -0.003843
      9.51845      0.00337      0.01490         0.004501     -0.004547      0.000204
      9.51855      1.42644      0.01438        -0.004977      0.005915     -0.000364
      8.28593      2.13803      0.01453         0.005798     -0.003795      0.000540
      8.28613      3.56115      0.01464        -0.004062      0.001916     -0.000011
      7.05356      4.27269      0.01457         0.003637     -0.000931     -0.000553
      7.05362      5.69588      0.01553        -0.002231      0.001191     -0.000197
      5.82112      6.40755      0.01489        -0.002193      0.001884     -0.000087
      5.82102      7.83073      0.01579         0.002556      0.000563     -0.000326
      7.05363      8.54227      0.01631        -0.004454      0.000655      0.001047
     -5.27149      9.96549      0.01495        -0.000822     -0.002587     -0.002180
     -2.80638      8.54234      0.01558         0.003471     -0.001948     -0.001134
     -2.80627      9.96553      0.01362        -0.004942     -0.000428     -0.004060
     -0.34149      8.54239      0.01378         0.005860     -0.004108      0.000197
     -0.34138      9.96550      0.01354        -0.005532      0.000209     -0.001273
      2.12343      8.54232      0.01336         0.005570     -0.001506      0.000813
      2.12354      9.96544      0.01469        -0.005913      0.004106     -0.001917
      4.58846      8.54235      0.01505         0.003457     -0.002828      0.000930
      4.58853      9.96550      0.01517        -0.003377      0.003300      0.000217
      3.04930      2.68154      4.71937        -0.005694      0.004707      0.027031
      4.02070      2.02068      4.78379        -0.526123      0.357550     -0.051997
      2.07767      3.34267      4.65992         0.531977     -0.362470      0.014396
 -----------------------------------------------------------------------------------
    total drift:                                0.000084     -0.000175      0.000578


--------------------------------------------------------------------------------------------------------



  FREE ENERGIE OF THE ION-ELECTRON SYSTEM (eV)
  ---------------------------------------------------
  free  energy   TOTEN  =      -484.77642710 eV

  energy  without entropy=     -484.77642710  energy(sigma->0) =     -484.77642710
 


--------------------------------------------------------------------------------------------------------


    POTLOK:  cpu time    0.3809: real time    0.3835


--------------------------------------------------------------------------------------------------------


     LOOP+:  cpu time  142.5737: real time  144.2945
    4ORBIT:  cpu time    0.0000: real time    0.0000

 total amount of memory used by VASP MPI-rank0   215378. kBytes
=======================================================================

   base      :      30000. kBytes
   nonl-proj :      57634. kBytes
   fftplans  :      45914. kBytes
   grid      :      67588. kBytes
   one-center:         43. kBytes
   wavefun   :      14199. kBytes
 
  
  
 General timing and accounting informations for this job:
 ========================================================
  
                  Total CPU time used (sec):      183.101
                            User time (sec):      170.171
                          System time (sec):       12.930
                         Elapsed time (sec):      186.432
  
                   Maximum memory used (kb):      579124.
                   Average memory used (kb):          N/A
  
                          Minor page faults:        63357
                          Major page faults:          100
                 Voluntary context switches:         3671
