 vasp.6.2.1 16May21 (build Nov 06 2021 14:46:37) complex                        
  
 executed on             LinuxIFC date 2025.03.03  16:17:11
 running on  112 total cores
 distrk:  each k-point on  112 cores,    1 groups
 distr:  one band on NCORE=   4 cores,   28 groups


--------------------------------------------------------------------------------------------------------


 INCAR:
   ALGO = Conjugate
   NCORE = 4
   ISMEAR = 0
   SIGMA = 0.01
   PREC = Accurate
   EDIFF = 1E-6
   ENCUT = 1000
   ISIF = 0
   LWAVE = .FALSE.
   LCHARGE = .FALSE.
   SYMPREC = 1E-6

 POTCAR:    PAW_PBE C_h 06Feb2004                 
 POTCAR:    PAW_PBE O_h 06Feb2004                 
 -----------------------------------------------------------------------------
|                                                                             |
|           W    W    AA    RRRRR   N    N  II  N    N   GGGG   !!!           |
|           W    W   A  A   R    R  NN   N  II  NN   N  G    G  !!!           |
|           W    W  A    A  R    R  N N  N  II  N N  N  G       !!!           |
|           W WW W  AAAAAA  RRRRR   N  N N  II  N  N N  G  GGG   !            |
|           WW  WW  A    A  R   R   N   NN  II  N   NN  G    G                |
|           W    W  A    A  R    R  N    N  II  N    N   GGGG   !!!           |
|                                                                             |
|     For optimal performance we recommend to set                             |
|       NCORE = 2 up to number-of-cores-per-socket                            |
|     NCORE specifies how many cores store one orbital (NPAR=cpu/NCORE).      |
|     This setting can greatly improve the performance of VASP for DFT.       |
|     The default, NCORE=1 might be grossly inefficient on modern             |
|     multi-core architectures or massively parallel machines. Do your        |
|     own testing! More info at https://www.vasp.at/wiki/index.php/NCORE      |
|     Unfortunately you need to use the default for GW and RPA                |
|     calculations (for HF NCORE is supported but not extensively tested      |
|     yet).                                                                   |
|                                                                             |
 -----------------------------------------------------------------------------

 POTCAR:    PAW_PBE C_h 06Feb2004                 
   VRHFIN =C: s2p2                                                                                  
   LEXCH  = PE                                                                                      
   EATOM  =   147.1560 eV,   10.8157 Ry                                                             
                                                                                                    
   TITEL  = PAW_PBE C_h 06Feb2004                                                                   
   LULTRA =        F    use ultrasoft PP ?                                                          
   IUNSCR =        1    unscreen: 0-lin 1-nonlin 2-no                                               
   RPACOR =    0.800    partial core radius                                                         
   POMASS =   12.011; ZVAL   =    4.000    mass and valenz                                          
   RCORE  =    1.100    outmost cutoff radius                                                       
   RWIGS  =    1.630; RWIGS  =    0.863    wigner-seitz radius (au A)                               
   ENMAX  =  700.000; ENMIN  =  500.000 eV                                                          
   ICORE  =        2    local potential                                                             
   LCOR   =        T    correct aug charges                                                         
   LPAW   =        T    paw PP                                                                      
   EAUG   =  946.768                                                                                
   DEXC   =    0.000                                                                                
   RMAX   =    1.128    core radius for proj-oper                                                   
   RAUG   =    1.300    factor for augmentation sphere                                              
   RDEP   =    1.162    radius for radial grids                                                     
   RDEPT  =    1.088    core radius for aug-charge                                                  
                                                                                                    
   Atomic configuration                                                                             
    4 entries                                                                                       
     n  l   j            E        occ.                                                              
     1  0  0.50      -273.3789   2.0000                                                             
     2  0  0.50       -13.7508   2.0000                                                             
     2  1  0.50        -5.2854   2.0000                                                             
     3  2  1.50        -5.4423   0.0000                                                             
   Description                                                                                      
     l       E           TYP  RCUT    TYP  RCUT                                                     
     0    -13.7508458     23  1.100                                                                 
     0     -8.2022199     23  1.100                                                                 
     1     -5.2854383     23  1.100                                                                 
     1      1.1560700     23  1.100                                                                 
     2     -5.4423304      7  1.100                                                                 
  local pseudopotential read in
  partial core-charges read in
  partial kinetic energy density read in
  atomic valenz-charges read in
  non local Contribution for L=           0  read in
    real space projection operators read in
  non local Contribution for L=           0  read in
    real space projection operators read in
  non local Contribution for L=           1  read in
    real space projection operators read in
  non local Contribution for L=           1  read in
    real space projection operators read in
    PAW grid and wavefunctions read in
 
   number of l-projection  operators is LMAX  =           4
   number of lm-projection operators is LMMAX =           8
 
 POTCAR:    PAW_PBE O_h 06Feb2004                 
   VRHFIN =O: s2p4                                                                                  
   LEXCH  = PE                                                                                      
   EATOM  =   432.3788 eV,   31.7789 Ry                                                             
                                                                                                    
   TITEL  = PAW_PBE O_h 06Feb2004                                                                   
   LULTRA =        F    use ultrasoft PP ?                                                          
   IUNSCR =        1    unscreen: 0-lin 1-nonlin 2-no                                               
   RPACOR =    0.800    partial core radius                                                         
   POMASS =   16.000; ZVAL   =    6.000    mass and valenz                                          
   RCORE  =    1.100    outmost cutoff radius                                                       
   RWIGS  =    1.400; RWIGS  =    0.741    wigner-seitz radius (au A)                               
   ENMAX  =  700.000; ENMIN  =  500.000 eV                                                          
   ICORE  =        2    local potential                                                             
   LCOR   =        T    correct aug charges                                                         
   LPAW   =        T    paw PP                                                                      
   EAUG   =  888.804                                                                                
   DEXC   =    0.000                                                                                
   RMAX   =    1.128    core radius for proj-oper                                                   
   RAUG   =    1.300    factor for augmentation sphere                                              
   RDEP   =    1.125    radius for radial grids                                                     
   RDEPT  =    1.088    core radius for aug-charge                                                  
                                                                                                    
   Atomic configuration                                                                             
    4 entries                                                                                       
     n  l   j            E        occ.                                                              
     1  0  0.50      -514.6923   2.0000                                                             
     2  0  0.50       -23.9615   2.0000                                                             
     2  1  0.50        -9.0305   4.0000                                                             
     3  2  1.50        -9.5241   0.0000                                                             
   Description                                                                                      
     l       E           TYP  RCUT    TYP  RCUT                                                     
     0    -23.9615319     23  1.100                                                                 
     0    -25.3221145     23  1.100                                                                 
     1     -9.0304911     23  1.100                                                                 
     1     -5.4802209     23  1.100                                                                 
     2     -9.5240782      7  1.100                                                                 
  local pseudopotential read in
  partial core-charges read in
  partial kinetic energy density read in
  atomic valenz-charges read in
  non local Contribution for L=           0  read in
    real space projection operators read in
  non local Contribution for L=           0  read in
    real space projection operators read in
  non local Contribution for L=           1  read in
    real space projection operators read in
  non local Contribution for L=           1  read in
    real space projection operators read in
    PAW grid and wavefunctions read in
 
   number of l-projection  operators is LMAX  =           4
   number of lm-projection operators is LMMAX =           8
 
 -----------------------------------------------------------------------------
|                                                                             |
|               ----> ADVICE to this user running VASP <----                  |
|                                                                             |
|     You have a (more or less) 'large supercell' and for larger cells it     |
|     might be more efficient to use real-space projection operators.         |
|     Therefore, try LREAL= Auto in the INCAR file.                           |
|     Mind: For very accurate calculation, you might also keep the            |
|     reciprocal projection scheme (i.e. LREAL=.FALSE.).                      |
|                                                                             |
 -----------------------------------------------------------------------------

  PAW_PBE C_h 06Feb2004                 :
 energy of atom  1       EATOM= -147.1560
 kinetic energy error for atom=    0.0031 (will be added to EATOM!!)
  PAW_PBE O_h 06Feb2004                 :
 energy of atom  2       EATOM= -432.3788
 kinetic energy error for atom=    0.0171 (will be added to EATOM!!)
 
 
 POSCAR:  C  O
  positions in cartesian coordinates
  No initial velocities read in
 exchange correlation table for  LEXCH =        8
   RHO(1)=    0.500       N(1)  =     2000
   RHO(2)=  100.500       N(2)  =     4000
 


--------------------------------------------------------------------------------------------------------


 ion  position               nearest neighbor table
   1  0.972  0.000  0.001-  50 1.42   2 1.42  42 1.42
   2  0.039  0.134  0.001-   5 1.42   7 1.42   1 1.42
   3  0.172  0.000  0.001-  42 1.42  44 1.42   4 1.42
   4  0.239  0.134  0.000-   7 1.42   3 1.42  23 1.42
   5  0.972  0.200  0.001-   6 1.42   2 1.42  34 1.42
   6  0.039  0.334  0.001-   5 1.42  21 1.42  11 1.42
   7  0.172  0.200  0.000-   8 1.42   2 1.42   4 1.42
   8  0.239  0.334  0.000-  13 1.42   7 1.42  21 1.42
   9  0.372  0.000  0.001-  10 1.42  44 1.42  46 1.42
  10  0.439  0.134  0.000-  27 1.42   9 1.42  23 1.42
  11  0.972  0.400  0.001-  12 1.42  36 1.42   6 1.42
  12  0.039  0.534  0.001-  25 1.42  11 1.42  17 1.42
  13  0.372  0.400  0.000-   8 1.42  14 1.42  24 1.42
  14  0.439  0.534  0.000-  13 1.42  29 1.42  19 1.42
  15  0.572  0.000  0.001-  46 1.42  16 1.42  48 1.42
  16  0.639  0.134  0.001-  15 1.42  35 1.42  27 1.42
  17  0.972  0.600  0.001-  38 1.42  18 1.42  12 1.42
  18  0.039  0.734  0.001-  43 1.42  41 1.42  17 1.42
  19  0.572  0.600  0.001-  14 1.42  20 1.42  32 1.42
  20  0.639  0.734  0.001-  49 1.42  19 1.42  47 1.42
  21  0.172  0.400  0.000-  22 1.42   8 1.42   6 1.42
  22  0.239  0.534  0.000-  21 1.42  29 1.42  25 1.42
  23  0.372  0.200  0.000-  10 1.42   4 1.42  24 1.42
  24  0.439  0.334  0.000-  13 1.42  31 1.42  23 1.42
  25  0.172  0.600  0.001-  26 1.42  12 1.42  22 1.42
  26  0.239  0.734  0.001-  25 1.42  45 1.42  43 1.42
  27  0.572  0.200  0.001-  10 1.42  28 1.42  16 1.42
  28  0.639  0.334  0.001-  27 1.42  37 1.42  31 1.42
  29  0.372  0.600  0.000-  22 1.42  14 1.42  30 1.42
  30  0.439  0.734  0.001-  47 1.42  29 1.42  45 1.42
  31  0.572  0.400  0.000-  32 1.42  28 1.42  24 1.42
  32  0.639  0.534  0.001-  31 1.42  39 1.42  19 1.42
  33  0.772  0.000  0.001-  34 1.42  48 1.42  50 1.42
  34  0.839  0.134  0.001-  33 1.42   5 1.42  35 1.42
  35  0.772  0.200  0.001-  36 1.42  16 1.42  34 1.42
  36  0.839  0.334  0.001-  35 1.42  11 1.42  37 1.42
  37  0.772  0.400  0.001-  28 1.42  38 1.42  36 1.42
  38  0.839  0.534  0.001-  17 1.42  37 1.42  39 1.42
  39  0.772  0.600  0.001-  40 1.42  38 1.42  32 1.42
  40  0.839  0.734  0.001-  39 1.42  49 1.42  41 1.42
  41  0.972  0.800  0.001-  18 1.42  42 1.42  40 1.42
  42  0.039  0.934  0.001-   3 1.42  41 1.42   1 1.42
  43  0.172  0.800  0.001-  18 1.42  44 1.42  26 1.42
  44  0.239  0.934  0.001-   9 1.42  43 1.42   3 1.42
  45  0.372  0.800  0.001-  26 1.42  46 1.42  30 1.42
  46  0.439  0.934  0.001-  15 1.42  45 1.42   9 1.42
  47  0.572  0.800  0.001-  30 1.42  48 1.42  20 1.42
  48  0.639  0.934  0.001-  47 1.42  33 1.42  15 1.42
  49  0.772  0.800  0.001-  50 1.42  20 1.42  40 1.42
  50  0.839  0.934  0.001-  49 1.42   1 1.42  33 1.42
  51  0.373  0.251  0.149-  52 1.18  53 1.18
  52  0.421  0.189  0.152-  51 1.18
  53  0.325  0.313  0.146-  51 1.18
 
  LATTYP: Found a hexagonal cell.
 ALAT       =    12.3250000000
 C/A-ratio  =     1.6227180527
  
  Lattice vectors:
  
 A1 = (  12.3250000000,   0.0000000000,   0.0000000000)
 A2 = (  -6.1625000000,  10.6737631016,   0.0000000000)
 A3 = (   0.0000000000,   0.0000000000,  20.0000000000)


Analysis of symmetry for initial positions (statically):
=====================================================================
 Subroutine PRICEL returns:
 Original cell was already a primitive cell.
 

 Routine SETGRP: Setting up the symmetry group for a 
 hexagonal supercell.


 Subroutine GETGRP returns: Found  1 space group operations
 (whereof  1 operations were pure point group operations)
 out of a pool of 24 trial point group operations.


The static configuration has the point symmetry C_1 .


Analysis of symmetry for dynamics (positions and initial velocities):
=====================================================================
 Subroutine PRICEL returns:
 Original cell was already a primitive cell.
 

 Routine SETGRP: Setting up the symmetry group for a 
 hexagonal supercell.


 Subroutine GETGRP returns: Found  1 space group operations
 (whereof  1 operations were pure point group operations)
 out of a pool of 24 trial point group operations.


The dynamic configuration has the point symmetry C_1 .


 Subroutine INISYM returns: Found  1 space group operations
 (whereof  1 operations are pure point group operations),
 and found     1 'primitive' translations


----------------------------------------------------------------------------------------

                                     Primitive cell                                     

  volume of cell :    2631.0826

  direct lattice vectors                    reciprocal lattice vectors
    12.325000000  0.000000000  0.000000000     0.081135903  0.046843835  0.000000000
    -6.162500000 10.673763102  0.000000000     0.000000000  0.093687670  0.000000000
     0.000000000  0.000000000 20.000000000     0.000000000  0.000000000  0.050000000

  length of vectors
    12.325000000 12.325000000 20.000000000     0.093687670  0.093687670  0.050000000

  position of ions in fractional coordinates (direct lattice)
     0.972450841  0.000320818  0.000708389
     0.039118382  0.133659505  0.000550216
     0.172443627  0.000295449  0.000624535
     0.239096278  0.133647917  0.000320585
     0.972452058  0.200322012  0.000606523
     0.039128360  0.333643771  0.000555187
     0.172451764  0.200354552  0.000273959
     0.239124359  0.333665720  0.000090325
     0.372465565  0.000324403  0.000567391
     0.439137473  0.133619939  0.000322923
     0.972449824  0.400309362  0.000684513
     0.039124981  0.533636789  0.000716763
     0.372416176  0.400329481  0.000000000
     0.439099602  0.533638981  0.000290518
     0.572443676  0.000312125  0.000699475
     0.639110207  0.133631751  0.000684093
     0.972452703  0.600305653  0.000800361
     0.039124495  0.733640359  0.000818141
     0.572433471  0.600306242  0.000503618
     0.639111888  0.733641879  0.000659881
     0.172454630  0.400318228  0.000361306
     0.239120185  0.533636548  0.000473136
     0.372459750  0.200295993  0.000111246
     0.439107096  0.333673419  0.000069702
     0.172452155  0.600311506  0.000655425
     0.239123371  0.733638574  0.000718912
     0.572431082  0.200289171  0.000516621
     0.639112773  0.333618630  0.000577970
     0.372439808  0.600308022  0.000453556
     0.439116090  0.733637858  0.000617737
     0.572469358  0.400320504  0.000424897
     0.639119408  0.533650873  0.000574513
     0.772445723  0.000315427  0.000745201
     0.839116277  0.133640203  0.000719132
     0.772440513  0.200307432  0.000726291
     0.839120241  0.333635728  0.000731834
     0.772446320  0.400298367  0.000728722
     0.839118980  0.533633964  0.000776376
     0.772456143  0.600308173  0.000744639
     0.839115033  0.733643180  0.000789390
     0.972455313  0.800305582  0.000815291
     0.039114714  0.933643289  0.000747563
     0.172457971  0.800312211  0.000779216
     0.239134551  0.933647193  0.000681063
     0.372451396  0.800316674  0.000689249
     0.439124489  0.933644769  0.000676788
     0.572441101  0.800310054  0.000668168
     0.639115067  0.933638985  0.000734556
     0.772445098  0.800313187  0.000752577
     0.839116614  0.933644338  0.000758538
     0.373021009  0.251226878  0.148650889
     0.420879805  0.189313152  0.151871982
     0.325156981  0.313167186  0.145678146

  ion indices of the primitive-cell ions
   primitive index   ion index
                 1           1
                 2           2
                 3           3
                 4           4
                 5           5
                 6           6
                 7           7
                 8           8
                 9           9
                10          10
                11          11
                12          12
                13          13
                14          14
                15          15
                16          16
                17          17
                18          18
                19          19
                20          20
                21          21
                22          22
                23          23
                24          24
                25          25
                26          26
                27          27
                28          28
                29          29
                30          30
                31          31
                32          32
                33          33
                34          34
                35          35
                36          36
                37          37
                38          38
                39          39
                40          40
                41          41
                42          42
                43          43
                44          44
                45          45
                46          46
                47          47
                48          48
                49          49
                50          50
                51          51
                52          52
                53          53

----------------------------------------------------------------------------------------

 
 
 KPOINTS: auto                                    

Automatic generation of k-mesh.
 Grid dimensions read from file:
 generate k-points for:    1    1    1

 Generating k-lattice:

  Cartesian coordinates                     Fractional coordinates (reciprocal lattice)
     0.081135903  0.046843835  0.000000000     1.000000000 -0.000000000  0.000000000
     0.000000000  0.093687670  0.000000000     0.000000000  1.000000000  0.000000000
     0.000000000  0.000000000  0.050000000     0.000000000  0.000000000  1.000000000

  Length of vectors
     0.093687670  0.093687670  0.050000000

  Shift w.r.t. Gamma in fractional coordinates (k-lattice)
     0.000000000  0.000000000  0.000000000

 
 Subroutine IBZKPT returns following result:
 ===========================================
 
 Found      1 irreducible k-points:
 
 Following reciprocal coordinates:
            Coordinates               Weight
  0.000000  0.000000  0.000000      1.000000
 
 Following cartesian coordinates:
            Coordinates               Weight
  0.000000  0.000000  0.000000      1.000000
 


--------------------------------------------------------------------------------------------------------




 Dimension of arrays:
   k-points           NKPTS =      1   k-points in BZ     NKDIM =      1   number of bands    NBANDS=    140
   number of dos      NEDOS =    301   number of ions     NIONS =     53
   non local maximal  LDIM  =      4   non local SUM 2l+1 LMDIM =      8
   total plane-waves  NPLWV = ******
   max r-space proj   IRMAX =      1   max aug-charges    IRDMAX=   9736
   dimension x,y,z NGX =   128 NGY =  128 NGZ =  210
   dimension x,y,z NGXF=   256 NGYF=  256 NGZF=  420
   support grid    NGXF=   256 NGYF=  256 NGZF=  420
   ions per type =              51   2
   NGX,Y,Z   is equivalent  to a cutoff of  17.27, 17.27, 17.46 a.u.
   NGXF,Y,Z  is equivalent  to a cutoff of  34.53, 34.53, 34.91 a.u.

 SYSTEM =  unknown system                          
 POSCAR =   C  O                                   

 Startparameter for this run:
   NWRITE =      2    write-flag & timer
   PREC   = accura    normal or accurate (medium, high low for compatibility)
   ISTART =      0    job   : 0-new  1-cont  2-samecut
   ICHARG =      2    charge: 1-file 2-atom 10-const
   ISPIN  =      1    spin polarized calculation?
   LNONCOLLINEAR =      F non collinear calculations
   LSORBIT =      F    spin-orbit coupling
   INIWAV =      1    electr: 0-lowe 1-rand  2-diag
   LASPH  =      F    aspherical Exc in radial PAW
 Electronic Relaxation 1
   ENCUT  = 1000.0 eV  73.50 Ry    8.57 a.u.  31.78 31.78 51.57*2*pi/ulx,y,z
   ENINI  = 1000.0     initial cutoff
   ENAUG  =  946.8 eV  augmentation charge cutoff
   NELM   =     60;   NELMIN=  2; NELMDL= -5     # of ELM steps 
   EDIFF  = 0.1E-05   stopping-criterion for ELM
   LREAL  =      F    real-space projection
   NLSPLINE    = F    spline interpolate recip. space projectors
   LCOMPAT=      F    compatible to vasp.4.4
   GGA_COMPAT  = T    GGA compatible to vasp.4.4-vasp.4.6
   LMAXPAW     = -100 max onsite density
   LMAXMIX     =    2 max onsite mixed and CHGCAR
   VOSKOWN=      0    Vosko Wilk Nusair interpolation
   ROPT   =    0.00000   0.00000
 Ionic relaxation
   EDIFFG = 0.1E-04   stopping-criterion for IOM
   NSW    =      0    number of steps for IOM
   NBLOCK =      1;   KBLOCK =      1    inner block; outer block 
   IBRION =     -1    ionic relax: 0-MD 1-quasi-New 2-CG
   NFREE  =      0    steps in history (QN), initial steepest desc. (CG)
   ISIF   =      0    stress and relaxation
   IWAVPR =     10    prediction:  0-non 1-charg 2-wave 3-comb
   ISYM   =      2    0-nonsym 1-usesym 2-fastsym
   LCORR  =      T    Harris-Foulkes like correction to forces

   POTIM  = 0.5000    time-step for ionic-motion
   TEIN   =    0.0    initial temperature
   TEBEG  =    0.0;   TEEND  =   0.0 temperature during run
   SMASS  =  -3.00    Nose mass-parameter (am)
   estimated Nose-frequenzy (Omega)   =  0.10E-29 period in steps = 0.13E+47 mass=  -0.347E-26a.u.
   SCALEE = 1.0000    scale energy and forces
   NPACO  =    256;   APACO  = 16.0  distance and # of slots for P.C.
   PSTRESS=    0.0 pullay stress

  Mass of Ions in am
   POMASS =  12.01 16.00
  Ionic Valenz
   ZVAL   =   4.00  6.00
  Atomic Wigner-Seitz radii
   RWIGS  =  -1.00 -1.00
  virtual crystal weights 
   VCA    =   1.00  1.00
   NELECT =     216.0000    total number of electrons
   NUPDOWN=      -1.0000    fix difference up-down

 DOS related values:
   EMIN   =  10.00;   EMAX   =-10.00  energy-range for DOS
   EFERMI =   0.00
   ISMEAR =     0;   SIGMA  =   0.01  broadening in eV -4-tet -1-fermi 0-gaus

 Electronic relaxation 2 (details)
   IALGO  =     58    algorithm
   LDIAG  =      T    sub-space diagonalisation (order eigenvalues)
   LSUBROT=      F    optimize rotation matrix (better conditioning)
   TURBO    =      0    0=normal 1=particle mesh
   IRESTART =      0    0=no restart 2=restart with 2 vectors
   NREBOOT  =      0    no. of reboots
   NMIN     =      0    reboot dimension
   EREF     =   0.00    reference energy to select bands
   IMIX   =      4    mixing-type and parameters
     AMIX     =   0.40;   BMIX     =  1.00
     AMIX_MAG =   1.60;   BMIX_MAG =  1.00
     AMIN     =   0.10
     WC   =   100.;   INIMIX=   1;  MIXPRE=   1;  MAXMIX= -45

 Intra band minimization:
   WEIMIN = 0.0000     energy-eigenvalue tresh-hold
   EBREAK =  0.18E-08  absolut break condition
   DEPER  =   0.30     relativ break condition  

   TIME   =   0.40     timestep for ELM

  volume/ion in A,a.u.               =      49.64       335.01
  Fermi-wavevector in a.u.,A,eV,Ry     =   0.711510  1.344560  6.887909  0.506247
  Thomas-Fermi vector in A             =   1.798641
 
 Write flags
   LWAVE        =      F    write WAVECAR
   LDOWNSAMPLE  =      F    k-point downsampling of WAVECAR
   LCHARG       =      T    write CHGCAR
   LVTOT        =      F    write LOCPOT, total local potential
   LVHAR        =      F    write LOCPOT, Hartree potential only
   LELF         =      F    write electronic localiz. function (ELF)
   LORBIT       =      0    0 simple, 1 ext, 2 COOP (PROOUT), +10 PAW based schemes


 Dipole corrections
   LMONO  =      F    monopole corrections only (constant potential shift)
   LDIPOL =      F    correct potential (dipole corrections)
   IDIPOL =      0    1-x, 2-y, 3-z, 4-all directions 
   EPSILON=  1.0000000 bulk dielectric constant

 Exchange correlation treatment:
   GGA     =    --    GGA type
   LEXCH   =     8    internal setting for exchange type
   VOSKOWN=      0    Vosko Wilk Nusair interpolation
   LHFCALC =     F    Hartree Fock is set to
   LHFONE  =     F    Hartree Fock one center treatment
   AEXX    =    0.0000 exact exchange contribution

 Linear response parameters
   LEPSILON=     F    determine dielectric tensor
   LRPA    =     F    only Hartree local field effects (RPA)
   LNABLA  =     F    use nabla operator in PAW spheres
   LVEL    =     F    velocity operator in full k-point grid
   LINTERFAST=   F  fast interpolation
   KINTER  =     0    interpolate to denser k-point grid
   CSHIFT  =0.1000    complex shift for real part using Kramers Kronig
   OMEGAMAX=  -1.0    maximum frequency
   DEG_THRESHOLD= 0.2000000E-02 threshold for treating states as degnerate
   RTIME   =   -0.100 relaxation time in fs
  (WPLASMAI=    0.000 imaginary part of plasma frequency in eV, 0.658/RTIME)
   DFIELD  = 0.0000000 0.0000000 0.0000000 field for delta impulse in time
 
 Orbital magnetization related:
   ORBITALMAG=     F  switch on orbital magnetization
   LCHIMAG   =     F  perturbation theory with respect to B field
   DQ        =  0.001000  dq finite difference perturbation B field
   LLRAUG    =     F  two centre corrections for induced B field



--------------------------------------------------------------------------------------------------------


 Static calculation
 charge density and potential will be updated during run
 non-spin polarized calculation
 Conjugate gradient for all bands (Freysoldt, et al. PRB 79, 241103 (2009))
 preconditioned conjugated gradient                                        
 perform sub-space diagonalisation
    before iterative eigenvector-optimisation
 modified Broyden-mixing scheme, WC =      100.0
 initial mixing is a Kerker type mixing with AMIX =  0.4000 and BMIX =      1.0000
 Hartree-type preconditioning will be used
 using additional bands           32
 reciprocal scheme for non local part
 use partial core corrections
 no Harris-corrections to forces 
 use gradient corrections 
 use of overlap-Matrix (Vanderbilt PP)
 Gauss-broadening in eV      SIGMA  =   0.01


--------------------------------------------------------------------------------------------------------


  energy-cutoff  :     1000.00
  volume of cell :     2631.08
      direct lattice vectors                 reciprocal lattice vectors
    12.325000000  0.000000000  0.000000000     0.081135903  0.046843835  0.000000000
    -6.162500000 10.673763102  0.000000000     0.000000000  0.093687670  0.000000000
     0.000000000  0.000000000 20.000000000     0.000000000  0.000000000  0.050000000

  length of vectors
    12.325000000 12.325000000 20.000000000     0.093687670  0.093687670  0.050000000


 
 k-points in units of 2pi/SCALE and weight: auto                                    
   0.00000000  0.00000000  0.00000000       1.000
 
 k-points in reciprocal lattice and weights: auto                                    
   0.00000000  0.00000000  0.00000000       1.000
 
 position of ions in fractional coordinates (direct lattice) 
   0.97245084  0.00032082  0.00070839
   0.03911838  0.13365950  0.00055022
   0.17244363  0.00029545  0.00062454
   0.23909628  0.13364792  0.00032058
   0.97245206  0.20032201  0.00060652
   0.03912836  0.33364377  0.00055519
   0.17245176  0.20035455  0.00027396
   0.23912436  0.33366572  0.00009033
   0.37246557  0.00032440  0.00056739
   0.43913747  0.13361994  0.00032292
   0.97244982  0.40030936  0.00068451
   0.03912498  0.53363679  0.00071676
   0.37241618  0.40032948  0.00000000
   0.43909960  0.53363898  0.00029052
   0.57244368  0.00031213  0.00069947
   0.63911021  0.13363175  0.00068409
   0.97245270  0.60030565  0.00080036
   0.03912449  0.73364036  0.00081814
   0.57243347  0.60030624  0.00050362
   0.63911189  0.73364188  0.00065988
   0.17245463  0.40031823  0.00036131
   0.23912018  0.53363655  0.00047314
   0.37245975  0.20029599  0.00011125
   0.43910710  0.33367342  0.00006970
   0.17245216  0.60031151  0.00065542
   0.23912337  0.73363857  0.00071891
   0.57243108  0.20028917  0.00051662
   0.63911277  0.33361863  0.00057797
   0.37243981  0.60030802  0.00045356
   0.43911609  0.73363786  0.00061774
   0.57246936  0.40032050  0.00042490
   0.63911941  0.53365087  0.00057451
   0.77244572  0.00031543  0.00074520
   0.83911628  0.13364020  0.00071913
   0.77244051  0.20030743  0.00072629
   0.83912024  0.33363573  0.00073183
   0.77244632  0.40029837  0.00072872
   0.83911898  0.53363396  0.00077638
   0.77245614  0.60030817  0.00074464
   0.83911503  0.73364318  0.00078939
   0.97245531  0.80030558  0.00081529
   0.03911471  0.93364329  0.00074756
   0.17245797  0.80031221  0.00077922
   0.23913455  0.93364719  0.00068106
   0.37245140  0.80031667  0.00068925
   0.43912449  0.93364477  0.00067679
   0.57244110  0.80031005  0.00066817
   0.63911507  0.93363899  0.00073456
   0.77244510  0.80031319  0.00075258
   0.83911661  0.93364434  0.00075854
   0.37302101  0.25122688  0.14865089
   0.42087980  0.18931315  0.15187198
   0.32515698  0.31316719  0.14567815
 
 position of ions in cartesian coordinates  (Angst):
  11.98347958  0.00342433  0.01416777
  -0.34154264  1.42664989  0.01100432
   2.12354700  0.00315355  0.01249070
   2.12325634  1.42652621  0.00641170
  10.75098721  2.13818970  0.01213047
  -1.57382270  3.56123457  0.01110375
   0.89078307  2.13853702  0.00547917
   0.89099273  3.56146885  0.00180651
   4.58863896  0.00346260  0.01134782
   4.58893648  1.42622757  0.00645846
   9.51853763  4.27280730  0.01369027
  -2.80632132  5.69591267  0.01433526
   2.12299894  4.27302204  0.00000000
   2.12335237  5.69593607  0.00581036
   7.05344483  0.00333155  0.01398950
   7.05352764  1.42635365  0.01368187
   8.28609598  6.40752033  0.01600723
  -4.03884931  7.83070339  0.01636283
   3.35585531  6.40752662  0.01007237
   3.35598594  7.83071962  0.01319763
  -0.34145776  4.27290193  0.00722612
  -0.34137895  5.69591010  0.00946273
   3.35624236  2.13791198  0.00222492
   3.35573251  3.56155103  0.00139405
  -1.57394684  6.40758280  0.01310850
  -1.57385216  7.83068434  0.01437823
   5.82093107  2.13783916  0.01033241
   5.82114012  3.56096622  0.01155939
   0.89092245  6.40754561  0.00907111
   0.89106251  7.83067670  0.01235474
   4.58870974  4.27292622  0.00849795
   4.58852320  5.69606300  0.01149026
   9.51844972  0.00336679  0.01490402
   9.51855036  1.42644387  0.01438264
   8.28593477  2.13803408  0.01452582
   8.28612680  3.56114872  0.01463668
   7.05356221  4.27268994  0.01457444
   7.05362213  5.69588251  0.01552751
   5.82112285  6.40754723  0.01489279
   5.82101669  7.83073350  0.01578780
   7.05362858  8.54227219  0.01630582
  -5.27148792  9.96548729  0.01495127
  -2.80637951  8.54234295  0.01558431
  -2.80626749  9.96552896  0.01362126
  -0.34148805  8.54239058  0.01378498
  -0.34137657  9.96550309  0.01353576
   2.12342586  8.54231992  0.01336337
   2.12354296  9.96544135  0.01469111
   4.58845581  8.54235337  0.01505154
   4.58852904  9.96549848  0.01517076
   3.04929830  2.68153618  2.97301779
   4.02070129  2.02068374  3.03743965
   2.07766701  3.34267235  2.91356292
 


--------------------------------------------------------------------------------------------------------


 k-point   1 :   0.0000 0.0000 0.0000  plane waves:  189031

 maximum and minimum number of plane-waves per node :     47262    47254

 maximum number of plane-waves:    189031
 maximum index in each direction: 
   IXMAX=   31   IYMAX=   31   IZMAX=   51
   IXMIN=  -31   IYMIN=  -31   IZMIN=  -51


 parallel 3D FFT for wavefunctions:
    minimum data exchange during FFTs selected (reduces bandwidth)
 parallel 3D FFT for charge:
    minimum data exchange during FFTs selected (reduces bandwidth)


 total amount of memory used by VASP MPI-rank0   175916. kBytes
=======================================================================

   base      :      30000. kBytes
   nonl-proj :      46129. kBytes
   fftplans  :      35778. kBytes
   grid      :      52596. kBytes
   one-center:         43. kBytes
   wavefun   :      11370. kBytes
 
     INWAV:  cpu time    0.0000: real time    0.0000
 Broyden mixing: mesh for mixing (old mesh)
   NGX = 63   NGY = 63   NGZ =103
  (NGX  =256   NGY  =256   NGZ  =420)
  gives a total of 408807 points

 initial charge density was supplied:
 charge density of overlapping atoms calculated
 number of electron     216.0000000 magnetization 
 keeping initial charge density in first step


--------------------------------------------------------------------------------------------------------


 Maximum index for augmentation-charges          459 (set IRDMAX)


--------------------------------------------------------------------------------------------------------


 First call to EWALD:  gamma=   0.128
 Maximum number of real-space cells 3x 3x 2
 Maximum number of reciprocal cells 3x 3x 4

    FEWALD:  cpu time    0.0025: real time    0.0025


--------------------------------------- Iteration      1(   1)  ---------------------------------------


    POTLOK:  cpu time    0.2975: real time    0.3001
    SETDIJ:  cpu time    0.0049: real time    0.0051
    TRIAL :  cpu time    4.1952: real time    4.2483
    CORREC:  cpu time    0.0006: real time    0.0006
    --------------------------------------------
      LOOP:  cpu time    4.5019: real time    4.5731

 eigenvalue-minimisations  :   280
 total energy-change (2. order) : 0.2683153E+04  (-0.1114222E+05)
 number of electron     216.0000000 magnetization 
 augmentation part      216.0000000 magnetization 

 Free energy of the ion-electron system (eV)
  ---------------------------------------------------
  alpha Z        PSCENC =        59.93625244
  Ewald energy   TEWEN  =     34655.38404633
  -Hartree energ DENC   =    -40829.90294674
  -exchange      EXHF   =         0.00000000
  -V(xc)+E(xc)   XCENC  =       421.14100131
  PAW double counting   =      6525.96553977    -6260.36035765
  entropy T*S    EENTRO =        -0.00000000
  eigenvalues    EBANDS =      -258.53398328
  atomic energy  EATOM  =      8369.52358910
  ---------------------------------------------------
  free energy    TOTEN  =      2683.15314129 eV

  energy without entropy =     2683.15314129  energy(sigma->0) =     2683.15314129


--------------------------------------------------------------------------------------------------------




--------------------------------------- Iteration      1(   2)  ---------------------------------------


    TRIAL :  cpu time    6.7096: real time    6.7772
    CORREC:  cpu time    0.0001: real time    0.0001
    --------------------------------------------
      LOOP:  cpu time    6.7435: real time    6.8138

 eigenvalue-minimisations  :   504
 total energy-change (2. order) :-0.2495261E+04  (-0.2378771E+04)
 number of electron     216.0000000 magnetization 
 augmentation part      216.0000000 magnetization 

 Free energy of the ion-electron system (eV)
  ---------------------------------------------------
  alpha Z        PSCENC =        59.93625244
  Ewald energy   TEWEN  =     34655.38404633
  -Hartree energ DENC   =    -40829.90294674
  -exchange      EXHF   =         0.00000000
  -V(xc)+E(xc)   XCENC  =       421.14100131
  PAW double counting   =      6525.96553977    -6260.36035765
  entropy T*S    EENTRO =        -0.00000000
  eigenvalues    EBANDS =     -2753.79460378
  atomic energy  EATOM  =      8369.52358910
  ---------------------------------------------------
  free energy    TOTEN  =       187.89252078 eV

  energy without entropy =      187.89252078  energy(sigma->0) =      187.89252078


--------------------------------------------------------------------------------------------------------




--------------------------------------- Iteration      1(   3)  ---------------------------------------


    TRIAL :  cpu time    4.8040: real time    4.8512
    CORREC:  cpu time    0.0001: real time    0.0001
    --------------------------------------------
      LOOP:  cpu time    4.9067: real time    4.9853

 eigenvalue-minimisations  :   336
 total energy-change (2. order) :-0.6708528E+03  (-0.6682626E+03)
 number of electron     216.0000000 magnetization 
 augmentation part      216.0000000 magnetization 

 Free energy of the ion-electron system (eV)
  ---------------------------------------------------
  alpha Z        PSCENC =        59.93625244
  Ewald energy   TEWEN  =     34655.38404633
  -Hartree energ DENC   =    -40829.90294674
  -exchange      EXHF   =         0.00000000
  -V(xc)+E(xc)   XCENC  =       421.14100131
  PAW double counting   =      6525.96553977    -6260.36035765
  entropy T*S    EENTRO =        -0.00000000
  eigenvalues    EBANDS =     -3424.64742891
  atomic energy  EATOM  =      8369.52358910
  ---------------------------------------------------
  free energy    TOTEN  =      -482.96030434 eV

  energy without entropy =     -482.96030434  energy(sigma->0) =     -482.96030434


--------------------------------------------------------------------------------------------------------




--------------------------------------- Iteration      1(   4)  ---------------------------------------


    TRIAL :  cpu time    5.4382: real time    5.4910
    CORREC:  cpu time    0.0001: real time    0.0001
    --------------------------------------------
      LOOP:  cpu time    5.5015: real time    5.5668

 eigenvalue-minimisations  :   392
 total energy-change (2. order) :-0.3408087E+02  (-0.3393913E+02)
 number of electron     216.0000000 magnetization 
 augmentation part      216.0000000 magnetization 

 Free energy of the ion-electron system (eV)
  ---------------------------------------------------
  alpha Z        PSCENC =        59.93625244
  Ewald energy   TEWEN  =     34655.38404633
  -Hartree energ DENC   =    -40829.90294674
  -exchange      EXHF   =         0.00000000
  -V(xc)+E(xc)   XCENC  =       421.14100131
  PAW double counting   =      6525.96553977    -6260.36035765
  entropy T*S    EENTRO =        -0.00000000
  eigenvalues    EBANDS =     -3458.72829890
  atomic energy  EATOM  =      8369.52358910
  ---------------------------------------------------
  free energy    TOTEN  =      -517.04117433 eV

  energy without entropy =     -517.04117433  energy(sigma->0) =     -517.04117433


--------------------------------------------------------------------------------------------------------




--------------------------------------- Iteration      1(   5)  ---------------------------------------


    TRIAL :  cpu time    5.7533: real time    5.8094
    CORREC:  cpu time    0.0001: real time    0.0001
    CHARGE:  cpu time    0.2455: real time    0.2498
    --------------------------------------------
      LOOP:  cpu time    6.0742: real time    6.1376

 eigenvalue-minimisations  :   420
 total energy-change (2. order) :-0.7491257E+00  (-0.7471926E+00)
 number of electron     216.0000000 magnetization 
 augmentation part       -0.2642359 magnetization 

 Free energy of the ion-electron system (eV)
  ---------------------------------------------------
  alpha Z        PSCENC =        59.93625244
  Ewald energy   TEWEN  =     34655.38404633
  -Hartree energ DENC   =    -40829.90294674
  -exchange      EXHF   =         0.00000000
  -V(xc)+E(xc)   XCENC  =       421.14100131
  PAW double counting   =      6525.96553977    -6260.36035765
  entropy T*S    EENTRO =        -0.00000000
  eigenvalues    EBANDS =     -3459.47742463
  atomic energy  EATOM  =      8369.52358910
  ---------------------------------------------------
  free energy    TOTEN  =      -517.79030006 eV

  energy without entropy =     -517.79030006  energy(sigma->0) =     -517.79030006


--------------------------------------------------------------------------------------------------------




--------------------------------------- Iteration      1(   6)  ---------------------------------------


    POTLOK:  cpu time    0.2766: real time    0.2788
    SETDIJ:  cpu time    0.0030: real time    0.0030
    TRIAL :  cpu time    2.0152: real time    2.0349
    CORREC:  cpu time    0.8094: real time    0.8164
    CHARGE:  cpu time    0.2382: real time    0.2402
    --------------------------------------------
      LOOP:  cpu time    3.3972: real time    3.4296

 eigenvalue-minimisations  :     0
 total energy-change (2. order) : 0.5105411E+02  (-0.1547779E+02)
 number of electron     216.0000000 magnetization 
 augmentation part       -0.3646358 magnetization 

 Free energy of the ion-electron system (eV)
  ---------------------------------------------------
  alpha Z        PSCENC =        59.93625244
  Ewald energy   TEWEN  =     34655.38404633
  -Hartree energ DENC   =    -42241.08643209
  -exchange      EXHF   =         0.00000000
  -V(xc)+E(xc)   XCENC  =       468.97894010
  PAW double counting   =     89516.74489275   -89259.41396833
  entropy T*S    EENTRO =        -0.00000000
  eigenvalues    EBANDS =     -2036.80351061
  atomic energy  EATOM  =      8369.52358910
  ---------------------------------------------------
  free energy    TOTEN  =      -466.73619031 eV

  energy without entropy =     -466.73619031  energy(sigma->0) =     -466.73619031


--------------------------------------------------------------------------------------------------------




--------------------------------------- Iteration      1(   7)  ---------------------------------------


    POTLOK:  cpu time    0.2761: real time    0.2785
    SETDIJ:  cpu time    0.0030: real time    0.0030
    TRIAL :  cpu time    1.9959: real time    2.0305
    CORREC:  cpu time    0.8102: real time    0.8191
    CHARGE:  cpu time    0.2374: real time    0.2400
    --------------------------------------------
      LOOP:  cpu time    3.3481: real time    3.4332

 eigenvalue-minimisations  :     0
 total energy-change (2. order) :-0.1551061E+02  (-0.1753225E+01)
 number of electron     216.0000000 magnetization 
 augmentation part       -0.4128453 magnetization 

 Free energy of the ion-electron system (eV)
  ---------------------------------------------------
  alpha Z        PSCENC =        59.93625244
  Ewald energy   TEWEN  =     34655.38404633
  -Hartree energ DENC   =    -41735.75333207
  -exchange      EXHF   =         0.00000000
  -V(xc)+E(xc)   XCENC  =       452.07122051
  PAW double counting   =    105794.01932388  -105533.85695605
  entropy T*S    EENTRO =        -0.00000000
  eigenvalues    EBANDS =     -2543.57094659
  atomic energy  EATOM  =      8369.52358910
  ---------------------------------------------------
  free energy    TOTEN  =      -482.24680245 eV

  energy without entropy =     -482.24680245  energy(sigma->0) =     -482.24680245


--------------------------------------------------------------------------------------------------------




--------------------------------------- Iteration      1(   8)  ---------------------------------------


    POTLOK:  cpu time    0.2760: real time    0.2781
    SETDIJ:  cpu time    0.0030: real time    0.0030
    TRIAL :  cpu time    2.0053: real time    2.0251
    CORREC:  cpu time    0.8118: real time    0.8191
    CHARGE:  cpu time    0.2383: real time    0.2403
    --------------------------------------------
      LOOP:  cpu time    3.3976: real time    3.4299

 eigenvalue-minimisations  :     0
 total energy-change (2. order) :-0.1753092E+01  (-0.4461496E+00)
 number of electron     216.0000000 magnetization 
 augmentation part       -0.4291167 magnetization 

 Free energy of the ion-electron system (eV)
  ---------------------------------------------------
  alpha Z        PSCENC =        59.93625244
  Ewald energy   TEWEN  =     34655.38404633
  -Hartree energ DENC   =    -41714.11768767
  -exchange      EXHF   =         0.00000000
  -V(xc)+E(xc)   XCENC  =       451.51796826
  PAW double counting   =    110252.17805288  -109991.60898248
  entropy T*S    EENTRO =        -0.00000000
  eigenvalues    EBANDS =     -2566.81313309
  atomic energy  EATOM  =      8369.52358910
  ---------------------------------------------------
  free energy    TOTEN  =      -483.99989423 eV

  energy without entropy =     -483.99989423  energy(sigma->0) =     -483.99989423


--------------------------------------------------------------------------------------------------------




--------------------------------------- Iteration      1(   9)  ---------------------------------------


    POTLOK:  cpu time    0.2754: real time    0.2774
    SETDIJ:  cpu time    0.0028: real time    0.0028
    TRIAL :  cpu time    2.0091: real time    2.0291
    CORREC:  cpu time    0.8104: real time    0.8177
    CHARGE:  cpu time    0.2385: real time    0.2405
    --------------------------------------------
      LOOP:  cpu time    3.3882: real time    3.4251

 eigenvalue-minimisations  :     0
 total energy-change (2. order) :-0.4461365E+00  (-0.1400050E+00)
 number of electron     216.0000000 magnetization 
 augmentation part       -0.4362056 magnetization 

 Free energy of the ion-electron system (eV)
  ---------------------------------------------------
  alpha Z        PSCENC =        59.93625244
  Ewald energy   TEWEN  =     34655.38404633
  -Hartree energ DENC   =    -41728.76665810
  -exchange      EXHF   =         0.00000000
  -V(xc)+E(xc)   XCENC  =       451.69975077
  PAW double counting   =    112963.11032816  -112702.39585025
  entropy T*S    EENTRO =        -0.00000000
  eigenvalues    EBANDS =     -2552.93748917
  atomic energy  EATOM  =      8369.52358910
  ---------------------------------------------------
  free energy    TOTEN  =      -484.44603072 eV

  energy without entropy =     -484.44603072  energy(sigma->0) =     -484.44603072


--------------------------------------------------------------------------------------------------------




--------------------------------------- Iteration      1(  10)  ---------------------------------------


    POTLOK:  cpu time    0.2755: real time    0.2773
    SETDIJ:  cpu time    0.0030: real time    0.0030
    TRIAL :  cpu time    2.0083: real time    2.0282
    CORREC:  cpu time    0.8123: real time    0.8194
    CHARGE:  cpu time    0.2380: real time    0.2400
    --------------------------------------------
      LOOP:  cpu time    3.3644: real time    3.3984

 eigenvalue-minimisations  :     0
 total energy-change (2. order) :-0.1399013E+00  (-0.5414460E-01)
 number of electron     216.0000000 magnetization 
 augmentation part       -0.4373104 magnetization 

 Free energy of the ion-electron system (eV)
  ---------------------------------------------------
  alpha Z        PSCENC =        59.93625244
  Ewald energy   TEWEN  =     34655.38404633
  -Hartree energ DENC   =    -41729.65174695
  -exchange      EXHF   =         0.00000000
  -V(xc)+E(xc)   XCENC  =       451.65107515
  PAW double counting   =    113409.89494589  -113149.10511973
  entropy T*S    EENTRO =        -0.00000000
  eigenvalues    EBANDS =     -2552.21897426
  atomic energy  EATOM  =      8369.52358910
  ---------------------------------------------------
  free energy    TOTEN  =      -484.58593203 eV

  energy without entropy =     -484.58593203  energy(sigma->0) =     -484.58593203


--------------------------------------------------------------------------------------------------------




--------------------------------------- Iteration      1(  11)  ---------------------------------------


    POTLOK:  cpu time    0.2757: real time    0.2776
    SETDIJ:  cpu time    0.0030: real time    0.0031
    TRIAL :  cpu time    2.0082: real time    2.0283
    CORREC:  cpu time    0.8091: real time    0.8164
    CHARGE:  cpu time    0.2372: real time    0.2392
    --------------------------------------------
      LOOP:  cpu time    3.3952: real time    3.4284

 eigenvalue-minimisations  :     0
 total energy-change (2. order) :-0.5404001E-01  (-0.2162741E-01)
 number of electron     216.0000000 magnetization 
 augmentation part       -0.4369976 magnetization 

 Free energy of the ion-electron system (eV)
  ---------------------------------------------------
  alpha Z        PSCENC =        59.93625244
  Ewald energy   TEWEN  =     34655.38404633
  -Hartree energ DENC   =    -41725.93216499
  -exchange      EXHF   =         0.00000000
  -V(xc)+E(xc)   XCENC  =       451.59317487
  PAW double counting   =    112969.01827537  -112708.22693955
  entropy T*S    EENTRO =        -0.00000000
  eigenvalues    EBANDS =     -2555.93620562
  atomic energy  EATOM  =      8369.52358910
  ---------------------------------------------------
  free energy    TOTEN  =      -484.63997204 eV

  energy without entropy =     -484.63997204  energy(sigma->0) =     -484.63997204


--------------------------------------------------------------------------------------------------------




--------------------------------------- Iteration      1(  12)  ---------------------------------------


    POTLOK:  cpu time    0.2726: real time    0.2745
    SETDIJ:  cpu time    0.0032: real time    0.0032
    TRIAL :  cpu time    2.0073: real time    2.0271
    CORREC:  cpu time    0.8089: real time    0.8162
    CHARGE:  cpu time    0.2384: real time    0.2403
    --------------------------------------------
      LOOP:  cpu time    3.3937: real time    3.4260

 eigenvalue-minimisations  :     0
 total energy-change (2. order) :-0.2155916E-01  (-0.7614169E-02)
 number of electron     216.0000000 magnetization 
 augmentation part       -0.4371552 magnetization 

 Free energy of the ion-electron system (eV)
  ---------------------------------------------------
  alpha Z        PSCENC =        59.93625244
  Ewald energy   TEWEN  =     34655.38404633
  -Hartree energ DENC   =    -41724.09598947
  -exchange      EXHF   =         0.00000000
  -V(xc)+E(xc)   XCENC  =       451.56346767
  PAW double counting   =    112617.48891421  -112356.71841905
  entropy T*S    EENTRO =        -0.00000000
  eigenvalues    EBANDS =     -2557.74339244
  atomic energy  EATOM  =      8369.52358910
  ---------------------------------------------------
  free energy    TOTEN  =      -484.66153120 eV

  energy without entropy =     -484.66153120  energy(sigma->0) =     -484.66153120


--------------------------------------------------------------------------------------------------------




--------------------------------------- Iteration      1(  13)  ---------------------------------------


    POTLOK:  cpu time    0.2751: real time    0.2769
    SETDIJ:  cpu time    0.0030: real time    0.0030
    TRIAL :  cpu time    2.0079: real time    2.0278
    CORREC:  cpu time    0.8037: real time    0.8109
    CHARGE:  cpu time    0.2387: real time    0.2407
    --------------------------------------------
      LOOP:  cpu time    3.3960: real time    3.4280

 eigenvalue-minimisations  :     0
 total energy-change (2. order) :-0.7598205E-02  (-0.2230809E-02)
 number of electron     216.0000000 magnetization 
 augmentation part       -0.4369191 magnetization 

 Free energy of the ion-electron system (eV)
  ---------------------------------------------------
  alpha Z        PSCENC =        59.93625244
  Ewald energy   TEWEN  =     34655.38404633
  -Hartree energ DENC   =    -41723.70877779
  -exchange      EXHF   =         0.00000000
  -V(xc)+E(xc)   XCENC  =       451.54650539
  PAW double counting   =    112517.27368995  -112256.51230524
  entropy T*S    EENTRO =        -0.00000000
  eigenvalues    EBANDS =     -2558.11212959
  atomic energy  EATOM  =      8369.52358910
  ---------------------------------------------------
  free energy    TOTEN  =      -484.66912941 eV

  energy without entropy =     -484.66912941  energy(sigma->0) =     -484.66912941


--------------------------------------------------------------------------------------------------------




--------------------------------------- Iteration      1(  14)  ---------------------------------------


    POTLOK:  cpu time    0.2705: real time    0.2725
    SETDIJ:  cpu time    0.0028: real time    0.0029
    TRIAL :  cpu time    2.0150: real time    2.0347
    CORREC:  cpu time    0.8051: real time    0.8123
    CHARGE:  cpu time    0.2373: real time    0.2396
    --------------------------------------------
      LOOP:  cpu time    3.3351: real time    3.3929

 eigenvalue-minimisations  :     0
 total energy-change (2. order) :-0.2229823E-02  (-0.5957153E-03)
 number of electron     216.0000000 magnetization 
 augmentation part       -0.4367251 magnetization 

 Free energy of the ion-electron system (eV)
  ---------------------------------------------------
  alpha Z        PSCENC =        59.93625244
  Ewald energy   TEWEN  =     34655.38404633
  -Hartree energ DENC   =    -41723.70277212
  -exchange      EXHF   =         0.00000000
  -V(xc)+E(xc)   XCENC  =       451.54561067
  PAW double counting   =    112553.25399625  -112292.49517053
  entropy T*S    EENTRO =        -0.00000000
  eigenvalues    EBANDS =     -2558.11691138
  atomic energy  EATOM  =      8369.52358910
  ---------------------------------------------------
  free energy    TOTEN  =      -484.67135923 eV

  energy without entropy =     -484.67135923  energy(sigma->0) =     -484.67135923


--------------------------------------------------------------------------------------------------------




--------------------------------------- Iteration      1(  15)  ---------------------------------------


    POTLOK:  cpu time    0.2712: real time    0.2731
    SETDIJ:  cpu time    0.0030: real time    0.0030
    TRIAL :  cpu time    2.0103: real time    2.0299
    CORREC:  cpu time    0.8073: real time    0.8141
    CHARGE:  cpu time    0.2387: real time    0.2406
    --------------------------------------------
      LOOP:  cpu time    3.3638: real time    3.4032

 eigenvalue-minimisations  :     0
 total energy-change (2. order) :-0.5967754E-03  (-0.1924544E-03)
 number of electron     216.0000000 magnetization 
 augmentation part       -0.4364894 magnetization 

 Free energy of the ion-electron system (eV)
  ---------------------------------------------------
  alpha Z        PSCENC =        59.93625244
  Ewald energy   TEWEN  =     34655.38404633
  -Hartree energ DENC   =    -41723.42887091
  -exchange      EXHF   =         0.00000000
  -V(xc)+E(xc)   XCENC  =       451.53503318
  PAW double counting   =    112584.54354493  -112323.78333987
  entropy T*S    EENTRO =        -0.00000000
  eigenvalues    EBANDS =     -2558.38221120
  atomic energy  EATOM  =      8369.52358910
  ---------------------------------------------------
  free energy    TOTEN  =      -484.67195601 eV

  energy without entropy =     -484.67195601  energy(sigma->0) =     -484.67195601


--------------------------------------------------------------------------------------------------------




--------------------------------------- Iteration      1(  16)  ---------------------------------------


    POTLOK:  cpu time    0.2678: real time    0.2696
    SETDIJ:  cpu time    0.0028: real time    0.0029
    TRIAL :  cpu time    2.0029: real time    2.0320
    CORREC:  cpu time    0.8057: real time    0.8130
    CHARGE:  cpu time    0.2386: real time    0.2405
    --------------------------------------------
      LOOP:  cpu time    3.3590: real time    3.4000

 eigenvalue-minimisations  :     0
 total energy-change (2. order) :-0.1934300E-03  (-0.6404871E-04)
 number of electron     216.0000000 magnetization 
 augmentation part       -0.4363286 magnetization 

 Free energy of the ion-electron system (eV)
  ---------------------------------------------------
  alpha Z        PSCENC =        59.93625244
  Ewald energy   TEWEN  =     34655.38404633
  -Hartree energ DENC   =    -41723.45869476
  -exchange      EXHF   =         0.00000000
  -V(xc)+E(xc)   XCENC  =       451.53617587
  PAW double counting   =    112572.73773159  -112311.97774730
  entropy T*S    EENTRO =        -0.00000000
  eigenvalues    EBANDS =     -2558.35350271
  atomic energy  EATOM  =      8369.52358910
  ---------------------------------------------------
  free energy    TOTEN  =      -484.67214944 eV

  energy without entropy =     -484.67214944  energy(sigma->0) =     -484.67214944


--------------------------------------------------------------------------------------------------------




--------------------------------------- Iteration      1(  17)  ---------------------------------------


    POTLOK:  cpu time    0.2699: real time    0.2717
    SETDIJ:  cpu time    0.0030: real time    0.0030
    TRIAL :  cpu time    2.0089: real time    2.0283
    CORREC:  cpu time    0.8164: real time    0.8236
    CHARGE:  cpu time    0.2382: real time    0.2401
    --------------------------------------------
      LOOP:  cpu time    3.4200: real time    3.4523

 eigenvalue-minimisations  :     0
 total energy-change (2. order) :-0.6463569E-04  (-0.2458887E-04)
 number of electron     216.0000000 magnetization 
 augmentation part       -0.4363190 magnetization 

 Free energy of the ion-electron system (eV)
  ---------------------------------------------------
  alpha Z        PSCENC =        59.93625244
  Ewald energy   TEWEN  =     34655.38404633
  -Hartree energ DENC   =    -41723.56974610
  -exchange      EXHF   =         0.00000000
  -V(xc)+E(xc)   XCENC  =       451.53991492
  PAW double counting   =    112550.87145389  -112290.11201784
  entropy T*S    EENTRO =        -0.00000000
  eigenvalues    EBANDS =     -2558.24570683
  atomic energy  EATOM  =      8369.52358910
  ---------------------------------------------------
  free energy    TOTEN  =      -484.67221407 eV

  energy without entropy =     -484.67221407  energy(sigma->0) =     -484.67221407


--------------------------------------------------------------------------------------------------------




--------------------------------------- Iteration      1(  18)  ---------------------------------------


    POTLOK:  cpu time    0.2704: real time    0.2723
    SETDIJ:  cpu time    0.0030: real time    0.0030
    TRIAL :  cpu time    2.0080: real time    2.0278
    CORREC:  cpu time    0.8023: real time    0.8095
    CHARGE:  cpu time    0.2387: real time    0.2407
    --------------------------------------------
      LOOP:  cpu time    3.3645: real time    3.4305

 eigenvalue-minimisations  :     0
 total energy-change (2. order) :-0.2484464E-04  (-0.9972262E-05)
 number of electron     216.0000000 magnetization 
 augmentation part       -0.4363467 magnetization 

 Free energy of the ion-electron system (eV)
  ---------------------------------------------------
  alpha Z        PSCENC =        59.93625244
  Ewald energy   TEWEN  =     34655.38404633
  -Hartree energ DENC   =    -41723.55564693
  -exchange      EXHF   =         0.00000000
  -V(xc)+E(xc)   XCENC  =       451.53891226
  PAW double counting   =    112544.07653208  -112283.31670239
  entropy T*S    EENTRO =        -0.00000000
  eigenvalues    EBANDS =     -2558.25922181
  atomic energy  EATOM  =      8369.52358910
  ---------------------------------------------------
  free energy    TOTEN  =      -484.67223892 eV

  energy without entropy =     -484.67223892  energy(sigma->0) =     -484.67223892


--------------------------------------------------------------------------------------------------------




--------------------------------------- Iteration      1(  19)  ---------------------------------------


    POTLOK:  cpu time    0.2700: real time    0.2718
    SETDIJ:  cpu time    0.0030: real time    0.0030
    TRIAL :  cpu time    2.0104: real time    2.0301
    CORREC:  cpu time    0.8046: real time    0.8119
    CHARGE:  cpu time    0.2377: real time    0.2397
    --------------------------------------------
      LOOP:  cpu time    3.3897: real time    3.4325

 eigenvalue-minimisations  :     0
 total energy-change (2. order) :-0.9861382E-05  (-0.4003493E-05)
 number of electron     216.0000000 magnetization 
 augmentation part       -0.4363991 magnetization 

 Free energy of the ion-electron system (eV)
  ---------------------------------------------------
  alpha Z        PSCENC =        59.93625244
  Ewald energy   TEWEN  =     34655.38404633
  -Hartree energ DENC   =    -41723.57722553
  -exchange      EXHF   =         0.00000000
  -V(xc)+E(xc)   XCENC  =       451.53994929
  PAW double counting   =    112548.37683818  -112287.61692106
  entropy T*S    EENTRO =        -0.00000000
  eigenvalues    EBANDS =     -2558.23877754
  atomic energy  EATOM  =      8369.52358910
  ---------------------------------------------------
  free energy    TOTEN  =      -484.67224878 eV

  energy without entropy =     -484.67224878  energy(sigma->0) =     -484.67224878


--------------------------------------------------------------------------------------------------------




--------------------------------------- Iteration      1(  20)  ---------------------------------------


    POTLOK:  cpu time    0.2712: real time    0.2730
    SETDIJ:  cpu time    0.0031: real time    0.0031
    TRIAL :  cpu time    2.0084: real time    2.0293
    CORREC:  cpu time    0.8053: real time    0.8133
    CHARGE:  cpu time    0.2379: real time    0.2399
    --------------------------------------------
      LOOP:  cpu time    3.3709: real time    3.4055

 eigenvalue-minimisations  :     0
 total energy-change (2. order) :-0.3835041E-05  (-0.1510141E-05)
 number of electron     216.0000000 magnetization 
 augmentation part       -0.4364116 magnetization 

 Free energy of the ion-electron system (eV)
  ---------------------------------------------------
  alpha Z        PSCENC =        59.93625244
  Ewald energy   TEWEN  =     34655.38404633
  -Hartree energ DENC   =    -41723.57439568
  -exchange      EXHF   =         0.00000000
  -V(xc)+E(xc)   XCENC  =       451.53951371
  PAW double counting   =    112553.59495162  -112292.83477028
  entropy T*S    EENTRO =        -0.00000000
  eigenvalues    EBANDS =     -2558.24143985
  atomic energy  EATOM  =      8369.52358910
  ---------------------------------------------------
  free energy    TOTEN  =      -484.67225261 eV

  energy without entropy =     -484.67225261  energy(sigma->0) =     -484.67225261


--------------------------------------------------------------------------------------------------------




--------------------------------------- Iteration      1(  21)  ---------------------------------------


    POTLOK:  cpu time    0.2708: real time    0.2727
    SETDIJ:  cpu time    0.0031: real time    0.0031
    TRIAL :  cpu time    2.0083: real time    2.0281
    CORREC:  cpu time    0.8033: real time    0.8106
    CHARGE:  cpu time    0.2373: real time    0.2393
    --------------------------------------------
      LOOP:  cpu time    3.4439: real time    3.4766

 eigenvalue-minimisations  :     0
 total energy-change (2. order) :-0.1386230E-05  (-0.6149067E-06)
 number of electron     216.0000000 magnetization 
 augmentation part       -0.4364179 magnetization 

 Free energy of the ion-electron system (eV)
  ---------------------------------------------------
  alpha Z        PSCENC =        59.93625244
  Ewald energy   TEWEN  =     34655.38404633
  -Hartree energ DENC   =    -41723.58921433
  -exchange      EXHF   =         0.00000000
  -V(xc)+E(xc)   XCENC  =       451.54007162
  PAW double counting   =    112555.09276458  -112294.33266913
  entropy T*S    EENTRO =        -0.00000000
  eigenvalues    EBANDS =     -2558.22709462
  atomic energy  EATOM  =      8369.52358910
  ---------------------------------------------------
  free energy    TOTEN  =      -484.67225400 eV

  energy without entropy =     -484.67225400  energy(sigma->0) =     -484.67225400


--------------------------------------------------------------------------------------------------------




--------------------------------------- Iteration      1(  22)  ---------------------------------------


    POTLOK:  cpu time    0.2713: real time    0.2734
    SETDIJ:  cpu time    0.0031: real time    0.0031
    TRIAL :  cpu time    2.0071: real time    2.0285
    CORREC:  cpu time    0.8071: real time    0.8143
    EDDIAG:  cpu time    0.4601: real time    0.4645
    CHARGE:  cpu time    0.2381: real time    0.2401
    --------------------------------------------
      LOOP:  cpu time    3.8721: real time    3.9372

 eigenvalue-minimisations  :     0
 total energy-change (2. order) :-0.5847396E-06  (-0.2441677E-06)
 number of electron     216.0000000 magnetization 
 augmentation part       -0.4364137 magnetization 

 Free energy of the ion-electron system (eV)
  ---------------------------------------------------
  alpha Z        PSCENC =        59.93625244
  Ewald energy   TEWEN  =     34655.38404633
  -Hartree energ DENC   =    -41723.58236175
  -exchange      EXHF   =         0.00000000
  -V(xc)+E(xc)   XCENC  =       451.53976500
  PAW double counting   =    112554.44986734  -112293.68976719
  entropy T*S    EENTRO =        -0.00000000
  eigenvalues    EBANDS =     -2558.23364585
  atomic energy  EATOM  =      8369.52358910
  ---------------------------------------------------
  free energy    TOTEN  =      -484.67225458 eV

  energy without entropy =     -484.67225458  energy(sigma->0) =     -484.67225458


--------------------------------------------------------------------------------------------------------


  average scaling for gradient   0.9338


 average (electrostatic) potential at core
  the test charge radii are     0.5770  0.5955
  (the norm of the test charge is              1.0000)
       1 -85.3022       2 -85.2962       3 -85.3088       4 -85.3174       5 -85.2933
       6 -85.2895       7 -85.3016       8 -85.2826       9 -85.2913      10 -85.2939
      11 -85.2930      12 -85.2983      13 -85.2919      14 -85.2893      15 -85.2906
      16 -85.2895      17 -85.2963      18 -85.2980      19 -85.3011      20 -85.2963
      21 -85.2835      22 -85.2871      23 -85.3166      24 -85.3134      25 -85.2921
      26 -85.2943      27 -85.2921      28 -85.3052      29 -85.2889      30 -85.2920
      31 -85.3145      32 -85.3038      33 -85.2998      34 -85.2941      35 -85.2918
      36 -85.2951      37 -85.2969      38 -85.3001      39 -85.3001      40 -85.2978
      41 -85.2987      42 -85.3019      43 -85.2955      44 -85.3019      45 -85.2913
      46 -85.2896      47 -85.2972      48 -85.2941      49 -85.2990      50 -85.2972
      51 -89.1519      52-119.9190      53-119.9233
 
 
 
 E-fermi :  -3.9050     XC(G=0):  -2.3262     alpha+bet : -2.1113

 Fermi energy:        -3.9049763391

 k-point     1 :       0.0000    0.0000    0.0000
  band No.  band energies     occupation 
      1     -27.2594      2.00000
      2     -26.2516      2.00000
      3     -22.0479      2.00000
      4     -21.1198      2.00000
      5     -21.1117      2.00000
      6     -21.1051      2.00000
      7     -21.1046      2.00000
      8     -21.1019      2.00000
      9     -21.0993      2.00000
     10     -19.2700      2.00000
     11     -19.2672      2.00000
     12     -19.2614      2.00000
     13     -19.2607      2.00000
     14     -19.2589      2.00000
     15     -19.2586      2.00000
     16     -18.3696      2.00000
     17     -18.3673      2.00000
     18     -18.3649      2.00000
     19     -18.3631      2.00000
     20     -18.3619      2.00000
     21     -18.3615      2.00000
     22     -16.2018      2.00000
     23     -16.2003      2.00000
     24     -16.1970      2.00000
     25     -16.1961      2.00000
     26     -16.1922      2.00000
     27     -16.1917      2.00000
     28     -15.2151      2.00000
     29     -15.2140      2.00000
     30     -15.2099      2.00000
     31     -15.2097      2.00000
     32     -15.2081      2.00000
     33     -15.2076      2.00000
     34     -13.8597      2.00000
     35     -13.8589      2.00000
     36     -13.8579      2.00000
     37     -13.8561      2.00000
     38     -13.8560      2.00000
     39     -13.8557      2.00000
     40     -12.0861      2.00000
     41     -11.4711      2.00000
     42     -11.4704      2.00000
     43     -11.4671      2.00000
     44     -11.4667      2.00000
     45     -11.4665      2.00000
     46     -11.4660      2.00000
     47     -11.3751      2.00000
     48     -11.3738      2.00000
     49     -11.3716      2.00000
     50     -11.3714      2.00000
     51     -11.3680      2.00000
     52     -11.3679      2.00000
     53     -10.9461      2.00000
     54     -10.8997      2.00000
     55     -10.8260      2.00000
     56     -10.0953      2.00000
     57      -9.9947      2.00000
     58      -9.9946      2.00000
     59      -9.9933      2.00000
     60      -9.9930      2.00000
     61      -9.9919      2.00000
     62      -9.9915      2.00000
     63      -9.0244      2.00000
     64      -9.0211      2.00000
     65      -9.0195      2.00000
     66      -9.0159      2.00000
     67      -9.0140      2.00000
     68      -8.9596      2.00000
     69      -8.7183      2.00000
     70      -8.7147      2.00000
     71      -8.7140      2.00000
     72      -8.7125      2.00000
     73      -8.7117      2.00000
     74      -8.7101      2.00000
     75      -8.6676      2.00000
     76      -8.6669      2.00000
     77      -8.6665      2.00000
     78      -8.6638      2.00000
     79      -8.6632      2.00000
     80      -8.6622      2.00000
     81      -7.3743      2.00000
     82      -7.2903      2.00000
     83      -7.0597      2.00000
     84      -7.0587      2.00000
     85      -7.0582      2.00000
     86      -7.0554      2.00000
     87      -7.0534      2.00000
     88      -7.0530      2.00000
     89      -6.9002      2.00000
     90      -6.8932      2.00000
     91      -6.8869      2.00000
     92      -6.8837      2.00000
     93      -6.8778      2.00000
     94      -6.7928      2.00000
     95      -6.0041      2.00000
     96      -6.0011      2.00000
     97      -5.9944      2.00000
     98      -5.9917      2.00000
     99      -5.9862      2.00000
    100      -5.9554      2.00000
    101      -5.5689      2.00000
    102      -5.5666      2.00000
    103      -4.0244      2.00000
    104      -4.0191      2.00000
    105      -4.0145      2.00000
    106      -4.0117      2.00000
    107      -4.0072      2.00000
    108      -4.0064      2.00000
    109      -1.2280      0.00000
    110      -1.2235      0.00000
    111      -1.2109      0.00000
    112      -1.2084      0.00000
    113      -1.2061      0.00000
    114      -1.2030      0.00000
    115       0.5728      0.00000
    116       0.6262      0.00000
    117       0.6385      0.00000
    118       0.6476      0.00000
    119       0.6557      0.00000
    120       0.6574      0.00000
    121       0.6596      0.00000
    122       1.2174      0.00000
    123       1.2254      0.00000
    124       1.2897      0.00000
    125       1.7514      0.00000
    126       1.9384      0.00000
    127       1.9565      0.00000
    128       2.0188      0.00000
    129       2.0243      0.00000
    130       2.0248      0.00000
    131       2.1005      0.00000
    132       2.3889      0.00000
    133       2.3995      0.00000
    134       2.4042      0.00000
    135       2.4176      0.00000
    136       2.4250      0.00000
    137       2.4320      0.00000
    138       3.0172      0.00000
    139       3.3097      0.00000
    140       3.8357      0.00000


--------------------------------------------------------------------------------------------------------


 soft charge-density along one line, spin component           1
         0         1         2         3         4         5         6         7         8         9
 total charge-density along one line
 
 pseudopotential strength for first ion, spin component:           1
 12.690  21.354  -0.000   0.000   0.000  -0.000   0.000   0.000
 21.354  35.933  -0.000   0.000   0.000  -0.000   0.000   0.000
 -0.000  -0.000  -3.165  -0.000   0.000  -5.672  -0.000   0.000
  0.000   0.000  -0.000  -3.166  -0.000  -0.000  -5.674  -0.000
  0.000   0.000   0.000  -0.000  -3.165   0.000  -0.000  -5.672
 -0.000  -0.000  -5.672  -0.000   0.000 -10.144  -0.000   0.000
  0.000   0.000  -0.000  -5.674  -0.000  -0.000 -10.146  -0.000
  0.000   0.000   0.000  -0.000  -5.672   0.000  -0.000 -10.144
 total augmentation occupancy for first ion, spin component:           1
  7.879  -2.765  -0.000  -0.002   0.000   0.000   0.001  -0.000
 -2.765   1.007   0.000   0.001  -0.000  -0.000  -0.000   0.000
 -0.000   0.000   7.263  -0.008   0.000  -2.461   0.003  -0.000
 -0.002   0.001  -0.008   3.234  -0.000   0.003  -0.862   0.000
  0.000  -0.000   0.000  -0.000   7.263  -0.000   0.000  -2.461
  0.000  -0.000  -2.461   0.003  -0.000   0.848  -0.001   0.000
  0.001  -0.000   0.003  -0.862   0.000  -0.001   0.236   0.000
 -0.000   0.000  -0.000   0.000  -2.461   0.000   0.000   0.848


------------------------ aborting loop because EDIFF is reached ----------------------------------------


    FORLOC:  cpu time    0.0512: real time    0.0517
    FORNL :  cpu time    0.7310: real time    0.7396
    FORCOR:  cpu time    0.2911: real time    0.2935
    OFIELD:  cpu time    0.0012: real time    0.0013

 VOLUME and BASIS-vectors are now :
 -----------------------------------------------------------------------------
  energy-cutoff  :     1000.00
  volume of cell :     2631.08
      direct lattice vectors                 reciprocal lattice vectors
    12.325000000  0.000000000  0.000000000     0.081135903  0.046843835  0.000000000
    -6.162500000 10.673763102  0.000000000     0.000000000  0.093687670  0.000000000
     0.000000000  0.000000000 20.000000000     0.000000000  0.000000000  0.050000000

  length of vectors
    12.325000000 12.325000000 20.000000000     0.093687670  0.093687670  0.050000000


 FORCES acting on ions:
    Electron-Ion                     Ewald-Force                    Non-Local-Force
 -----------------------------------------------------------------------------------------------
   0.121E+02 0.106E+02 0.226E+02   -.121E+02 -.106E+02 -.226E+02   0.140E-01 -.676E-02 0.122E-01
   0.202E+02 0.101E+02 0.308E+02   -.203E+02 -.101E+02 -.308E+02   0.213E-01 -.145E-01 -.107E-01
   0.102E+02 0.259E+02 0.395E+02   -.102E+02 -.260E+02 -.395E+02   -.238E-02 0.523E-01 0.333E-01
   0.168E+02 0.247E+02 0.675E+02   -.169E+02 -.247E+02 -.676E+02   0.673E-01 0.293E-01 0.889E-01
   0.132E+02 0.314E+01 0.227E+02   -.132E+02 -.312E+01 -.226E+02   0.274E-02 -.186E-01 -.617E-02
   0.139E+02 -.234E+01 0.233E+02   -.139E+02 0.235E+01 -.232E+02   -.238E-01 -.453E-02 -.151E-01
   0.283E+02 0.118E+02 0.568E+02   -.284E+02 -.117E+02 -.568E+02   0.571E-01 -.759E-01 -.282E-01
   0.282E+02 -.941E+01 0.611E+02   -.282E+02 0.946E+01 -.610E+02   -.486E-02 -.321E-01 -.150E+00
   -.113E+02 0.242E+02 0.410E+02   0.113E+02 -.241E+02 -.410E+02   -.219E-01 -.998E-02 -.516E-01
   -.212E+02 0.182E+02 0.659E+02   0.213E+02 -.183E+02 -.659E+02   -.751E-01 0.401E-01 -.137E+00
   0.322E+01 -.282E+01 0.176E+02   -.320E+01 0.280E+01 -.176E+02   -.637E-02 0.497E-02 -.581E-02
   0.254E+01 -.205E+01 0.162E+02   -.254E+01 0.205E+01 -.162E+02   -.163E-01 0.704E-02 0.162E-02
   0.107E+02 -.262E+02 0.710E+02   -.108E+02 0.263E+02 -.709E+02   0.104E+00 -.151E-01 -.150E+00
   0.477E+01 -.263E+02 0.403E+02   -.480E+01 0.263E+02 -.403E+02   0.290E-01 0.250E-02 -.493E-01
   -.118E+02 0.746E+01 0.222E+02   0.118E+02 -.745E+01 -.222E+02   0.175E-01 -.956E-02 -.855E-02
   -.178E+02 0.497E+01 0.267E+02   0.178E+02 -.498E+01 -.267E+02   0.903E-03 0.976E-02 -.284E-01
   -.173E+01 -.711E+00 0.154E+02   0.174E+01 0.708E+00 -.154E+02   -.476E-02 -.534E-03 0.108E-02
   0.971E+00 0.641E+01 0.167E+02   -.966E+00 -.640E+01 -.167E+02   -.918E-02 0.396E-02 0.842E-02
   -.369E+01 -.212E+02 0.292E+02   0.367E+01 0.212E+02 -.292E+02   0.312E-01 -.466E-02 0.939E-02
   -.153E+01 -.998E+01 0.188E+02   0.152E+01 0.998E+01 -.188E+02   0.526E-02 -.542E-02 -.187E-02
   0.213E+02 -.922E+01 0.339E+02   -.212E+02 0.921E+01 -.338E+02   -.103E-01 -.416E-02 -.564E-01
   0.123E+02 -.107E+02 0.253E+02   -.123E+02 0.107E+02 -.253E+02   -.159E-01 0.201E-01 -.184E-01
   -.529E+01 0.123E+02 0.897E+02   0.539E+01 -.124E+02 -.899E+02   -.930E-01 0.702E-01 0.368E-01
   -.984E+01 -.196E+02 0.838E+02   0.978E+01 0.197E+02 -.839E+02   0.622E-01 -.835E-01 0.457E-01
   0.559E+01 -.249E+01 0.177E+02   -.557E+01 0.249E+01 -.177E+02   -.123E-01 0.245E-02 -.986E-02
   0.101E+01 0.503E+01 0.180E+02   -.100E+01 -.503E+01 -.180E+02   -.136E-01 0.622E-02 -.143E-02
   -.280E+02 0.312E+01 0.462E+02   0.280E+02 -.316E+01 -.461E+02   0.984E-03 0.323E-01 -.598E-01
   -.253E+02 -.109E+02 0.406E+02   0.253E+02 0.109E+02 -.406E+02   -.416E-01 0.380E-01 0.113E-01
   0.753E+01 -.155E+02 0.267E+02   -.754E+01 0.155E+02 -.267E+02   0.102E-01 0.122E-01 -.235E-01
   0.702E+00 -.560E+01 0.191E+02   -.715E+00 0.558E+01 -.191E+02   0.296E-02 0.110E-01 -.958E-02
   -.209E+02 -.226E+02 0.519E+02   0.209E+02 0.227E+02 -.519E+02   -.542E-01 -.348E-01 0.618E-01
   -.115E+02 -.208E+02 0.316E+02   0.115E+02 0.209E+02 -.317E+02   -.517E-03 -.311E-01 0.206E-01
   0.643E+00 0.266E+01 0.160E+02   -.648E+00 -.266E+01 -.160E+02   0.121E-01 -.921E-02 0.366E-02
   0.186E+01 0.270E+01 0.175E+02   -.186E+01 -.269E+01 -.175E+02   0.767E-03 -.527E-02 -.627E-02
   -.822E+01 0.992E+00 0.196E+02   0.822E+01 -.100E+01 -.196E+02   0.119E-01 0.218E-02 -.316E-02
   -.703E+01 -.280E+01 0.189E+02   0.704E+01 0.279E+01 -.189E+02   -.113E-01 0.935E-02 -.368E-02
   -.144E+02 -.755E+01 0.233E+02   0.145E+02 0.754E+01 -.233E+02   -.169E-01 0.416E-02 -.568E-03
   -.821E+01 -.667E+01 0.186E+02   0.822E+01 0.667E+01 -.186E+02   -.111E-01 0.348E-02 0.996E-02
   -.774E+01 -.101E+02 0.203E+02   0.775E+01 0.102E+02 -.203E+02   -.118E-01 -.880E-02 0.688E-02
   -.113E+01 -.238E+01 0.166E+02   0.113E+01 0.239E+01 -.166E+02   0.166E-02 -.205E-02 0.799E-02
   0.290E+01 0.692E+01 0.176E+02   -.290E+01 -.693E+01 -.176E+02   -.389E-02 0.104E-01 0.756E-02
   0.979E+01 0.153E+02 0.244E+02   -.980E+01 -.153E+02 -.244E+02   0.129E-01 0.140E-01 0.139E-01
   0.775E+00 0.125E+02 0.200E+02   -.765E+00 -.125E+02 -.200E+02   -.859E-02 0.928E-02 -.201E-02
   0.210E+00 0.241E+02 0.330E+02   -.177E+00 -.241E+02 -.330E+02   -.397E-01 0.111E-01 0.892E-02
   -.237E+01 0.472E+01 0.191E+02   0.237E+01 -.472E+01 -.191E+02   0.130E-02 -.865E-02 -.719E-02
   -.101E+02 0.130E+02 0.253E+02   0.101E+02 -.130E+02 -.253E+02   -.788E-02 -.344E-02 -.219E-01
   -.166E+01 -.471E+01 0.173E+02   0.166E+01 0.471E+01 -.173E+02   0.153E-01 -.120E-02 0.958E-03
   -.439E+01 0.180E+01 0.165E+02   0.438E+01 -.180E+01 -.165E+02   0.970E-02 -.107E-02 -.843E-02
   0.333E+00 -.292E+01 0.162E+02   -.333E+00 0.292E+01 -.162E+02   0.815E-02 -.336E-02 0.552E-02
   0.462E+01 0.340E+01 0.165E+02   -.462E+01 -.339E+01 -.165E+02   0.495E-02 0.370E-02 0.332E-02
   0.213E+00 -.135E+00 -.386E+03   -.204E+00 0.128E+00 0.386E+03   -.162E-01 0.781E-02 -.369E-01
   -.229E+03 0.156E+03 -.591E+03   0.279E+03 -.190E+03 0.594E+03   -.509E+02 0.347E+02 -.294E+01
   0.229E+03 -.156E+03 -.570E+03   -.279E+03 0.190E+03 0.567E+03   0.509E+02 -.347E+02 0.353E+01
 -----------------------------------------------------------------------------------------------
   0.384E-01 0.345E-02 -.700E-01   0.000E+00 0.284E-13 0.682E-12   -.384E-01 -.346E-02 0.715E-01
 
 
 POSITION                                       TOTAL-FORCE (eV/Angst)
 -----------------------------------------------------------------------------------
     11.98348      0.00342      0.01417         0.001050     -0.000471     -0.001386
     -0.34154      1.42665      0.01100         0.003076      0.003171     -0.002791
      2.12355      0.00315      0.01249         0.002175     -0.011754     -0.000946
      2.12326      1.42653      0.00641        -0.009076     -0.000301     -0.024503
     10.75099      2.13819      0.01213         0.000142     -0.004294      0.001228
     -1.57382      3.56123      0.01110        -0.005294      0.007828     -0.000250
      0.89078      2.13854      0.00548        -0.012476      0.003595     -0.022697
      0.89099      3.56147      0.00181        -0.014274      0.013770     -0.048930
      4.58864      0.00346      0.01135         0.009509      0.012176     -0.010341
      4.58894      1.42623      0.00646         0.012936     -0.011268     -0.062002
      9.51854      4.27281      0.01369         0.007966     -0.009567      0.000071
     -2.80632      5.69591      0.01434        -0.010566      0.006044      0.000933
      2.12300      4.27302      0.00000        -0.011922      0.025792     -0.077642
      2.12335      5.69594      0.00581        -0.004985     -0.018337     -0.009157
      7.05344      0.00333      0.01399         0.005293     -0.002016      0.001035
      7.05353      1.42635      0.01368        -0.005085      0.005324     -0.002429
      8.28610      6.40752      0.01601         0.004193     -0.003483     -0.000542
     -4.03885      7.83070      0.01636        -0.004200      0.004456     -0.000146
      3.35586      6.40753      0.01007         0.004667      0.002418      0.000052
      3.35599      7.83072      0.01320        -0.002924     -0.001852     -0.000128
     -0.34146      4.27290      0.00723         0.014867     -0.010355     -0.005838
     -0.34138      5.69591      0.00946        -0.007495      0.003890      0.001785
      3.35624      2.13791      0.00222         0.007613     -0.010218     -0.108557
      3.35573      3.56155      0.00139         0.002152      0.016773     -0.078816
     -1.57395      6.40758      0.01311         0.012057     -0.003186     -0.001014
     -1.57385      7.83068      0.01438        -0.005018      0.004114      0.000120
      5.82093      2.13784      0.01033        -0.003056     -0.013240     -0.016095
      5.82114      3.56097      0.01156         0.001173      0.001810     -0.002068
      0.89092      6.40755      0.00907         0.003119      0.000315      0.000690
      0.89106      7.83068      0.01235        -0.009867     -0.001516      0.000010
      4.58871      4.27293      0.00850         0.005784     -0.003333     -0.006714
      4.58852      5.69606      0.01149         0.001007      0.011250     -0.001541
      9.51845      0.00337      0.01490         0.006831     -0.006769      0.000305
      9.51855      1.42644      0.01438        -0.004307      0.011061     -0.000584
      8.28593      2.13803      0.01453         0.002821     -0.006766      0.000713
      8.28613      3.56115      0.01464        -0.004613      0.001974      0.000068
      7.05356      4.27269      0.01457         0.002009     -0.000953     -0.000083
      7.05362      5.69588      0.01553        -0.002764      0.000872     -0.000449
      5.82112      6.40755      0.01489        -0.001104      0.000086     -0.000771
      5.82102      7.83073      0.01579        -0.001325      0.003104     -0.000455
      7.05363      8.54227      0.01631        -0.000588     -0.001912      0.000819
     -5.27149      9.96549      0.01495        -0.001096     -0.001812     -0.002910
     -2.80638      8.54234      0.01558         0.002288      0.000217     -0.000860
     -2.80627      9.96553      0.01362        -0.005953     -0.001721     -0.001311
     -0.34149      8.54239      0.01378         0.006585     -0.000595      0.000277
     -0.34138      9.96550      0.01354        -0.007241      0.002979      0.000213
      2.12343      8.54232      0.01336         0.007114     -0.000742      0.000768
      2.12354      9.96544      0.01469        -0.008599      0.003580     -0.002200
      4.58846      8.54235      0.01505         0.007449     -0.005716      0.000989
      4.58853      9.96550      0.01517        -0.002724      0.004878      0.000578
      3.04930      2.68154      2.97302        -0.006976      0.000523      0.102775
      4.02070      2.02068      3.03744        -0.526140      0.373690      0.137949
      2.07767      3.34267      2.91356         0.545791     -0.393513      0.242778
 -----------------------------------------------------------------------------------
    total drift:                                0.000037     -0.000009      0.001545


--------------------------------------------------------------------------------------------------------



  FREE ENERGIE OF THE ION-ELECTRON SYSTEM (eV)
  ---------------------------------------------------
  free  energy   TOTEN  =      -484.67225458 eV

  energy  without entropy=     -484.67225458  energy(sigma->0) =     -484.67225458
 


--------------------------------------------------------------------------------------------------------


    POTLOK:  cpu time    0.2798: real time    0.2817


--------------------------------------------------------------------------------------------------------


     LOOP+:  cpu time  108.4499: real time  109.9621
    4ORBIT:  cpu time    0.0000: real time    0.0000

 total amount of memory used by VASP MPI-rank0   175916. kBytes
=======================================================================

   base      :      30000. kBytes
   nonl-proj :      46129. kBytes
   fftplans  :      35778. kBytes
   grid      :      52596. kBytes
   one-center:         43. kBytes
   wavefun   :      11370. kBytes
 
  
  
 General timing and accounting informations for this job:
 ========================================================
  
                  Total CPU time used (sec):      145.061
                            User time (sec):      134.215
                          System time (sec):       10.845
                         Elapsed time (sec):      148.046
  
                   Maximum memory used (kb):      508404.
                   Average memory used (kb):          N/A
  
                          Minor page faults:        53213
                          Major page faults:           98
                 Voluntary context switches:         3655
