 vasp.6.2.1 16May21 (build Nov 06 2021 14:46:37) complex                        
  
 executed on             LinuxIFC date 2025.04.16  18:03:47
 running on  112 total cores
 distrk:  each k-point on  112 cores,    1 groups
 distr:  one band on NCORE=   4 cores,   28 groups


--------------------------------------------------------------------------------------------------------


 INCAR:
   ALGO = Conjugate
   NCORE = 4
   ISMEAR = 0
   SIGMA = 0.01
   PREC = Accurate
   EDIFF = 1E-6
   ENCUT = 1000
   ISIF = 0
   LWAVE = .FALSE.
   LCHARGE = .FALSE.
   SYMPREC = 1E-6

 POTCAR:    PAW_PBE C_h 06Feb2004                 
 POTCAR:    PAW_PBE O_h 06Feb2004                 
 -----------------------------------------------------------------------------
|                                                                             |
|           W    W    AA    RRRRR   N    N  II  N    N   GGGG   !!!           |
|           W    W   A  A   R    R  NN   N  II  NN   N  G    G  !!!           |
|           W    W  A    A  R    R  N N  N  II  N N  N  G       !!!           |
|           W WW W  AAAAAA  RRRRR   N  N N  II  N  N N  G  GGG   !            |
|           WW  WW  A    A  R   R   N   NN  II  N   NN  G    G                |
|           W    W  A    A  R    R  N    N  II  N    N   GGGG   !!!           |
|                                                                             |
|     For optimal performance we recommend to set                             |
|       NCORE = 2 up to number-of-cores-per-socket                            |
|     NCORE specifies how many cores store one orbital (NPAR=cpu/NCORE).      |
|     This setting can greatly improve the performance of VASP for DFT.       |
|     The default, NCORE=1 might be grossly inefficient on modern             |
|     multi-core architectures or massively parallel machines. Do your        |
|     own testing! More info at https://www.vasp.at/wiki/index.php/NCORE      |
|     Unfortunately you need to use the default for GW and RPA                |
|     calculations (for HF NCORE is supported but not extensively tested      |
|     yet).                                                                   |
|                                                                             |
 -----------------------------------------------------------------------------

 POTCAR:    PAW_PBE C_h 06Feb2004                 
   VRHFIN =C: s2p2                                                                                  
   LEXCH  = PE                                                                                      
   EATOM  =   147.1560 eV,   10.8157 Ry                                                             
                                                                                                    
   TITEL  = PAW_PBE C_h 06Feb2004                                                                   
   LULTRA =        F    use ultrasoft PP ?                                                          
   IUNSCR =        1    unscreen: 0-lin 1-nonlin 2-no                                               
   RPACOR =    0.800    partial core radius                                                         
   POMASS =   12.011; ZVAL   =    4.000    mass and valenz                                          
   RCORE  =    1.100    outmost cutoff radius                                                       
   RWIGS  =    1.630; RWIGS  =    0.863    wigner-seitz radius (au A)                               
   ENMAX  =  700.000; ENMIN  =  500.000 eV                                                          
   ICORE  =        2    local potential                                                             
   LCOR   =        T    correct aug charges                                                         
   LPAW   =        T    paw PP                                                                      
   EAUG   =  946.768                                                                                
   DEXC   =    0.000                                                                                
   RMAX   =    1.128    core radius for proj-oper                                                   
   RAUG   =    1.300    factor for augmentation sphere                                              
   RDEP   =    1.162    radius for radial grids                                                     
   RDEPT  =    1.088    core radius for aug-charge                                                  
                                                                                                    
   Atomic configuration                                                                             
    4 entries                                                                                       
     n  l   j            E        occ.                                                              
     1  0  0.50      -273.3789   2.0000                                                             
     2  0  0.50       -13.7508   2.0000                                                             
     2  1  0.50        -5.2854   2.0000                                                             
     3  2  1.50        -5.4423   0.0000                                                             
   Description                                                                                      
     l       E           TYP  RCUT    TYP  RCUT                                                     
     0    -13.7508458     23  1.100                                                                 
     0     -8.2022199     23  1.100                                                                 
     1     -5.2854383     23  1.100                                                                 
     1      1.1560700     23  1.100                                                                 
     2     -5.4423304      7  1.100                                                                 
  local pseudopotential read in
  partial core-charges read in
  partial kinetic energy density read in
  atomic valenz-charges read in
  non local Contribution for L=           0  read in
    real space projection operators read in
  non local Contribution for L=           0  read in
    real space projection operators read in
  non local Contribution for L=           1  read in
    real space projection operators read in
  non local Contribution for L=           1  read in
    real space projection operators read in
    PAW grid and wavefunctions read in
 
   number of l-projection  operators is LMAX  =           4
   number of lm-projection operators is LMMAX =           8
 
 POTCAR:    PAW_PBE O_h 06Feb2004                 
   VRHFIN =O: s2p4                                                                                  
   LEXCH  = PE                                                                                      
   EATOM  =   432.3788 eV,   31.7789 Ry                                                             
                                                                                                    
   TITEL  = PAW_PBE O_h 06Feb2004                                                                   
   LULTRA =        F    use ultrasoft PP ?                                                          
   IUNSCR =        1    unscreen: 0-lin 1-nonlin 2-no                                               
   RPACOR =    0.800    partial core radius                                                         
   POMASS =   16.000; ZVAL   =    6.000    mass and valenz                                          
   RCORE  =    1.100    outmost cutoff radius                                                       
   RWIGS  =    1.400; RWIGS  =    0.741    wigner-seitz radius (au A)                               
   ENMAX  =  700.000; ENMIN  =  500.000 eV                                                          
   ICORE  =        2    local potential                                                             
   LCOR   =        T    correct aug charges                                                         
   LPAW   =        T    paw PP                                                                      
   EAUG   =  888.804                                                                                
   DEXC   =    0.000                                                                                
   RMAX   =    1.128    core radius for proj-oper                                                   
   RAUG   =    1.300    factor for augmentation sphere                                              
   RDEP   =    1.125    radius for radial grids                                                     
   RDEPT  =    1.088    core radius for aug-charge                                                  
                                                                                                    
   Atomic configuration                                                                             
    4 entries                                                                                       
     n  l   j            E        occ.                                                              
     1  0  0.50      -514.6923   2.0000                                                             
     2  0  0.50       -23.9615   2.0000                                                             
     2  1  0.50        -9.0305   4.0000                                                             
     3  2  1.50        -9.5241   0.0000                                                             
   Description                                                                                      
     l       E           TYP  RCUT    TYP  RCUT                                                     
     0    -23.9615319     23  1.100                                                                 
     0    -25.3221145     23  1.100                                                                 
     1     -9.0304911     23  1.100                                                                 
     1     -5.4802209     23  1.100                                                                 
     2     -9.5240782      7  1.100                                                                 
  local pseudopotential read in
  partial core-charges read in
  partial kinetic energy density read in
  atomic valenz-charges read in
  non local Contribution for L=           0  read in
    real space projection operators read in
  non local Contribution for L=           0  read in
    real space projection operators read in
  non local Contribution for L=           1  read in
    real space projection operators read in
  non local Contribution for L=           1  read in
    real space projection operators read in
    PAW grid and wavefunctions read in
 
   number of l-projection  operators is LMAX  =           4
   number of lm-projection operators is LMMAX =           8
 
 -----------------------------------------------------------------------------
|                                                                             |
|               ----> ADVICE to this user running VASP <----                  |
|                                                                             |
|     You have a (more or less) 'large supercell' and for larger cells it     |
|     might be more efficient to use real-space projection operators.         |
|     Therefore, try LREAL= Auto in the INCAR file.                           |
|     Mind: For very accurate calculation, you might also keep the            |
|     reciprocal projection scheme (i.e. LREAL=.FALSE.).                      |
|                                                                             |
 -----------------------------------------------------------------------------

  PAW_PBE C_h 06Feb2004                 :
 energy of atom  1       EATOM= -147.1560
 kinetic energy error for atom=    0.0031 (will be added to EATOM!!)
  PAW_PBE O_h 06Feb2004                 :
 energy of atom  2       EATOM= -432.3788
 kinetic energy error for atom=    0.0171 (will be added to EATOM!!)
 
 
 POSCAR:  C  O
  positions in cartesian coordinates
  No initial velocities read in
 exchange correlation table for  LEXCH =        8
   RHO(1)=    0.500       N(1)  =     2000
   RHO(2)=  100.500       N(2)  =     4000
 


--------------------------------------------------------------------------------------------------------


 ion  position               nearest neighbor table
   1  0.972  0.000  0.001-  50 1.42   2 1.42  42 1.42
   2  0.039  0.134  0.000-   5 1.42   7 1.42   1 1.42
   3  0.172  0.000  0.000-  42 1.42  44 1.42   4 1.42
   4  0.239  0.134  0.000-   7 1.42   3 1.42  23 1.42
   5  0.972  0.200  0.000-   6 1.42   2 1.42  34 1.42
   6  0.039  0.334  0.000-   5 1.42  21 1.42  11 1.42
   7  0.172  0.200  0.000-   8 1.42   2 1.42   4 1.42
   8  0.239  0.334  0.000-  13 1.42   7 1.42  21 1.42
   9  0.372  0.000  0.000-  10 1.42  44 1.42  46 1.42
  10  0.439  0.134  0.000-  27 1.42   9 1.42  23 1.42
  11  0.972  0.400  0.001-  12 1.42  36 1.42   6 1.42
  12  0.039  0.534  0.001-  25 1.42  11 1.42  17 1.42
  13  0.372  0.400  0.000-   8 1.42  14 1.42  24 1.42
  14  0.439  0.534  0.000-  13 1.42  29 1.42  19 1.42
  15  0.572  0.000  0.001-  46 1.42  16 1.42  48 1.42
  16  0.639  0.134  0.001-  15 1.42  35 1.42  27 1.42
  17  0.972  0.600  0.001-  38 1.42  18 1.42  12 1.42
  18  0.039  0.734  0.001-  43 1.42  41 1.42  17 1.42
  19  0.572  0.600  0.000-  14 1.42  20 1.42  32 1.42
  20  0.639  0.734  0.001-  49 1.42  19 1.42  47 1.42
  21  0.172  0.400  0.000-  22 1.42   8 1.42   6 1.42
  22  0.239  0.534  0.000-  21 1.42  29 1.42  25 1.42
  23  0.372  0.200  0.000-  10 1.42   4 1.42  24 1.42
  24  0.439  0.334  0.000-  13 1.42  31 1.42  23 1.42
  25  0.172  0.600  0.001-  26 1.42  12 1.42  22 1.42
  26  0.239  0.734  0.001-  25 1.42  45 1.42  43 1.42
  27  0.572  0.200  0.000-  10 1.42  28 1.42  16 1.42
  28  0.639  0.334  0.000-  27 1.42  37 1.42  31 1.42
  29  0.372  0.600  0.000-  22 1.42  14 1.42  30 1.42
  30  0.439  0.734  0.000-  47 1.42  29 1.42  45 1.42
  31  0.572  0.400  0.000-  32 1.42  28 1.42  24 1.42
  32  0.639  0.534  0.000-  31 1.42  39 1.42  19 1.42
  33  0.772  0.000  0.001-  34 1.42  48 1.42  50 1.42
  34  0.839  0.134  0.001-  33 1.42   5 1.42  35 1.42
  35  0.772  0.200  0.001-  36 1.42  16 1.42  34 1.42
  36  0.839  0.334  0.001-  35 1.42  11 1.42  37 1.42
  37  0.772  0.400  0.001-  28 1.42  38 1.42  36 1.42
  38  0.839  0.534  0.001-  17 1.42  37 1.42  39 1.42
  39  0.772  0.600  0.001-  40 1.42  38 1.42  32 1.42
  40  0.839  0.734  0.001-  39 1.42  49 1.42  41 1.42
  41  0.972  0.800  0.001-  18 1.42  42 1.42  40 1.42
  42  0.039  0.934  0.001-   3 1.42  41 1.42   1 1.42
  43  0.172  0.800  0.001-  18 1.42  44 1.42  26 1.42
  44  0.239  0.934  0.001-   9 1.42  43 1.42   3 1.42
  45  0.372  0.800  0.001-  26 1.42  46 1.42  30 1.42
  46  0.439  0.934  0.001-  15 1.42  45 1.42   9 1.42
  47  0.572  0.800  0.001-  30 1.42  48 1.42  20 1.42
  48  0.639  0.934  0.001-  47 1.42  33 1.42  15 1.42
  49  0.772  0.800  0.001-  50 1.42  20 1.42  40 1.42
  50  0.839  0.934  0.001-  49 1.42   1 1.42  33 1.42
  51  0.373  0.251  0.400-  52 1.18  53 1.18
  52  0.421  0.189  0.403-  51 1.18
  53  0.325  0.313  0.398-  51 1.18
 
  LATTYP: Found a hexagonal cell.
 ALAT       =    12.3250000000
 C/A-ratio  =     2.0283975659
  
  Lattice vectors:
  
 A1 = (  12.3250000000,   0.0000000000,   0.0000000000)
 A2 = (  -6.1625000000,  10.6737631016,   0.0000000000)
 A3 = (   0.0000000000,   0.0000000000,  25.0000000000)


Analysis of symmetry for initial positions (statically):
=====================================================================
 Subroutine PRICEL returns:
 Original cell was already a primitive cell.
 

 Routine SETGRP: Setting up the symmetry group for a 
 hexagonal supercell.


 Subroutine GETGRP returns: Found  1 space group operations
 (whereof  1 operations were pure point group operations)
 out of a pool of 24 trial point group operations.


The static configuration has the point symmetry C_1 .


Analysis of symmetry for dynamics (positions and initial velocities):
=====================================================================
 Subroutine PRICEL returns:
 Original cell was already a primitive cell.
 

 Routine SETGRP: Setting up the symmetry group for a 
 hexagonal supercell.


 Subroutine GETGRP returns: Found  1 space group operations
 (whereof  1 operations were pure point group operations)
 out of a pool of 24 trial point group operations.


The dynamic configuration has the point symmetry C_1 .


 Subroutine INISYM returns: Found  1 space group operations
 (whereof  1 operations are pure point group operations),
 and found     1 'primitive' translations


----------------------------------------------------------------------------------------

                                     Primitive cell                                     

  volume of cell :    3288.8533

  direct lattice vectors                    reciprocal lattice vectors
    12.325000000  0.000000000  0.000000000     0.081135903  0.046843835  0.000000000
    -6.162500000 10.673763102  0.000000000     0.000000000  0.093687670  0.000000000
     0.000000000  0.000000000 25.000000000     0.000000000  0.000000000  0.040000000

  length of vectors
    12.325000000 12.325000000 25.000000000     0.093687670  0.093687670  0.040000000

  position of ions in fractional coordinates (direct lattice)
     0.972450841  0.000320818  0.000566711
     0.039118382  0.133659505  0.000440173
     0.172443627  0.000295449  0.000499628
     0.239096278  0.133647917  0.000256468
     0.972452058  0.200322012  0.000485219
     0.039128360  0.333643771  0.000444150
     0.172451764  0.200354552  0.000219167
     0.239124359  0.333665720  0.000072260
     0.372465565  0.000324403  0.000453913
     0.439137473  0.133619939  0.000258338
     0.972449824  0.400309362  0.000547611
     0.039124981  0.533636789  0.000573410
     0.372416176  0.400329481  0.000000000
     0.439099602  0.533638981  0.000232414
     0.572443676  0.000312125  0.000559580
     0.639110207  0.133631751  0.000547275
     0.972452703  0.600305653  0.000640289
     0.039124495  0.733640359  0.000654513
     0.572433471  0.600306242  0.000402895
     0.639111888  0.733641879  0.000527905
     0.172454630  0.400318228  0.000289045
     0.239120185  0.533636548  0.000378509
     0.372459750  0.200295993  0.000088997
     0.439107096  0.333673419  0.000055762
     0.172452155  0.600311506  0.000524340
     0.239123371  0.733638574  0.000575129
     0.572431082  0.200289171  0.000413296
     0.639112773  0.333618630  0.000462376
     0.372439808  0.600308022  0.000362844
     0.439116090  0.733637858  0.000494190
     0.572469358  0.400320504  0.000339918
     0.639119408  0.533650873  0.000459610
     0.772445723  0.000315427  0.000596161
     0.839116277  0.133640203  0.000575306
     0.772440513  0.200307432  0.000581033
     0.839120241  0.333635728  0.000585467
     0.772446320  0.400298367  0.000582978
     0.839118980  0.533633964  0.000621100
     0.772456143  0.600308173  0.000595712
     0.839115033  0.733643180  0.000631512
     0.972455313  0.800305582  0.000652233
     0.039114714  0.933643289  0.000598051
     0.172457971  0.800312211  0.000623372
     0.239134551  0.933647193  0.000544850
     0.372451396  0.800316674  0.000551399
     0.439124489  0.933644769  0.000541430
     0.572441101  0.800310054  0.000534535
     0.639115067  0.933638985  0.000587644
     0.772445098  0.800313187  0.000602062
     0.839116614  0.933644338  0.000606830
     0.373021009  0.251226878  0.400000000
     0.420879805  0.189313152  0.402576874
     0.325156981  0.313167186  0.397621805

  ion indices of the primitive-cell ions
   primitive index   ion index
                 1           1
                 2           2
                 3           3
                 4           4
                 5           5
                 6           6
                 7           7
                 8           8
                 9           9
                10          10
                11          11
                12          12
                13          13
                14          14
                15          15
                16          16
                17          17
                18          18
                19          19
                20          20
                21          21
                22          22
                23          23
                24          24
                25          25
                26          26
                27          27
                28          28
                29          29
                30          30
                31          31
                32          32
                33          33
                34          34
                35          35
                36          36
                37          37
                38          38
                39          39
                40          40
                41          41
                42          42
                43          43
                44          44
                45          45
                46          46
                47          47
                48          48
                49          49
                50          50
                51          51
                52          52
                53          53

----------------------------------------------------------------------------------------

 
 
 KPOINTS: auto                                    

Automatic generation of k-mesh.
 Grid dimensions read from file:
 generate k-points for:    1    1    1

 Generating k-lattice:

  Cartesian coordinates                     Fractional coordinates (reciprocal lattice)
     0.081135903  0.046843835  0.000000000     1.000000000 -0.000000000  0.000000000
     0.000000000  0.093687670  0.000000000     0.000000000  1.000000000  0.000000000
     0.000000000  0.000000000  0.040000000     0.000000000  0.000000000  1.000000000

  Length of vectors
     0.093687670  0.093687670  0.040000000

  Shift w.r.t. Gamma in fractional coordinates (k-lattice)
     0.000000000  0.000000000  0.000000000

 
 Subroutine IBZKPT returns following result:
 ===========================================
 
 Found      1 irreducible k-points:
 
 Following reciprocal coordinates:
            Coordinates               Weight
  0.000000  0.000000  0.000000      1.000000
 
 Following cartesian coordinates:
            Coordinates               Weight
  0.000000  0.000000  0.000000      1.000000
 


--------------------------------------------------------------------------------------------------------




 Dimension of arrays:
   k-points           NKPTS =      1   k-points in BZ     NKDIM =      1   number of bands    NBANDS=    140
   number of dos      NEDOS =    301   number of ions     NIONS =     53
   non local maximal  LDIM  =      4   non local SUM 2l+1 LMDIM =      8
   total plane-waves  NPLWV = ******
   max r-space proj   IRMAX =      1   max aug-charges    IRDMAX=  10008
   dimension x,y,z NGX =   128 NGY =  128 NGZ =  270
   dimension x,y,z NGXF=   256 NGYF=  256 NGZF=  540
   support grid    NGXF=   256 NGYF=  256 NGZF=  540
   ions per type =              51   2
   NGX,Y,Z   is equivalent  to a cutoff of  17.27, 17.27, 17.95 a.u.
   NGXF,Y,Z  is equivalent  to a cutoff of  34.53, 34.53, 35.91 a.u.

 SYSTEM =  unknown system                          
 POSCAR =   C  O                                   

 Startparameter for this run:
   NWRITE =      2    write-flag & timer
   PREC   = accura    normal or accurate (medium, high low for compatibility)
   ISTART =      0    job   : 0-new  1-cont  2-samecut
   ICHARG =      2    charge: 1-file 2-atom 10-const
   ISPIN  =      1    spin polarized calculation?
   LNONCOLLINEAR =      F non collinear calculations
   LSORBIT =      F    spin-orbit coupling
   INIWAV =      1    electr: 0-lowe 1-rand  2-diag
   LASPH  =      F    aspherical Exc in radial PAW
 Electronic Relaxation 1
   ENCUT  = 1000.0 eV  73.50 Ry    8.57 a.u.  31.78 31.78 64.46*2*pi/ulx,y,z
   ENINI  = 1000.0     initial cutoff
   ENAUG  =  946.8 eV  augmentation charge cutoff
   NELM   =     60;   NELMIN=  2; NELMDL= -5     # of ELM steps 
   EDIFF  = 0.1E-05   stopping-criterion for ELM
   LREAL  =      F    real-space projection
   NLSPLINE    = F    spline interpolate recip. space projectors
   LCOMPAT=      F    compatible to vasp.4.4
   GGA_COMPAT  = T    GGA compatible to vasp.4.4-vasp.4.6
   LMAXPAW     = -100 max onsite density
   LMAXMIX     =    2 max onsite mixed and CHGCAR
   VOSKOWN=      0    Vosko Wilk Nusair interpolation
   ROPT   =    0.00000   0.00000
 Ionic relaxation
   EDIFFG = 0.1E-04   stopping-criterion for IOM
   NSW    =      0    number of steps for IOM
   NBLOCK =      1;   KBLOCK =      1    inner block; outer block 
   IBRION =     -1    ionic relax: 0-MD 1-quasi-New 2-CG
   NFREE  =      0    steps in history (QN), initial steepest desc. (CG)
   ISIF   =      0    stress and relaxation
   IWAVPR =     10    prediction:  0-non 1-charg 2-wave 3-comb
   ISYM   =      2    0-nonsym 1-usesym 2-fastsym
   LCORR  =      T    Harris-Foulkes like correction to forces

   POTIM  = 0.5000    time-step for ionic-motion
   TEIN   =    0.0    initial temperature
   TEBEG  =    0.0;   TEEND  =   0.0 temperature during run
   SMASS  =  -3.00    Nose mass-parameter (am)
   estimated Nose-frequenzy (Omega)   =  0.10E-29 period in steps = 0.13E+47 mass=  -0.347E-26a.u.
   SCALEE = 1.0000    scale energy and forces
   NPACO  =    256;   APACO  = 16.0  distance and # of slots for P.C.
   PSTRESS=    0.0 pullay stress

  Mass of Ions in am
   POMASS =  12.01 16.00
  Ionic Valenz
   ZVAL   =   4.00  6.00
  Atomic Wigner-Seitz radii
   RWIGS  =  -1.00 -1.00
  virtual crystal weights 
   VCA    =   1.00  1.00
   NELECT =     216.0000    total number of electrons
   NUPDOWN=      -1.0000    fix difference up-down

 DOS related values:
   EMIN   =  10.00;   EMAX   =-10.00  energy-range for DOS
   EFERMI =   0.00
   ISMEAR =     0;   SIGMA  =   0.01  broadening in eV -4-tet -1-fermi 0-gaus

 Electronic relaxation 2 (details)
   IALGO  =     58    algorithm
   LDIAG  =      T    sub-space diagonalisation (order eigenvalues)
   LSUBROT=      F    optimize rotation matrix (better conditioning)
   TURBO    =      0    0=normal 1=particle mesh
   IRESTART =      0    0=no restart 2=restart with 2 vectors
   NREBOOT  =      0    no. of reboots
   NMIN     =      0    reboot dimension
   EREF     =   0.00    reference energy to select bands
   IMIX   =      4    mixing-type and parameters
     AMIX     =   0.40;   BMIX     =  1.00
     AMIX_MAG =   1.60;   BMIX_MAG =  1.00
     AMIN     =   0.10
     WC   =   100.;   INIMIX=   1;  MIXPRE=   1;  MAXMIX= -45

 Intra band minimization:
   WEIMIN = 0.0000     energy-eigenvalue tresh-hold
   EBREAK =  0.18E-08  absolut break condition
   DEPER  =   0.30     relativ break condition  

   TIME   =   0.40     timestep for ELM

  volume/ion in A,a.u.               =      62.05       418.76
  Fermi-wavevector in a.u.,A,eV,Ry     =   0.660508  1.248179  5.935820  0.436270
  Thomas-Fermi vector in A             =   1.732977
 
 Write flags
   LWAVE        =      F    write WAVECAR
   LDOWNSAMPLE  =      F    k-point downsampling of WAVECAR
   LCHARG       =      T    write CHGCAR
   LVTOT        =      F    write LOCPOT, total local potential
   LVHAR        =      F    write LOCPOT, Hartree potential only
   LELF         =      F    write electronic localiz. function (ELF)
   LORBIT       =      0    0 simple, 1 ext, 2 COOP (PROOUT), +10 PAW based schemes


 Dipole corrections
   LMONO  =      F    monopole corrections only (constant potential shift)
   LDIPOL =      F    correct potential (dipole corrections)
   IDIPOL =      0    1-x, 2-y, 3-z, 4-all directions 
   EPSILON=  1.0000000 bulk dielectric constant

 Exchange correlation treatment:
   GGA     =    --    GGA type
   LEXCH   =     8    internal setting for exchange type
   VOSKOWN=      0    Vosko Wilk Nusair interpolation
   LHFCALC =     F    Hartree Fock is set to
   LHFONE  =     F    Hartree Fock one center treatment
   AEXX    =    0.0000 exact exchange contribution

 Linear response parameters
   LEPSILON=     F    determine dielectric tensor
   LRPA    =     F    only Hartree local field effects (RPA)
   LNABLA  =     F    use nabla operator in PAW spheres
   LVEL    =     F    velocity operator in full k-point grid
   LINTERFAST=   F  fast interpolation
   KINTER  =     0    interpolate to denser k-point grid
   CSHIFT  =0.1000    complex shift for real part using Kramers Kronig
   OMEGAMAX=  -1.0    maximum frequency
   DEG_THRESHOLD= 0.2000000E-02 threshold for treating states as degnerate
   RTIME   =   -0.100 relaxation time in fs
  (WPLASMAI=    0.000 imaginary part of plasma frequency in eV, 0.658/RTIME)
   DFIELD  = 0.0000000 0.0000000 0.0000000 field for delta impulse in time
 
 Orbital magnetization related:
   ORBITALMAG=     F  switch on orbital magnetization
   LCHIMAG   =     F  perturbation theory with respect to B field
   DQ        =  0.001000  dq finite difference perturbation B field
   LLRAUG    =     F  two centre corrections for induced B field



--------------------------------------------------------------------------------------------------------


 Static calculation
 charge density and potential will be updated during run
 non-spin polarized calculation
 Conjugate gradient for all bands (Freysoldt, et al. PRB 79, 241103 (2009))
 preconditioned conjugated gradient                                        
 perform sub-space diagonalisation
    before iterative eigenvector-optimisation
 modified Broyden-mixing scheme, WC =      100.0
 initial mixing is a Kerker type mixing with AMIX =  0.4000 and BMIX =      1.0000
 Hartree-type preconditioning will be used
 using additional bands           32
 reciprocal scheme for non local part
 use partial core corrections
 no Harris-corrections to forces 
 use gradient corrections 
 use of overlap-Matrix (Vanderbilt PP)
 Gauss-broadening in eV      SIGMA  =   0.01


--------------------------------------------------------------------------------------------------------


  energy-cutoff  :     1000.00
  volume of cell :     3288.85
      direct lattice vectors                 reciprocal lattice vectors
    12.325000000  0.000000000  0.000000000     0.081135903  0.046843835  0.000000000
    -6.162500000 10.673763102  0.000000000     0.000000000  0.093687670  0.000000000
     0.000000000  0.000000000 25.000000000     0.000000000  0.000000000  0.040000000

  length of vectors
    12.325000000 12.325000000 25.000000000     0.093687670  0.093687670  0.040000000


 
 k-points in units of 2pi/SCALE and weight: auto                                    
   0.00000000  0.00000000  0.00000000       1.000
 
 k-points in reciprocal lattice and weights: auto                                    
   0.00000000  0.00000000  0.00000000       1.000
 
 position of ions in fractional coordinates (direct lattice) 
   0.97245084  0.00032082  0.00056671
   0.03911838  0.13365950  0.00044017
   0.17244363  0.00029545  0.00049963
   0.23909628  0.13364792  0.00025647
   0.97245206  0.20032201  0.00048522
   0.03912836  0.33364377  0.00044415
   0.17245176  0.20035455  0.00021917
   0.23912436  0.33366572  0.00007226
   0.37246557  0.00032440  0.00045391
   0.43913747  0.13361994  0.00025834
   0.97244982  0.40030936  0.00054761
   0.03912498  0.53363679  0.00057341
   0.37241618  0.40032948  0.00000000
   0.43909960  0.53363898  0.00023241
   0.57244368  0.00031213  0.00055958
   0.63911021  0.13363175  0.00054727
   0.97245270  0.60030565  0.00064029
   0.03912449  0.73364036  0.00065451
   0.57243347  0.60030624  0.00040289
   0.63911189  0.73364188  0.00052791
   0.17245463  0.40031823  0.00028904
   0.23912018  0.53363655  0.00037851
   0.37245975  0.20029599  0.00008900
   0.43910710  0.33367342  0.00005576
   0.17245216  0.60031151  0.00052434
   0.23912337  0.73363857  0.00057513
   0.57243108  0.20028917  0.00041330
   0.63911277  0.33361863  0.00046238
   0.37243981  0.60030802  0.00036284
   0.43911609  0.73363786  0.00049419
   0.57246936  0.40032050  0.00033992
   0.63911941  0.53365087  0.00045961
   0.77244572  0.00031543  0.00059616
   0.83911628  0.13364020  0.00057531
   0.77244051  0.20030743  0.00058103
   0.83912024  0.33363573  0.00058547
   0.77244632  0.40029837  0.00058298
   0.83911898  0.53363396  0.00062110
   0.77245614  0.60030817  0.00059571
   0.83911503  0.73364318  0.00063151
   0.97245531  0.80030558  0.00065223
   0.03911471  0.93364329  0.00059805
   0.17245797  0.80031221  0.00062337
   0.23913455  0.93364719  0.00054485
   0.37245140  0.80031667  0.00055140
   0.43912449  0.93364477  0.00054143
   0.57244110  0.80031005  0.00053453
   0.63911507  0.93363899  0.00058764
   0.77244510  0.80031319  0.00060206
   0.83911661  0.93364434  0.00060683
   0.37302101  0.25122688  0.40000000
   0.42087980  0.18931315  0.40257687
   0.32515698  0.31316719  0.39762181
 
 position of ions in cartesian coordinates  (Angst):
  11.98347958  0.00342433  0.01416777
  -0.34154264  1.42664989  0.01100432
   2.12354700  0.00315355  0.01249070
   2.12325634  1.42652621  0.00641170
  10.75098721  2.13818970  0.01213047
  -1.57382270  3.56123457  0.01110375
   0.89078307  2.13853702  0.00547917
   0.89099273  3.56146885  0.00180651
   4.58863896  0.00346260  0.01134782
   4.58893648  1.42622757  0.00645846
   9.51853763  4.27280730  0.01369027
  -2.80632132  5.69591267  0.01433526
   2.12299894  4.27302204  0.00000000
   2.12335237  5.69593607  0.00581036
   7.05344483  0.00333155  0.01398950
   7.05352764  1.42635365  0.01368187
   8.28609598  6.40752033  0.01600723
  -4.03884931  7.83070339  0.01636283
   3.35585531  6.40752662  0.01007237
   3.35598594  7.83071962  0.01319763
  -0.34145776  4.27290193  0.00722612
  -0.34137895  5.69591010  0.00946273
   3.35624236  2.13791198  0.00222492
   3.35573251  3.56155103  0.00139405
  -1.57394684  6.40758280  0.01310850
  -1.57385216  7.83068434  0.01437823
   5.82093107  2.13783916  0.01033241
   5.82114012  3.56096622  0.01155939
   0.89092245  6.40754561  0.00907111
   0.89106251  7.83067670  0.01235474
   4.58870974  4.27292622  0.00849795
   4.58852320  5.69606300  0.01149026
   9.51844972  0.00336679  0.01490402
   9.51855036  1.42644387  0.01438264
   8.28593477  2.13803408  0.01452582
   8.28612680  3.56114872  0.01463668
   7.05356221  4.27268994  0.01457444
   7.05362213  5.69588251  0.01552751
   5.82112285  6.40754723  0.01489279
   5.82101669  7.83073350  0.01578780
   7.05362858  8.54227219  0.01630582
  -5.27148792  9.96548729  0.01495127
  -2.80637951  8.54234295  0.01558431
  -2.80626749  9.96552896  0.01362126
  -0.34148805  8.54239058  0.01378498
  -0.34137657  9.96550309  0.01353576
   2.12342586  8.54231992  0.01336337
   2.12354296  9.96544135  0.01469111
   4.58845581  8.54235337  0.01505154
   4.58852904  9.96549848  0.01517076
   3.04929830  2.68153618 10.00000000
   4.02070129  2.02068374 10.06442186
   2.07766701  3.34267235  9.94054513
 


--------------------------------------------------------------------------------------------------------


 k-point   1 :   0.0000 0.0000 0.0000  plane waves:  236157

 maximum and minimum number of plane-waves per node :     59046    59034

 maximum number of plane-waves:    236157
 maximum index in each direction: 
   IXMAX=   31   IYMAX=   31   IZMAX=   64
   IXMIN=  -31   IYMIN=  -31   IZMIN=  -64


 parallel 3D FFT for wavefunctions:
    minimum data exchange during FFTs selected (reduces bandwidth)
 parallel 3D FFT for charge:
    minimum data exchange during FFTs selected (reduces bandwidth)


 total amount of memory used by VASP MPI-rank0   215378. kBytes
=======================================================================

   base      :      30000. kBytes
   nonl-proj :      57634. kBytes
   fftplans  :      45914. kBytes
   grid      :      67588. kBytes
   one-center:         43. kBytes
   wavefun   :      14199. kBytes
 
     INWAV:  cpu time    0.0000: real time    0.0000
 Broyden mixing: mesh for mixing (old mesh)
   NGX = 63   NGY = 63   NGZ =129
  (NGX  =256   NGY  =256   NGZ  =540)
  gives a total of 512001 points

 initial charge density was supplied:
 charge density of overlapping atoms calculated
 number of electron     216.0000000 magnetization 
 keeping initial charge density in first step


--------------------------------------------------------------------------------------------------------


 Maximum index for augmentation-charges          471 (set IRDMAX)


--------------------------------------------------------------------------------------------------------


 First call to EWALD:  gamma=   0.119
 Maximum number of real-space cells 4x 4x 2
 Maximum number of reciprocal cells 2x 2x 4

    FEWALD:  cpu time    0.0025: real time    0.0026


--------------------------------------- Iteration      1(   1)  ---------------------------------------


    POTLOK:  cpu time    0.3924: real time    0.3958
    SETDIJ:  cpu time    0.0049: real time    0.0051
    TRIAL :  cpu time    5.6066: real time    5.6689
    CORREC:  cpu time    0.0005: real time    0.0005
    --------------------------------------------
      LOOP:  cpu time    6.0110: real time    6.0841

 eigenvalue-minimisations  :   280
 total energy-change (2. order) : 0.2763702E+04  (-0.1023370E+05)
 number of electron     216.0000000 magnetization 
 augmentation part      216.0000000 magnetization 

 Free energy of the ion-electron system (eV)
  ---------------------------------------------------
  alpha Z        PSCENC =        47.94900195
  Ewald energy   TEWEN  =     40383.20022222
  -Hartree energ DENC   =    -46452.44530560
  -exchange      EXHF   =         0.00000000
  -V(xc)+E(xc)   XCENC  =       420.79780718
  PAW double counting   =      6525.96553977    -6260.36035765
  entropy T*S    EENTRO =        -0.00000000
  eigenvalues    EBANDS =      -270.92850764
  atomic energy  EATOM  =      8369.52358910
  ---------------------------------------------------
  free energy    TOTEN  =      2763.70198933 eV

  energy without entropy =     2763.70198933  energy(sigma->0) =     2763.70198933


--------------------------------------------------------------------------------------------------------




--------------------------------------- Iteration      1(   2)  ---------------------------------------


    TRIAL :  cpu time    8.9555: real time    9.0511
    CORREC:  cpu time    0.0001: real time    0.0001
    --------------------------------------------
      LOOP:  cpu time    8.9965: real time    9.0938

 eigenvalue-minimisations  :   504
 total energy-change (2. order) :-0.2493933E+04  (-0.2367409E+04)
 number of electron     216.0000000 magnetization 
 augmentation part      216.0000000 magnetization 

 Free energy of the ion-electron system (eV)
  ---------------------------------------------------
  alpha Z        PSCENC =        47.94900195
  Ewald energy   TEWEN  =     40383.20022222
  -Hartree energ DENC   =    -46452.44530560
  -exchange      EXHF   =         0.00000000
  -V(xc)+E(xc)   XCENC  =       420.79780718
  PAW double counting   =      6525.96553977    -6260.36035765
  entropy T*S    EENTRO =        -0.00000000
  eigenvalues    EBANDS =     -2764.86102055
  atomic energy  EATOM  =      8369.52358910
  ---------------------------------------------------
  free energy    TOTEN  =       269.76947642 eV

  energy without entropy =      269.76947642  energy(sigma->0) =      269.76947642


--------------------------------------------------------------------------------------------------------




--------------------------------------- Iteration      1(   3)  ---------------------------------------


    TRIAL :  cpu time    7.2728: real time    7.3396
    CORREC:  cpu time    0.0001: real time    0.0001
    --------------------------------------------
      LOOP:  cpu time    7.3318: real time    7.4011

 eigenvalue-minimisations  :   392
 total energy-change (2. order) :-0.7429976E+03  (-0.7376637E+03)
 number of electron     216.0000000 magnetization 
 augmentation part      216.0000000 magnetization 

 Free energy of the ion-electron system (eV)
  ---------------------------------------------------
  alpha Z        PSCENC =        47.94900195
  Ewald energy   TEWEN  =     40383.20022222
  -Hartree energ DENC   =    -46452.44530560
  -exchange      EXHF   =         0.00000000
  -V(xc)+E(xc)   XCENC  =       420.79780718
  PAW double counting   =      6525.96553977    -6260.36035765
  entropy T*S    EENTRO =        -0.00000000
  eigenvalues    EBANDS =     -3507.85862580
  atomic energy  EATOM  =      8369.52358910
  ---------------------------------------------------
  free energy    TOTEN  =      -473.22812882 eV

  energy without entropy =     -473.22812882  energy(sigma->0) =     -473.22812882


--------------------------------------------------------------------------------------------------------




--------------------------------------- Iteration      1(   4)  ---------------------------------------


    TRIAL :  cpu time    7.2659: real time    7.3352
    CORREC:  cpu time    0.0001: real time    0.0001
    --------------------------------------------
      LOOP:  cpu time    7.3170: real time    7.3959

 eigenvalue-minimisations  :   392
 total energy-change (2. order) :-0.4389317E+02  (-0.4373163E+02)
 number of electron     216.0000000 magnetization 
 augmentation part      216.0000000 magnetization 

 Free energy of the ion-electron system (eV)
  ---------------------------------------------------
  alpha Z        PSCENC =        47.94900195
  Ewald energy   TEWEN  =     40383.20022222
  -Hartree energ DENC   =    -46452.44530560
  -exchange      EXHF   =         0.00000000
  -V(xc)+E(xc)   XCENC  =       420.79780718
  PAW double counting   =      6525.96553977    -6260.36035765
  entropy T*S    EENTRO =        -0.00000000
  eigenvalues    EBANDS =     -3551.75179932
  atomic energy  EATOM  =      8369.52358910
  ---------------------------------------------------
  free energy    TOTEN  =      -517.12130235 eV

  energy without entropy =     -517.12130235  energy(sigma->0) =     -517.12130235


--------------------------------------------------------------------------------------------------------




--------------------------------------- Iteration      1(   5)  ---------------------------------------


    TRIAL :  cpu time    7.7027: real time    7.7773
    CORREC:  cpu time    0.0001: real time    0.0001
    CHARGE:  cpu time    0.3109: real time    0.3140
    --------------------------------------------
      LOOP:  cpu time    8.0735: real time    8.1582

 eigenvalue-minimisations  :   420
 total energy-change (2. order) :-0.9244900E+00  (-0.9224103E+00)
 number of electron     216.0000000 magnetization 
 augmentation part       -0.2646821 magnetization 

 Free energy of the ion-electron system (eV)
  ---------------------------------------------------
  alpha Z        PSCENC =        47.94900195
  Ewald energy   TEWEN  =     40383.20022222
  -Hartree energ DENC   =    -46452.44530560
  -exchange      EXHF   =         0.00000000
  -V(xc)+E(xc)   XCENC  =       420.79780718
  PAW double counting   =      6525.96553977    -6260.36035765
  entropy T*S    EENTRO =        -0.00000000
  eigenvalues    EBANDS =     -3552.67628936
  atomic energy  EATOM  =      8369.52358910
  ---------------------------------------------------
  free energy    TOTEN  =      -518.04579239 eV

  energy without entropy =     -518.04579239  energy(sigma->0) =     -518.04579239


--------------------------------------------------------------------------------------------------------




--------------------------------------- Iteration      1(   6)  ---------------------------------------


    POTLOK:  cpu time    0.3770: real time    0.3800
    SETDIJ:  cpu time    0.0029: real time    0.0029
    TRIAL :  cpu time    2.6690: real time    2.6940
    CORREC:  cpu time    1.0689: real time    1.0775
    CHARGE:  cpu time    0.3153: real time    0.3176
    --------------------------------------------
      LOOP:  cpu time    4.4557: real time    4.4973

 eigenvalue-minimisations  :     0
 total energy-change (2. order) : 0.5132951E+02  (-0.1547127E+02)
 number of electron     216.0000000 magnetization 
 augmentation part       -0.3638387 magnetization 

 Free energy of the ion-electron system (eV)
  ---------------------------------------------------
  alpha Z        PSCENC =        47.94900195
  Ewald energy   TEWEN  =     40383.20022222
  -Hartree energ DENC   =    -47892.28197955
  -exchange      EXHF   =         0.00000000
  -V(xc)+E(xc)   XCENC  =       469.00844215
  PAW double counting   =     89578.62667268   -89321.30423533
  entropy T*S    EENTRO =        -0.00000000
  eigenvalues    EBANDS =     -2101.43799682
  atomic energy  EATOM  =      8369.52358910
  ---------------------------------------------------
  free energy    TOTEN  =      -466.71628360 eV

  energy without entropy =     -466.71628360  energy(sigma->0) =     -466.71628360


--------------------------------------------------------------------------------------------------------




--------------------------------------- Iteration      1(   7)  ---------------------------------------


    POTLOK:  cpu time    0.3840: real time    0.3869
    SETDIJ:  cpu time    0.0029: real time    0.0029
    TRIAL :  cpu time    2.6543: real time    2.6946
    CORREC:  cpu time    1.1864: real time    1.1954
    CHARGE:  cpu time    0.3121: real time    0.3143
    --------------------------------------------
      LOOP:  cpu time    4.5850: real time    4.6403

 eigenvalue-minimisations  :     0
 total energy-change (2. order) :-0.1551423E+02  (-0.1814925E+01)
 number of electron     216.0000000 magnetization 
 augmentation part       -0.4119261 magnetization 

 Free energy of the ion-electron system (eV)
  ---------------------------------------------------
  alpha Z        PSCENC =        47.94900195
  Ewald energy   TEWEN  =     40383.20022222
  -Hartree energ DENC   =    -47382.25971072
  -exchange      EXHF   =         0.00000000
  -V(xc)+E(xc)   XCENC  =       451.90728601
  PAW double counting   =    105767.16860706  -105507.02039997
  entropy T*S    EENTRO =        -0.00000000
  eigenvalues    EBANDS =     -2612.69910970
  atomic energy  EATOM  =      8369.52358910
  ---------------------------------------------------
  free energy    TOTEN  =      -482.23051406 eV

  energy without entropy =     -482.23051406  energy(sigma->0) =     -482.23051406


--------------------------------------------------------------------------------------------------------




--------------------------------------- Iteration      1(   8)  ---------------------------------------


    POTLOK:  cpu time    0.3859: real time    0.3888
    SETDIJ:  cpu time    0.0028: real time    0.0028
    TRIAL :  cpu time    2.6652: real time    2.6897
    CORREC:  cpu time    1.0722: real time    1.0810
    CHARGE:  cpu time    0.3113: real time    0.3137
    --------------------------------------------
      LOOP:  cpu time    4.4700: real time    4.5088

 eigenvalue-minimisations  :     0
 total energy-change (2. order) :-0.1813373E+01  (-0.4706243E+00)
 number of electron     216.0000000 magnetization 
 augmentation part       -0.4297167 magnetization 

 Free energy of the ion-electron system (eV)
  ---------------------------------------------------
  alpha Z        PSCENC =        47.94900195
  Ewald energy   TEWEN  =     40383.20022222
  -Hartree energ DENC   =    -47353.13302061
  -exchange      EXHF   =         0.00000000
  -V(xc)+E(xc)   XCENC  =       451.34421199
  PAW double counting   =    110157.30910370  -109896.75118861
  entropy T*S    EENTRO =        -0.00000000
  eigenvalues    EBANDS =     -2643.48580661
  atomic energy  EATOM  =      8369.52358910
  ---------------------------------------------------
  free energy    TOTEN  =      -484.04388688 eV

  energy without entropy =     -484.04388688  energy(sigma->0) =     -484.04388688


--------------------------------------------------------------------------------------------------------




--------------------------------------- Iteration      1(   9)  ---------------------------------------


    POTLOK:  cpu time    0.3844: real time    0.3869
    SETDIJ:  cpu time    0.0027: real time    0.0027
    TRIAL :  cpu time    2.6655: real time    2.6902
    CORREC:  cpu time    1.0699: real time    1.0785
    CHARGE:  cpu time    0.3123: real time    0.3146
    --------------------------------------------
      LOOP:  cpu time    4.4933: real time    4.5358

 eigenvalue-minimisations  :     0
 total energy-change (2. order) :-0.4705183E+00  (-0.1531029E+00)
 number of electron     216.0000000 magnetization 
 augmentation part       -0.4375809 magnetization 

 Free energy of the ion-electron system (eV)
  ---------------------------------------------------
  alpha Z        PSCENC =        47.94900195
  Ewald energy   TEWEN  =     40383.20022222
  -Hartree energ DENC   =    -47370.50894010
  -exchange      EXHF   =         0.00000000
  -V(xc)+E(xc)   XCENC  =       451.56822575
  PAW double counting   =    112941.61725997  -112680.90810697
  entropy T*S    EENTRO =        -0.00000000
  eigenvalues    EBANDS =     -2626.95565708
  atomic energy  EATOM  =      8369.52358910
  ---------------------------------------------------
  free energy    TOTEN  =      -484.51440517 eV

  energy without entropy =     -484.51440517  energy(sigma->0) =     -484.51440517


--------------------------------------------------------------------------------------------------------




--------------------------------------- Iteration      1(  10)  ---------------------------------------


    POTLOK:  cpu time    0.3852: real time    0.3882
    SETDIJ:  cpu time    0.0028: real time    0.0028
    TRIAL :  cpu time    2.6610: real time    2.6879
    CORREC:  cpu time    1.0731: real time    1.0819
    CHARGE:  cpu time    0.3122: real time    0.3145
    --------------------------------------------
      LOOP:  cpu time    4.4602: real time    4.5044

 eigenvalue-minimisations  :     0
 total energy-change (2. order) :-0.1528907E+00  (-0.6334280E-01)
 number of electron     216.0000000 magnetization 
 augmentation part       -0.4382384 magnetization 

 Free energy of the ion-electron system (eV)
  ---------------------------------------------------
  alpha Z        PSCENC =        47.94900195
  Ewald energy   TEWEN  =     40383.20022222
  -Hartree energ DENC   =    -47371.76027502
  -exchange      EXHF   =         0.00000000
  -V(xc)+E(xc)   XCENC  =       451.49344440
  PAW double counting   =    113453.96068351  -113193.16475486
  entropy T*S    EENTRO =        -0.00000000
  eigenvalues    EBANDS =     -2625.86920714
  atomic energy  EATOM  =      8369.52358910
  ---------------------------------------------------
  free energy    TOTEN  =      -484.66729584 eV

  energy without entropy =     -484.66729584  energy(sigma->0) =     -484.66729584


--------------------------------------------------------------------------------------------------------




--------------------------------------- Iteration      1(  11)  ---------------------------------------


    POTLOK:  cpu time    0.3821: real time    0.3846
    SETDIJ:  cpu time    0.0029: real time    0.0029
    TRIAL :  cpu time    2.6671: real time    2.6919
    CORREC:  cpu time    1.0712: real time    1.0887
    CHARGE:  cpu time    0.3117: real time    0.3140
    --------------------------------------------
      LOOP:  cpu time    4.5089: real time    4.5570

 eigenvalue-minimisations  :     0
 total energy-change (2. order) :-0.6319118E-01  (-0.2629035E-01)
 number of electron     216.0000000 magnetization 
 augmentation part       -0.4377340 magnetization 

 Free energy of the ion-electron system (eV)
  ---------------------------------------------------
  alpha Z        PSCENC =        47.94900195
  Ewald energy   TEWEN  =     40383.20022222
  -Hartree energ DENC   =    -47367.36663740
  -exchange      EXHF   =         0.00000000
  -V(xc)+E(xc)   XCENC  =       451.42851588
  PAW double counting   =    112996.30297545  -112735.50401639
  entropy T*S    EENTRO =        -0.00000000
  eigenvalues    EBANDS =     -2630.26413783
  atomic energy  EATOM  =      8369.52358910
  ---------------------------------------------------
  free energy    TOTEN  =      -484.73048703 eV

  energy without entropy =     -484.73048703  energy(sigma->0) =     -484.73048703


--------------------------------------------------------------------------------------------------------




--------------------------------------- Iteration      1(  12)  ---------------------------------------


    POTLOK:  cpu time    0.3814: real time    0.3839
    SETDIJ:  cpu time    0.0030: real time    0.0031
    TRIAL :  cpu time    2.6675: real time    2.6923
    CORREC:  cpu time    1.0697: real time    1.0788
    CHARGE:  cpu time    0.3146: real time    0.3169
    --------------------------------------------
      LOOP:  cpu time    4.4547: real time    4.5223

 eigenvalue-minimisations  :     0
 total energy-change (2. order) :-0.2619152E-01  (-0.8984829E-02)
 number of electron     216.0000000 magnetization 
 augmentation part       -0.4378018 magnetization 

 Free energy of the ion-electron system (eV)
  ---------------------------------------------------
  alpha Z        PSCENC =        47.94900195
  Ewald energy   TEWEN  =     40383.20022222
  -Hartree energ DENC   =    -47365.45088157
  -exchange      EXHF   =         0.00000000
  -V(xc)+E(xc)   XCENC  =       451.39230624
  PAW double counting   =    112600.20671121  -112339.42997335
  entropy T*S    EENTRO =        -0.00000000
  eigenvalues    EBANDS =     -2632.14765435
  atomic energy  EATOM  =      8369.52358910
  ---------------------------------------------------
  free energy    TOTEN  =      -484.75667855 eV

  energy without entropy =     -484.75667855  energy(sigma->0) =     -484.75667855


--------------------------------------------------------------------------------------------------------




--------------------------------------- Iteration      1(  13)  ---------------------------------------


    POTLOK:  cpu time    0.3822: real time    0.3848
    SETDIJ:  cpu time    0.0028: real time    0.0028
    TRIAL :  cpu time    2.6702: real time    2.6955
    CORREC:  cpu time    1.0669: real time    1.0752
    CHARGE:  cpu time    0.3110: real time    0.3139
    --------------------------------------------
      LOOP:  cpu time    4.4552: real time    4.4961

 eigenvalue-minimisations  :     0
 total energy-change (2. order) :-0.8967867E-02  (-0.2572674E-02)
 number of electron     216.0000000 magnetization 
 augmentation part       -0.4373747 magnetization 

 Free energy of the ion-electron system (eV)
  ---------------------------------------------------
  alpha Z        PSCENC =        47.94900195
  Ewald energy   TEWEN  =     40383.20022222
  -Hartree energ DENC   =    -47365.48570819
  -exchange      EXHF   =         0.00000000
  -V(xc)+E(xc)   XCENC  =       451.38296082
  PAW double counting   =    112474.38466759  -112213.61864256
  entropy T*S    EENTRO =        -0.00000000
  eigenvalues    EBANDS =     -2632.10173733
  atomic energy  EATOM  =      8369.52358910
  ---------------------------------------------------
  free energy    TOTEN  =      -484.76564642 eV

  energy without entropy =     -484.76564642  energy(sigma->0) =     -484.76564642


--------------------------------------------------------------------------------------------------------




--------------------------------------- Iteration      1(  14)  ---------------------------------------


    POTLOK:  cpu time    0.3826: real time    0.3850
    SETDIJ:  cpu time    0.0031: real time    0.0031
    TRIAL :  cpu time    2.6687: real time    2.6937
    CORREC:  cpu time    1.0546: real time    1.0740
    CHARGE:  cpu time    0.3113: real time    0.3137
    --------------------------------------------
      LOOP:  cpu time    4.4669: real time    4.5179

 eigenvalue-minimisations  :     0
 total energy-change (2. order) :-0.2574452E-02  (-0.7385289E-03)
 number of electron     216.0000000 magnetization 
 augmentation part       -0.4370766 magnetization 

 Free energy of the ion-electron system (eV)
  ---------------------------------------------------
  alpha Z        PSCENC =        47.94900195
  Ewald energy   TEWEN  =     40383.20022222
  -Hartree energ DENC   =    -47365.48998861
  -exchange      EXHF   =         0.00000000
  -V(xc)+E(xc)   XCENC  =       451.38151375
  PAW double counting   =    112506.60059914  -112245.83741592
  entropy T*S    EENTRO =        -0.00000000
  eigenvalues    EBANDS =     -2632.09574250
  atomic energy  EATOM  =      8369.52358910
  ---------------------------------------------------
  free energy    TOTEN  =      -484.76822087 eV

  energy without entropy =     -484.76822087  energy(sigma->0) =     -484.76822087


--------------------------------------------------------------------------------------------------------




--------------------------------------- Iteration      1(  15)  ---------------------------------------


    POTLOK:  cpu time    0.3753: real time    0.3779
    SETDIJ:  cpu time    0.0029: real time    0.0029
    TRIAL :  cpu time    2.6667: real time    2.6909
    CORREC:  cpu time    1.0653: real time    1.0738
    CHARGE:  cpu time    0.3116: real time    0.3139
    --------------------------------------------
      LOOP:  cpu time    4.4557: real time    4.4975

 eigenvalue-minimisations  :     0
 total energy-change (2. order) :-0.7410773E-03  (-0.2627941E-03)
 number of electron     216.0000000 magnetization 
 augmentation part       -0.4367434 magnetization 

 Free energy of the ion-electron system (eV)
  ---------------------------------------------------
  alpha Z        PSCENC =        47.94900195
  Ewald energy   TEWEN  =     40383.20022222
  -Hartree energ DENC   =    -47365.16603177
  -exchange      EXHF   =         0.00000000
  -V(xc)+E(xc)   XCENC  =       451.36734962
  PAW double counting   =    112533.79664286  -112273.03180450
  entropy T*S    EENTRO =        -0.00000000
  eigenvalues    EBANDS =     -2632.40793143
  atomic energy  EATOM  =      8369.52358910
  ---------------------------------------------------
  free energy    TOTEN  =      -484.76896195 eV

  energy without entropy =     -484.76896195  energy(sigma->0) =     -484.76896195


--------------------------------------------------------------------------------------------------------




--------------------------------------- Iteration      1(  16)  ---------------------------------------


    POTLOK:  cpu time    0.3780: real time    0.3804
    SETDIJ:  cpu time    0.0030: real time    0.0030
    TRIAL :  cpu time    2.6688: real time    2.6931
    CORREC:  cpu time    1.0654: real time    1.0736
    CHARGE:  cpu time    0.3040: real time    0.3153
    --------------------------------------------
      LOOP:  cpu time    4.4599: real time    4.5075

 eigenvalue-minimisations  :     0
 total energy-change (2. order) :-0.2645381E-03  (-0.1074076E-03)
 number of electron     216.0000000 magnetization 
 augmentation part       -0.4365379 magnetization 

 Free energy of the ion-electron system (eV)
  ---------------------------------------------------
  alpha Z        PSCENC =        47.94900195
  Ewald energy   TEWEN  =     40383.20022222
  -Hartree energ DENC   =    -47365.28588737
  -exchange      EXHF   =         0.00000000
  -V(xc)+E(xc)   XCENC  =       451.37195232
  PAW double counting   =    112506.81544157  -112246.05139750
  entropy T*S    EENTRO =        -0.00000000
  eigenvalues    EBANDS =     -2632.29214877
  atomic energy  EATOM  =      8369.52358910
  ---------------------------------------------------
  free energy    TOTEN  =      -484.76922648 eV

  energy without entropy =     -484.76922648  energy(sigma->0) =     -484.76922648


--------------------------------------------------------------------------------------------------------




--------------------------------------- Iteration      1(  17)  ---------------------------------------


    POTLOK:  cpu time    0.3731: real time    0.3756
    SETDIJ:  cpu time    0.0029: real time    0.0029
    TRIAL :  cpu time    2.6677: real time    2.6920
    CORREC:  cpu time    1.0656: real time    1.0741
    CHARGE:  cpu time    0.3114: real time    0.3138
    --------------------------------------------
      LOOP:  cpu time    4.5172: real time    4.5633

 eigenvalue-minimisations  :     0
 total energy-change (2. order) :-0.1084186E-03  (-0.4249181E-04)
 number of electron     216.0000000 magnetization 
 augmentation part       -0.4365326 magnetization 

 Free energy of the ion-electron system (eV)
  ---------------------------------------------------
  alpha Z        PSCENC =        47.94900195
  Ewald energy   TEWEN  =     40383.20022222
  -Hartree energ DENC   =    -47365.40372398
  -exchange      EXHF   =         0.00000000
  -V(xc)+E(xc)   XCENC  =       451.37572367
  PAW double counting   =    112468.74407048  -112207.98052944
  entropy T*S    EENTRO =        -0.00000000
  eigenvalues    EBANDS =     -2632.17768891
  atomic energy  EATOM  =      8369.52358910
  ---------------------------------------------------
  free energy    TOTEN  =      -484.76933490 eV

  energy without entropy =     -484.76933490  energy(sigma->0) =     -484.76933490


--------------------------------------------------------------------------------------------------------




--------------------------------------- Iteration      1(  18)  ---------------------------------------


    POTLOK:  cpu time    0.3783: real time    0.3808
    SETDIJ:  cpu time    0.0028: real time    0.0028
    TRIAL :  cpu time    2.6517: real time    2.6947
    CORREC:  cpu time    1.0650: real time    1.0734
    CHARGE:  cpu time    0.3111: real time    0.3134
    --------------------------------------------
      LOOP:  cpu time    4.4270: real time    4.4957

 eigenvalue-minimisations  :     0
 total energy-change (2. order) :-0.4274602E-04  (-0.1599496E-04)
 number of electron     216.0000000 magnetization 
 augmentation part       -0.4365974 magnetization 

 Free energy of the ion-electron system (eV)
  ---------------------------------------------------
  alpha Z        PSCENC =        47.94900195
  Ewald energy   TEWEN  =     40383.20022222
  -Hartree energ DENC   =    -47365.39172643
  -exchange      EXHF   =         0.00000000
  -V(xc)+E(xc)   XCENC  =       451.37485395
  PAW double counting   =    112454.65056596  -112193.88658499
  entropy T*S    EENTRO =        -0.00000000
  eigenvalues    EBANDS =     -2632.18929940
  atomic energy  EATOM  =      8369.52358910
  ---------------------------------------------------
  free energy    TOTEN  =      -484.76937765 eV

  energy without entropy =     -484.76937765  energy(sigma->0) =     -484.76937765


--------------------------------------------------------------------------------------------------------




--------------------------------------- Iteration      1(  19)  ---------------------------------------


    POTLOK:  cpu time    0.3771: real time    0.3796
    SETDIJ:  cpu time    0.0027: real time    0.0028
    TRIAL :  cpu time    2.6639: real time    2.6900
    CORREC:  cpu time    1.0626: real time    1.0717
    CHARGE:  cpu time    0.3113: real time    0.3136
    --------------------------------------------
      LOOP:  cpu time    4.4394: real time    4.4912

 eigenvalue-minimisations  :     0
 total energy-change (2. order) :-0.1570933E-04  (-0.5556926E-05)
 number of electron     216.0000000 magnetization 
 augmentation part       -0.4366870 magnetization 

 Free energy of the ion-electron system (eV)
  ---------------------------------------------------
  alpha Z        PSCENC =        47.94900195
  Ewald energy   TEWEN  =     40383.20022222
  -Hartree energ DENC   =    -47365.41395116
  -exchange      EXHF   =         0.00000000
  -V(xc)+E(xc)   XCENC  =       451.37603508
  PAW double counting   =    112457.57152559  -112196.80737373
  entropy T*S    EENTRO =        -0.00000000
  eigenvalues    EBANDS =     -2632.16844240
  atomic energy  EATOM  =      8369.52358910
  ---------------------------------------------------
  free energy    TOTEN  =      -484.76939336 eV

  energy without entropy =     -484.76939336  energy(sigma->0) =     -484.76939336


--------------------------------------------------------------------------------------------------------




--------------------------------------- Iteration      1(  20)  ---------------------------------------


    POTLOK:  cpu time    0.3765: real time    0.3819
    SETDIJ:  cpu time    0.0028: real time    0.0028
    TRIAL :  cpu time    2.6376: real time    2.6902
    CORREC:  cpu time    1.0608: real time    1.0735
    CHARGE:  cpu time    0.3125: real time    0.3149
    --------------------------------------------
      LOOP:  cpu time    4.4126: real time    4.5087

 eigenvalue-minimisations  :     0
 total energy-change (2. order) :-0.5237336E-05  (-0.2004614E-05)
 number of electron     216.0000000 magnetization 
 augmentation part       -0.4367068 magnetization 

 Free energy of the ion-electron system (eV)
  ---------------------------------------------------
  alpha Z        PSCENC =        47.94900195
  Ewald energy   TEWEN  =     40383.20022222
  -Hartree energ DENC   =    -47365.40175636
  -exchange      EXHF   =         0.00000000
  -V(xc)+E(xc)   XCENC  =       451.37502279
  PAW double counting   =    112463.27389674  -112202.50933990
  entropy T*S    EENTRO =        -0.00000000
  eigenvalues    EBANDS =     -2632.18003513
  atomic energy  EATOM  =      8369.52358910
  ---------------------------------------------------
  free energy    TOTEN  =      -484.76939860 eV

  energy without entropy =     -484.76939860  energy(sigma->0) =     -484.76939860


--------------------------------------------------------------------------------------------------------




--------------------------------------- Iteration      1(  21)  ---------------------------------------


    POTLOK:  cpu time    0.3752: real time    0.3778
    SETDIJ:  cpu time    0.0030: real time    0.0030
    TRIAL :  cpu time    2.6529: real time    2.6881
    CORREC:  cpu time    1.0646: real time    1.0739
    CHARGE:  cpu time    0.3108: real time    0.3136
    --------------------------------------------
      LOOP:  cpu time    4.4632: real time    4.5173

 eigenvalue-minimisations  :     0
 total energy-change (2. order) :-0.1834414E-05  (-0.8173651E-06)
 number of electron     216.0000000 magnetization 
 augmentation part       -0.4367194 magnetization 

 Free energy of the ion-electron system (eV)
  ---------------------------------------------------
  alpha Z        PSCENC =        47.94900195
  Ewald energy   TEWEN  =     40383.20022222
  -Hartree energ DENC   =    -47365.42283563
  -exchange      EXHF   =         0.00000000
  -V(xc)+E(xc)   XCENC  =       451.37606565
  PAW double counting   =    112465.63777273  -112204.87336307
  entropy T*S    EENTRO =        -0.00000000
  eigenvalues    EBANDS =     -2632.15985338
  atomic energy  EATOM  =      8369.52358910
  ---------------------------------------------------
  free energy    TOTEN  =      -484.76940043 eV

  energy without entropy =     -484.76940043  energy(sigma->0) =     -484.76940043


--------------------------------------------------------------------------------------------------------




--------------------------------------- Iteration      1(  22)  ---------------------------------------


    POTLOK:  cpu time    0.3765: real time    0.3790
    SETDIJ:  cpu time    0.0028: real time    0.0028
    TRIAL :  cpu time    2.6678: real time    2.6924
    CORREC:  cpu time    1.0647: real time    1.0731
    EDDIAG:  cpu time    0.5915: real time    0.5968
    CHARGE:  cpu time    0.3101: real time    0.3124
    --------------------------------------------
      LOOP:  cpu time    5.0834: real time    5.1289

 eigenvalue-minimisations  :     0
 total energy-change (2. order) :-0.7827184E-06  (-0.3769430E-06)
 number of electron     216.0000000 magnetization 
 augmentation part       -0.4367140 magnetization 

 Free energy of the ion-electron system (eV)
  ---------------------------------------------------
  alpha Z        PSCENC =        47.94900195
  Ewald energy   TEWEN  =     40383.20022222
  -Hartree energ DENC   =    -47365.40879757
  -exchange      EXHF   =         0.00000000
  -V(xc)+E(xc)   XCENC  =       451.37537564
  PAW double counting   =    112465.66215027  -112204.89767372
  entropy T*S    EENTRO =        -0.00000000
  eigenvalues    EBANDS =     -2632.17326910
  atomic energy  EATOM  =      8369.52358910
  ---------------------------------------------------
  free energy    TOTEN  =      -484.76940121 eV

  energy without entropy =     -484.76940121  energy(sigma->0) =     -484.76940121


--------------------------------------------------------------------------------------------------------


  average scaling for gradient   0.9597


 average (electrostatic) potential at core
  the test charge radii are     0.5770  0.5955
  (the norm of the test charge is              1.0000)
       1 -85.6352       2 -85.6348       3 -85.6350       4 -85.6355       5 -85.6344
       6 -85.6345       7 -85.6350       8 -85.6341       9 -85.6345      10 -85.6344
      11 -85.6346      12 -85.6345      13 -85.6345      14 -85.6345      15 -85.6344
      16 -85.6345      17 -85.6349      18 -85.6350      19 -85.6351      20 -85.6349
      21 -85.6343      22 -85.6344      23 -85.6358      24 -85.6358      25 -85.6345
      26 -85.6345      27 -85.6345      28 -85.6352      29 -85.6343      30 -85.6345
      31 -85.6352      32 -85.6348      33 -85.6345      34 -85.6346      35 -85.6346
      36 -85.6346      37 -85.6349      38 -85.6350      39 -85.6348      40 -85.6349
      41 -85.6348      42 -85.6348      43 -85.6349      44 -85.6351      45 -85.6345
      46 -85.6344      47 -85.6344      48 -85.6346      49 -85.6350      50 -85.6349
      51 -89.5732      52-120.3527      53-120.3519
 
 
 
 E-fermi :  -4.2768     XC(G=0):  -1.9502     alpha+bet : -1.6890

 Fermi energy:        -4.2768422519

 k-point     1 :       0.0000    0.0000    0.0000
  band No.  band energies     occupation 
      1     -27.6744      2.00000
      2     -26.6691      2.00000
      3     -22.3846      2.00000
      4     -21.4454      2.00000
      5     -21.4440      2.00000
      6     -21.4439      2.00000
      7     -21.4437      2.00000
      8     -21.4433      2.00000
      9     -21.4427      2.00000
     10     -19.6003      2.00000
     11     -19.6002      2.00000
     12     -19.6000      2.00000
     13     -19.5993      2.00000
     14     -19.5988      2.00000
     15     -19.5986      2.00000
     16     -18.7024      2.00000
     17     -18.7022      2.00000
     18     -18.7017      2.00000
     19     -18.7016      2.00000
     20     -18.7008      2.00000
     21     -18.7005      2.00000
     22     -16.5343      2.00000
     23     -16.5340      2.00000
     24     -16.5334      2.00000
     25     -16.5332      2.00000
     26     -16.5326      2.00000
     27     -16.5324      2.00000
     28     -15.5485      2.00000
     29     -15.5485      2.00000
     30     -15.5474      2.00000
     31     -15.5473      2.00000
     32     -15.5470      2.00000
     33     -15.5469      2.00000
     34     -14.1949      2.00000
     35     -14.1948      2.00000
     36     -14.1942      2.00000
     37     -14.1941      2.00000
     38     -14.1939      2.00000
     39     -14.1936      2.00000
     40     -12.4777      2.00000
     41     -11.8059      2.00000
     42     -11.8057      2.00000
     43     -11.8052      2.00000
     44     -11.8051      2.00000
     45     -11.8040      2.00000
     46     -11.8038      2.00000
     47     -11.7090      2.00000
     48     -11.7088      2.00000
     49     -11.7082      2.00000
     50     -11.7081      2.00000
     51     -11.7080      2.00000
     52     -11.7078      2.00000
     53     -11.2881      2.00000
     54     -11.2236      2.00000
     55     -11.2235      2.00000
     56     -10.4765      2.00000
     57     -10.3319      2.00000
     58     -10.3318      2.00000
     59     -10.3302      2.00000
     60     -10.3298      2.00000
     61     -10.3297      2.00000
     62     -10.3295      2.00000
     63      -9.3607      2.00000
     64      -9.3595      2.00000
     65      -9.3594      2.00000
     66      -9.3593      2.00000
     67      -9.3591      2.00000
     68      -9.3586      2.00000
     69      -9.0523      2.00000
     70      -9.0509      2.00000
     71      -9.0507      2.00000
     72      -9.0505      2.00000
     73      -9.0503      2.00000
     74      -9.0499      2.00000
     75      -9.0034      2.00000
     76      -9.0032      2.00000
     77      -9.0023      2.00000
     78      -9.0022      2.00000
     79      -9.0021      2.00000
     80      -9.0012      2.00000
     81      -7.6769      2.00000
     82      -7.6768      2.00000
     83      -7.3958      2.00000
     84      -7.3940      2.00000
     85      -7.3939      2.00000
     86      -7.3936      2.00000
     87      -7.3928      2.00000
     88      -7.3927      2.00000
     89      -7.2308      2.00000
     90      -7.2306      2.00000
     91      -7.2304      2.00000
     92      -7.2299      2.00000
     93      -7.2295      2.00000
     94      -7.2293      2.00000
     95      -6.3342      2.00000
     96      -6.3340      2.00000
     97      -6.3338      2.00000
     98      -6.3338      2.00000
     99      -6.3330      2.00000
    100      -6.3328      2.00000
    101      -5.9063      2.00000
    102      -5.9041      2.00000
    103      -4.3512      2.00000
    104      -4.3508      2.00000
    105      -4.3504      2.00000
    106      -4.3502      2.00000
    107      -4.3498      2.00000
    108      -4.3497      2.00000
    109      -1.5481      0.00000
    110      -1.5480      0.00000
    111      -1.5477      0.00000
    112      -1.5477      0.00000
    113      -1.5469      0.00000
    114      -1.5466      0.00000
    115       0.3161      0.00000
    116       0.3163      0.00000
    117       0.3166      0.00000
    118       0.3167      0.00000
    119       0.3171      0.00000
    120       0.3180      0.00000
    121       0.3368      0.00000
    122       0.4215      0.00000
    123       0.8295      0.00000
    124       1.0037      0.00000
    125       1.1773      0.00000
    126       1.6700      0.00000
    127       1.6764      0.00000
    128       1.6789      0.00000
    129       1.6811      0.00000
    130       1.6875      0.00000
    131       1.8441      0.00000
    132       2.0166      0.00000
    133       2.0575      0.00000
    134       2.0587      0.00000
    135       2.0611      0.00000
    136       2.0631      0.00000
    137       2.0959      0.00000
    138       2.1530      0.00000
    139       2.5071      0.00000
    140       2.8185      0.00000


--------------------------------------------------------------------------------------------------------


 soft charge-density along one line, spin component           1
         0         1         2         3         4         5         6         7         8         9
 total charge-density along one line
 
 pseudopotential strength for first ion, spin component:           1
 12.703  21.376   0.000   0.000   0.000   0.000   0.000   0.000
 21.376  35.970   0.000   0.000   0.000   0.000   0.000   0.000
  0.000   0.000  -3.169  -0.000   0.000  -5.681  -0.000   0.000
  0.000   0.000  -0.000  -3.171  -0.000  -0.000  -5.683  -0.000
  0.000   0.000   0.000  -0.000  -3.169   0.000  -0.000  -5.681
  0.000   0.000  -5.681  -0.000   0.000 -10.161  -0.000   0.000
  0.000   0.000  -0.000  -5.683  -0.000  -0.000 -10.163  -0.000
  0.000   0.000   0.000  -0.000  -5.681   0.000  -0.000 -10.161
 total augmentation occupancy for first ion, spin component:           1
  7.880  -2.765  -0.000  -0.002  -0.000   0.000   0.001   0.000
 -2.765   1.007   0.000   0.001   0.000  -0.000  -0.000  -0.000
 -0.000   0.000   7.264  -0.008   0.000  -2.462   0.003  -0.000
 -0.002   0.001  -0.008   3.235  -0.000   0.003  -0.862   0.000
 -0.000   0.000   0.000  -0.000   7.263  -0.000   0.000  -2.462
  0.000  -0.000  -2.462   0.003  -0.000   0.849  -0.001   0.000
  0.001  -0.000   0.003  -0.862   0.000  -0.001   0.236  -0.000
  0.000  -0.000  -0.000   0.000  -2.462   0.000  -0.000   0.849


------------------------ aborting loop because EDIFF is reached ----------------------------------------


    FORLOC:  cpu time    0.0673: real time    0.0679
    FORNL :  cpu time    1.0779: real time    1.0912
    FORCOR:  cpu time    0.3977: real time    0.4005
    OFIELD:  cpu time    0.0016: real time    0.0016

 VOLUME and BASIS-vectors are now :
 -----------------------------------------------------------------------------
  energy-cutoff  :     1000.00
  volume of cell :     3288.85
      direct lattice vectors                 reciprocal lattice vectors
    12.325000000  0.000000000  0.000000000     0.081135903  0.046843835  0.000000000
    -6.162500000 10.673763102  0.000000000     0.000000000  0.093687670  0.000000000
     0.000000000  0.000000000 25.000000000     0.000000000  0.000000000  0.040000000

  length of vectors
    12.325000000 12.325000000 25.000000000     0.093687670  0.093687670  0.040000000


 FORCES acting on ions:
    Electron-Ion                     Ewald-Force                    Non-Local-Force
 -----------------------------------------------------------------------------------------------
   0.242E+00 0.231E+00 0.814E+01   -.243E+00 -.232E+00 -.815E+01   0.378E-02 -.588E-03 0.551E-02
   0.329E+00 0.238E+00 0.889E+01   -.332E+00 -.235E+00 -.889E+01   0.199E-02 -.283E-02 -.592E-02
   0.128E+00 0.354E+00 0.859E+01   -.130E+00 -.353E+00 -.859E+01   0.348E-04 0.108E-01 -.260E-02
   0.164E+00 0.250E+00 0.104E+02   -.161E+00 -.249E+00 -.104E+02   0.110E-01 0.569E-03 -.170E-01
   0.312E+00 0.985E-01 0.862E+01   -.311E+00 -.996E-01 -.863E+01   -.128E-02 -.488E-02 0.419E-02
   0.321E+00 -.774E-01 0.880E+01   -.323E+00 0.786E-01 -.880E+01   -.662E-02 0.374E-02 -.148E-02
   0.290E+00 0.203E+00 0.106E+02   -.291E+00 -.205E+00 -.106E+02   0.107E-01 -.186E-01 -.744E-02
   0.340E+00 -.674E-01 0.118E+02   -.344E+00 0.692E-01 -.118E+02   -.836E-02 -.455E-02 -.579E-02
   -.134E+00 0.417E+00 0.908E+01   0.137E+00 -.419E+00 -.908E+01   0.993E-03 -.139E-01 -.502E-02
   -.117E+00 0.130E+00 0.108E+02   0.117E+00 -.130E+00 -.108E+02   -.247E-01 0.140E-01 0.110E-02
   0.824E-01 -.747E-01 0.817E+01   -.798E-01 0.742E-01 -.817E+01   0.410E-02 -.272E-02 0.135E-02
   0.985E-01 -.746E-01 0.807E+01   -.993E-01 0.750E-01 -.808E+01   -.603E-02 0.313E-02 0.721E-02
   0.295E-02 -.229E+00 0.125E+02   -.208E-02 0.231E+00 -.125E+02   0.254E-01 -.671E-02 -.324E-02
   0.121E-01 -.444E+00 0.103E+02   -.150E-01 0.446E+00 -.103E+02   0.270E-02 0.770E-02 -.158E-01
   -.310E+00 0.180E+00 0.827E+01   0.312E+00 -.182E+00 -.828E+01   0.768E-02 -.427E-02 0.869E-02
   -.358E+00 0.685E-01 0.827E+01   0.357E+00 -.679E-01 -.827E+01   -.790E-03 0.463E-02 -.389E-02
   -.431E-01 -.241E-01 0.767E+01   0.452E-01 0.227E-01 -.767E+01   0.729E-03 -.102E-04 0.231E-02
   0.307E-01 0.170E+00 0.766E+01   -.307E-01 -.170E+00 -.767E+01   -.228E-02 0.107E-02 0.914E-02
   -.942E-01 -.389E+00 0.914E+01   0.947E-01 0.390E+00 -.914E+01   0.526E-02 -.905E-03 -.114E-03
   -.596E-01 -.248E+00 0.828E+01   0.573E-01 0.248E+00 -.828E+01   -.827E-03 -.337E-03 -.450E-03
   0.404E+00 -.150E+00 0.982E+01   -.403E+00 0.150E+00 -.981E+01   -.259E-02 -.157E-02 -.151E-01
   0.307E+00 -.239E+00 0.921E+01   -.309E+00 0.240E+00 -.921E+01   -.717E-02 0.560E-02 -.443E-03
   -.552E-01 0.801E-01 0.120E+02   0.511E-01 -.778E-01 -.120E+02   -.979E-02 0.101E-01 -.172E-02
   -.113E+00 -.131E+00 0.121E+02   0.115E+00 0.129E+00 -.120E+02   0.117E-01 -.142E-01 -.130E-01
   0.153E+00 -.559E-01 0.827E+01   -.151E+00 0.546E-01 -.826E+01   0.391E-02 -.275E-02 -.160E-02
   0.633E-01 0.122E+00 0.806E+01   -.640E-01 -.121E+00 -.807E+01   -.441E-02 0.290E-02 0.679E-02
   -.419E+00 -.160E-01 0.940E+01   0.422E+00 0.144E-01 -.940E+01   0.132E-01 0.720E-02 -.262E-02
   -.341E+00 -.172E+00 0.887E+01   0.341E+00 0.172E+00 -.888E+01   -.741E-02 0.873E-02 -.384E-03
   0.138E+00 -.338E+00 0.928E+01   -.136E+00 0.337E+00 -.928E+01   0.349E-02 0.274E-02 -.537E-02
   0.217E-01 -.142E+00 0.845E+01   -.237E-01 0.143E+00 -.844E+01   -.512E-02 0.250E-02 -.723E-03
   -.249E+00 -.220E+00 0.961E+01   0.247E+00 0.221E+00 -.961E+01   -.111E-01 -.770E-02 -.148E-01
   -.193E+00 -.387E+00 0.878E+01   0.194E+00 0.386E+00 -.878E+01   0.515E-03 -.207E-03 0.667E-03
   0.204E-03 0.102E+00 0.795E+01   0.474E-03 -.103E+00 -.795E+01   0.434E-02 -.438E-02 0.798E-02
   0.454E-01 0.676E-01 0.802E+01   -.480E-01 -.666E-01 -.802E+01   -.256E-02 0.472E-02 0.691E-04
   -.190E+00 0.388E-01 0.807E+01   0.192E+00 -.397E-01 -.807E+01   0.443E-02 -.259E-02 0.718E-02
   -.158E+00 -.873E-01 0.802E+01   0.157E+00 0.876E-01 -.802E+01   -.310E-02 0.202E-02 0.472E-02
   -.287E+00 -.180E+00 0.804E+01   0.289E+00 0.178E+00 -.804E+01   0.274E-03 0.794E-03 0.320E-02
   -.194E+00 -.165E+00 0.785E+01   0.194E+00 0.166E+00 -.786E+01   -.300E-02 0.118E-02 0.867E-02
   -.189E+00 -.230E+00 0.795E+01   0.188E+00 0.231E+00 -.796E+01   -.234E-02 0.419E-03 0.388E-02
   -.249E-01 -.760E-01 0.778E+01   0.261E-01 0.754E-01 -.779E+01   0.163E-02 0.885E-03 0.676E-02
   0.780E-01 0.177E+00 0.768E+01   -.792E-01 -.177E+00 -.768E+01   -.369E-02 0.120E-02 0.624E-02
   0.229E+00 0.313E+00 0.798E+01   -.228E+00 -.314E+00 -.799E+01   -.128E-02 -.126E-02 0.642E-02
   0.385E-01 0.284E+00 0.778E+01   -.361E-01 -.285E+00 -.778E+01   0.663E-03 -.152E-03 0.244E-02
   0.230E-01 0.397E+00 0.838E+01   -.230E-01 -.398E+00 -.839E+01   -.715E-02 0.785E-03 0.447E-02
   -.619E-01 0.106E+00 0.817E+01   0.635E-01 -.108E+00 -.817E+01   0.437E-02 -.329E-02 0.296E-02
   -.179E+00 0.271E+00 0.833E+01   0.177E+00 -.271E+00 -.833E+01   -.521E-02 -.447E-03 -.224E-03
   -.829E-01 -.132E+00 0.829E+01   0.836E-01 0.131E+00 -.830E+01   0.545E-02 -.995E-03 0.704E-02
   -.123E+00 0.375E-01 0.792E+01   0.122E+00 -.368E-01 -.792E+01   -.392E-02 0.328E-02 -.169E-02
   -.283E-02 -.711E-01 0.791E+01   0.311E-02 0.710E-01 -.791E+01   0.359E-02 -.282E-02 0.556E-02
   0.119E+00 0.921E-01 0.786E+01   -.121E+00 -.907E-01 -.786E+01   -.120E-02 0.196E-02 0.336E-02
   -.615E-02 0.315E-01 -.109E+03   0.120E-02 -.272E-01 0.109E+03   -.298E-02 0.190E-02 -.285E-02
   -.229E+03 0.156E+03 -.177E+03   0.279E+03 -.190E+03 0.180E+03   -.511E+02 0.348E+02 -.343E+01
   0.229E+03 -.156E+03 -.155E+03   -.279E+03 0.190E+03 0.152E+03   0.511E+02 -.348E+02 0.309E+01
 -----------------------------------------------------------------------------------------------
   -.842E-02 0.147E-01 0.344E+00   0.114E-12 -.142E-12 0.284E-13   0.779E-02 -.143E-01 -.343E+00
 
 
 POSITION                                       TOTAL-FORCE (eV/Angst)
 -----------------------------------------------------------------------------------
     11.98348      0.00342      0.01417         0.003313     -0.001719     -0.001009
     -0.34154      1.42665      0.01100        -0.000444     -0.000105     -0.003464
      2.12355      0.00315      0.01249        -0.001759      0.011027     -0.006471
      2.12326      1.42653      0.00641         0.013638      0.001327     -0.008531
     10.75099      2.13819      0.01213         0.000511     -0.005823     -0.000083
     -1.57382      3.56123      0.01110        -0.008987      0.004721     -0.001427
      0.89078      2.13854      0.00548         0.009870     -0.019320      0.002220
      0.89099      3.56147      0.00181        -0.011653     -0.002629      0.011534
      4.58864      0.00346      0.01135         0.003497     -0.015728     -0.003566
      4.58894      1.42623      0.00646        -0.023964      0.013540      0.013617
      9.51854      4.27281      0.01369         0.006567     -0.003104      0.000182
     -2.80632      5.69591      0.01434        -0.006637      0.003423      0.000760
      2.12300      4.27302      0.00000         0.025475     -0.005264      0.020071
      2.12335      5.69594      0.00581        -0.000355      0.009007     -0.002762
      7.05344      0.00333      0.01399         0.009414     -0.005301     -0.000350
      7.05353      1.42635      0.01368        -0.001822      0.005076     -0.003810
      8.28610      6.40752      0.01601         0.002824     -0.001431     -0.000819
     -4.03885      7.83070      0.01636        -0.002283      0.000889     -0.000086
      3.35586      6.40753      0.01007         0.005671      0.000441     -0.001265
      3.35599      7.83072      0.01320        -0.003069     -0.000088     -0.000686
     -0.34146      4.27290      0.00723        -0.001701     -0.001611     -0.004547
     -0.34138      5.69591      0.00946        -0.009192      0.006538     -0.001075
      3.35624      2.13791      0.00222        -0.013790      0.012124      0.015566
      3.35573      3.56155      0.00139         0.013791     -0.016187      0.008079
     -1.57395      6.40758      0.01311         0.005366     -0.003945     -0.000597
     -1.57385      7.83068      0.01438        -0.004949      0.003810      0.000044
      5.82093      2.13784      0.01033         0.015883      0.005299     -0.002998
      5.82114      3.56097      0.01156        -0.006561      0.008697     -0.003707
      0.89092      6.40755      0.00907         0.004764      0.002249     -0.002258
      0.89106      7.83068      0.01235        -0.006835      0.003900      0.000372
      4.58871      4.27293      0.00850        -0.013188     -0.006619     -0.010949
      4.58852      5.69606      0.01149         0.002015     -0.001354     -0.004022
      9.51845      0.00337      0.01490         0.004891     -0.004731      0.000161
      9.51855      1.42644      0.01438        -0.005105      0.005431     -0.000323
      8.28593      2.13803      0.01453         0.006791     -0.003398      0.000634
      8.28613      3.56115      0.01464        -0.004474      0.002276     -0.000026
      7.05356      4.27269      0.01457         0.002447     -0.001102     -0.000683
      7.05362      5.69588      0.01553        -0.002567      0.001579     -0.000079
      5.82112      6.40755      0.01489        -0.003036      0.001543     -0.000084
      5.82102      7.83073      0.01579         0.002774      0.000227     -0.000299
      7.05363      8.54227      0.01631        -0.004705      0.001359      0.001047
     -5.27149      9.96549      0.01495         0.000250     -0.001971     -0.002180
     -2.80638      8.54234      0.01558         0.003050     -0.001251     -0.001238
     -2.80627      9.96553      0.01362        -0.006973      0.000017     -0.003813
     -0.34149      8.54239      0.01378         0.005828     -0.004936      0.000234
     -0.34138      9.96550      0.01354        -0.006045      0.000014     -0.001283
      2.12343      8.54232      0.01336         0.006029     -0.001569      0.000762
      2.12354      9.96544      0.01469        -0.005114      0.003818     -0.001890
      4.58846      8.54235      0.01505         0.003776     -0.002829      0.000990
      4.58853      9.96550      0.01517        -0.002626      0.003331      0.000110
      3.04930      2.68154     10.00000        -0.007737      0.006187      0.034365
      4.02070      2.02068     10.06442        -0.526557      0.357827     -0.050891
      2.07767      3.34267      9.94055         0.533694     -0.363657      0.016521
 -----------------------------------------------------------------------------------
    total drift:                               -0.000634      0.000357      0.000616


--------------------------------------------------------------------------------------------------------



  FREE ENERGIE OF THE ION-ELECTRON SYSTEM (eV)
  ---------------------------------------------------
  free  energy   TOTEN  =      -484.76940121 eV

  energy  without entropy=     -484.76940121  energy(sigma->0) =     -484.76940121
 


--------------------------------------------------------------------------------------------------------


    POTLOK:  cpu time    0.3823: real time    0.3848


--------------------------------------------------------------------------------------------------------


     LOOP+:  cpu time  143.4683: real time  145.1068
    4ORBIT:  cpu time    0.0000: real time    0.0000

 total amount of memory used by VASP MPI-rank0   215378. kBytes
=======================================================================

   base      :      30000. kBytes
   nonl-proj :      57634. kBytes
   fftplans  :      45914. kBytes
   grid      :      67588. kBytes
   one-center:         43. kBytes
   wavefun   :      14199. kBytes
 
  
  
 General timing and accounting informations for this job:
 ========================================================
  
                  Total CPU time used (sec):      187.169
                            User time (sec):      174.076
                          System time (sec):       13.094
                         Elapsed time (sec):      190.520
  
                   Maximum memory used (kb):      580440.
                   Average memory used (kb):          N/A
  
                          Minor page faults:        54593
                          Major page faults:           96
                 Voluntary context switches:         3761
