 vasp.6.2.1 16May21 (build Nov 06 2021 14:46:37) complex                        
  
 executed on             LinuxIFC date 2025.03.03  16:47:20
 running on  112 total cores
 distrk:  each k-point on  112 cores,    1 groups
 distr:  one band on NCORE=   4 cores,   28 groups


--------------------------------------------------------------------------------------------------------


 INCAR:
   ALGO = Conjugate
   NCORE = 4
   ISMEAR = 0
   SIGMA = 0.01
   PREC = Accurate
   EDIFF = 1E-6
   ENCUT = 1000
   ISIF = 0
   LWAVE = .FALSE.
   LCHARGE = .FALSE.
   SYMPREC = 1E-6

 POTCAR:    PAW_PBE C_h 06Feb2004                 
 POTCAR:    PAW_PBE O_h 06Feb2004                 
 -----------------------------------------------------------------------------
|                                                                             |
|           W    W    AA    RRRRR   N    N  II  N    N   GGGG   !!!           |
|           W    W   A  A   R    R  NN   N  II  NN   N  G    G  !!!           |
|           W    W  A    A  R    R  N N  N  II  N N  N  G       !!!           |
|           W WW W  AAAAAA  RRRRR   N  N N  II  N  N N  G  GGG   !            |
|           WW  WW  A    A  R   R   N   NN  II  N   NN  G    G                |
|           W    W  A    A  R    R  N    N  II  N    N   GGGG   !!!           |
|                                                                             |
|     For optimal performance we recommend to set                             |
|       NCORE = 2 up to number-of-cores-per-socket                            |
|     NCORE specifies how many cores store one orbital (NPAR=cpu/NCORE).      |
|     This setting can greatly improve the performance of VASP for DFT.       |
|     The default, NCORE=1 might be grossly inefficient on modern             |
|     multi-core architectures or massively parallel machines. Do your        |
|     own testing! More info at https://www.vasp.at/wiki/index.php/NCORE      |
|     Unfortunately you need to use the default for GW and RPA                |
|     calculations (for HF NCORE is supported but not extensively tested      |
|     yet).                                                                   |
|                                                                             |
 -----------------------------------------------------------------------------

 POTCAR:    PAW_PBE C_h 06Feb2004                 
   VRHFIN =C: s2p2                                                                                  
   LEXCH  = PE                                                                                      
   EATOM  =   147.1560 eV,   10.8157 Ry                                                             
                                                                                                    
   TITEL  = PAW_PBE C_h 06Feb2004                                                                   
   LULTRA =        F    use ultrasoft PP ?                                                          
   IUNSCR =        1    unscreen: 0-lin 1-nonlin 2-no                                               
   RPACOR =    0.800    partial core radius                                                         
   POMASS =   12.011; ZVAL   =    4.000    mass and valenz                                          
   RCORE  =    1.100    outmost cutoff radius                                                       
   RWIGS  =    1.630; RWIGS  =    0.863    wigner-seitz radius (au A)                               
   ENMAX  =  700.000; ENMIN  =  500.000 eV                                                          
   ICORE  =        2    local potential                                                             
   LCOR   =        T    correct aug charges                                                         
   LPAW   =        T    paw PP                                                                      
   EAUG   =  946.768                                                                                
   DEXC   =    0.000                                                                                
   RMAX   =    1.128    core radius for proj-oper                                                   
   RAUG   =    1.300    factor for augmentation sphere                                              
   RDEP   =    1.162    radius for radial grids                                                     
   RDEPT  =    1.088    core radius for aug-charge                                                  
                                                                                                    
   Atomic configuration                                                                             
    4 entries                                                                                       
     n  l   j            E        occ.                                                              
     1  0  0.50      -273.3789   2.0000                                                             
     2  0  0.50       -13.7508   2.0000                                                             
     2  1  0.50        -5.2854   2.0000                                                             
     3  2  1.50        -5.4423   0.0000                                                             
   Description                                                                                      
     l       E           TYP  RCUT    TYP  RCUT                                                     
     0    -13.7508458     23  1.100                                                                 
     0     -8.2022199     23  1.100                                                                 
     1     -5.2854383     23  1.100                                                                 
     1      1.1560700     23  1.100                                                                 
     2     -5.4423304      7  1.100                                                                 
  local pseudopotential read in
  partial core-charges read in
  partial kinetic energy density read in
  atomic valenz-charges read in
  non local Contribution for L=           0  read in
    real space projection operators read in
  non local Contribution for L=           0  read in
    real space projection operators read in
  non local Contribution for L=           1  read in
    real space projection operators read in
  non local Contribution for L=           1  read in
    real space projection operators read in
    PAW grid and wavefunctions read in
 
   number of l-projection  operators is LMAX  =           4
   number of lm-projection operators is LMMAX =           8
 
 POTCAR:    PAW_PBE O_h 06Feb2004                 
   VRHFIN =O: s2p4                                                                                  
   LEXCH  = PE                                                                                      
   EATOM  =   432.3788 eV,   31.7789 Ry                                                             
                                                                                                    
   TITEL  = PAW_PBE O_h 06Feb2004                                                                   
   LULTRA =        F    use ultrasoft PP ?                                                          
   IUNSCR =        1    unscreen: 0-lin 1-nonlin 2-no                                               
   RPACOR =    0.800    partial core radius                                                         
   POMASS =   16.000; ZVAL   =    6.000    mass and valenz                                          
   RCORE  =    1.100    outmost cutoff radius                                                       
   RWIGS  =    1.400; RWIGS  =    0.741    wigner-seitz radius (au A)                               
   ENMAX  =  700.000; ENMIN  =  500.000 eV                                                          
   ICORE  =        2    local potential                                                             
   LCOR   =        T    correct aug charges                                                         
   LPAW   =        T    paw PP                                                                      
   EAUG   =  888.804                                                                                
   DEXC   =    0.000                                                                                
   RMAX   =    1.128    core radius for proj-oper                                                   
   RAUG   =    1.300    factor for augmentation sphere                                              
   RDEP   =    1.125    radius for radial grids                                                     
   RDEPT  =    1.088    core radius for aug-charge                                                  
                                                                                                    
   Atomic configuration                                                                             
    4 entries                                                                                       
     n  l   j            E        occ.                                                              
     1  0  0.50      -514.6923   2.0000                                                             
     2  0  0.50       -23.9615   2.0000                                                             
     2  1  0.50        -9.0305   4.0000                                                             
     3  2  1.50        -9.5241   0.0000                                                             
   Description                                                                                      
     l       E           TYP  RCUT    TYP  RCUT                                                     
     0    -23.9615319     23  1.100                                                                 
     0    -25.3221145     23  1.100                                                                 
     1     -9.0304911     23  1.100                                                                 
     1     -5.4802209     23  1.100                                                                 
     2     -9.5240782      7  1.100                                                                 
  local pseudopotential read in
  partial core-charges read in
  partial kinetic energy density read in
  atomic valenz-charges read in
  non local Contribution for L=           0  read in
    real space projection operators read in
  non local Contribution for L=           0  read in
    real space projection operators read in
  non local Contribution for L=           1  read in
    real space projection operators read in
  non local Contribution for L=           1  read in
    real space projection operators read in
    PAW grid and wavefunctions read in
 
   number of l-projection  operators is LMAX  =           4
   number of lm-projection operators is LMMAX =           8
 
 -----------------------------------------------------------------------------
|                                                                             |
|               ----> ADVICE to this user running VASP <----                  |
|                                                                             |
|     You have a (more or less) 'large supercell' and for larger cells it     |
|     might be more efficient to use real-space projection operators.         |
|     Therefore, try LREAL= Auto in the INCAR file.                           |
|     Mind: For very accurate calculation, you might also keep the            |
|     reciprocal projection scheme (i.e. LREAL=.FALSE.).                      |
|                                                                             |
 -----------------------------------------------------------------------------

  PAW_PBE C_h 06Feb2004                 :
 energy of atom  1       EATOM= -147.1560
 kinetic energy error for atom=    0.0031 (will be added to EATOM!!)
  PAW_PBE O_h 06Feb2004                 :
 energy of atom  2       EATOM= -432.3788
 kinetic energy error for atom=    0.0171 (will be added to EATOM!!)
 
 
 POSCAR:  C  O
  positions in cartesian coordinates
  No initial velocities read in
 exchange correlation table for  LEXCH =        8
   RHO(1)=    0.500       N(1)  =     2000
   RHO(2)=  100.500       N(2)  =     4000
 


--------------------------------------------------------------------------------------------------------


 ion  position               nearest neighbor table
   1  0.972  0.000  0.001-  50 1.42   2 1.42  42 1.42
   2  0.039  0.134  0.001-   5 1.42   7 1.42   1 1.42
   3  0.172  0.000  0.001-  42 1.42  44 1.42   4 1.42
   4  0.239  0.134  0.000-   7 1.42   3 1.42  23 1.42
   5  0.972  0.200  0.001-   6 1.42   2 1.42  34 1.42
   6  0.039  0.334  0.001-   5 1.42  21 1.42  11 1.42
   7  0.172  0.200  0.000-   8 1.42   2 1.42   4 1.42
   8  0.239  0.334  0.000-  13 1.42   7 1.42  21 1.42
   9  0.372  0.000  0.001-  10 1.42  44 1.42  46 1.42
  10  0.439  0.134  0.000-  27 1.42   9 1.42  23 1.42
  11  0.972  0.400  0.001-  12 1.42  36 1.42   6 1.42
  12  0.039  0.534  0.001-  25 1.42  11 1.42  17 1.42
  13  0.372  0.400  0.000-   8 1.42  14 1.42  24 1.42
  14  0.439  0.534  0.000-  13 1.42  29 1.42  19 1.42
  15  0.572  0.000  0.001-  46 1.42  16 1.42  48 1.42
  16  0.639  0.134  0.001-  15 1.42  35 1.42  27 1.42
  17  0.972  0.600  0.001-  38 1.42  18 1.42  12 1.42
  18  0.039  0.734  0.001-  43 1.42  41 1.42  17 1.42
  19  0.572  0.600  0.001-  14 1.42  20 1.42  32 1.42
  20  0.639  0.734  0.001-  49 1.42  19 1.42  47 1.42
  21  0.172  0.400  0.000-  22 1.42   8 1.42   6 1.42
  22  0.239  0.534  0.000-  21 1.42  29 1.42  25 1.42
  23  0.372  0.200  0.000-  10 1.42   4 1.42  24 1.42
  24  0.439  0.334  0.000-  13 1.42  31 1.42  23 1.42
  25  0.172  0.600  0.001-  26 1.42  12 1.42  22 1.42
  26  0.239  0.734  0.001-  25 1.42  45 1.42  43 1.42
  27  0.572  0.200  0.001-  10 1.42  28 1.42  16 1.42
  28  0.639  0.334  0.001-  27 1.42  37 1.42  31 1.42
  29  0.372  0.600  0.000-  22 1.42  14 1.42  30 1.42
  30  0.439  0.734  0.001-  47 1.42  29 1.42  45 1.42
  31  0.572  0.400  0.000-  32 1.42  28 1.42  24 1.42
  32  0.639  0.534  0.001-  31 1.42  39 1.42  19 1.42
  33  0.772  0.000  0.001-  34 1.42  48 1.42  50 1.42
  34  0.839  0.134  0.001-  33 1.42   5 1.42  35 1.42
  35  0.772  0.200  0.001-  36 1.42  16 1.42  34 1.42
  36  0.839  0.334  0.001-  35 1.42  11 1.42  37 1.42
  37  0.772  0.400  0.001-  28 1.42  38 1.42  36 1.42
  38  0.839  0.534  0.001-  17 1.42  37 1.42  39 1.42
  39  0.772  0.600  0.001-  40 1.42  38 1.42  32 1.42
  40  0.839  0.734  0.001-  39 1.42  49 1.42  41 1.42
  41  0.972  0.800  0.001-  18 1.42  42 1.42  40 1.42
  42  0.039  0.934  0.001-   3 1.42  41 1.42   1 1.42
  43  0.172  0.800  0.001-  18 1.42  44 1.42  26 1.42
  44  0.239  0.934  0.001-   9 1.42  43 1.42   3 1.42
  45  0.372  0.800  0.001-  26 1.42  46 1.42  30 1.42
  46  0.439  0.934  0.001-  15 1.42  45 1.42   9 1.42
  47  0.572  0.800  0.001-  30 1.42  48 1.42  20 1.42
  48  0.639  0.934  0.001-  47 1.42  33 1.42  15 1.42
  49  0.772  0.800  0.001-  50 1.42  20 1.42  40 1.42
  50  0.839  0.934  0.001-  49 1.42   1 1.42  33 1.42
  51  0.373  0.251  0.297-  52 1.18  53 1.18
  52  0.421  0.189  0.301-  51 1.18
  53  0.325  0.313  0.294-  51 1.18
 
  LATTYP: Found a hexagonal cell.
 ALAT       =    12.3250000000
 C/A-ratio  =     1.6227180527
  
  Lattice vectors:
  
 A1 = (  12.3250000000,   0.0000000000,   0.0000000000)
 A2 = (  -6.1625000000,  10.6737631016,   0.0000000000)
 A3 = (   0.0000000000,   0.0000000000,  20.0000000000)


Analysis of symmetry for initial positions (statically):
=====================================================================
 Subroutine PRICEL returns:
 Original cell was already a primitive cell.
 

 Routine SETGRP: Setting up the symmetry group for a 
 hexagonal supercell.


 Subroutine GETGRP returns: Found  1 space group operations
 (whereof  1 operations were pure point group operations)
 out of a pool of 24 trial point group operations.


The static configuration has the point symmetry C_1 .


Analysis of symmetry for dynamics (positions and initial velocities):
=====================================================================
 Subroutine PRICEL returns:
 Original cell was already a primitive cell.
 

 Routine SETGRP: Setting up the symmetry group for a 
 hexagonal supercell.


 Subroutine GETGRP returns: Found  1 space group operations
 (whereof  1 operations were pure point group operations)
 out of a pool of 24 trial point group operations.


The dynamic configuration has the point symmetry C_1 .


 Subroutine INISYM returns: Found  1 space group operations
 (whereof  1 operations are pure point group operations),
 and found     1 'primitive' translations


----------------------------------------------------------------------------------------

                                     Primitive cell                                     

  volume of cell :    2631.0826

  direct lattice vectors                    reciprocal lattice vectors
    12.325000000  0.000000000  0.000000000     0.081135903  0.046843835  0.000000000
    -6.162500000 10.673763102  0.000000000     0.000000000  0.093687670  0.000000000
     0.000000000  0.000000000 20.000000000     0.000000000  0.000000000  0.050000000

  length of vectors
    12.325000000 12.325000000 20.000000000     0.093687670  0.093687670  0.050000000

  position of ions in fractional coordinates (direct lattice)
     0.972450841  0.000320818  0.000708389
     0.039118382  0.133659505  0.000550216
     0.172443627  0.000295449  0.000624535
     0.239096278  0.133647917  0.000320585
     0.972452058  0.200322012  0.000606523
     0.039128360  0.333643771  0.000555187
     0.172451764  0.200354552  0.000273959
     0.239124359  0.333665720  0.000090325
     0.372465565  0.000324403  0.000567391
     0.439137473  0.133619939  0.000322923
     0.972449824  0.400309362  0.000684513
     0.039124981  0.533636789  0.000716763
     0.372416176  0.400329481  0.000000000
     0.439099602  0.533638981  0.000290518
     0.572443676  0.000312125  0.000699475
     0.639110207  0.133631751  0.000684093
     0.972452703  0.600305653  0.000800361
     0.039124495  0.733640359  0.000818141
     0.572433471  0.600306242  0.000503618
     0.639111888  0.733641879  0.000659881
     0.172454630  0.400318228  0.000361306
     0.239120185  0.533636548  0.000473136
     0.372459750  0.200295993  0.000111246
     0.439107096  0.333673419  0.000069702
     0.172452155  0.600311506  0.000655425
     0.239123371  0.733638574  0.000718912
     0.572431082  0.200289171  0.000516621
     0.639112773  0.333618630  0.000577970
     0.372439808  0.600308022  0.000453556
     0.439116090  0.733637858  0.000617737
     0.572469358  0.400320504  0.000424897
     0.639119408  0.533650873  0.000574513
     0.772445723  0.000315427  0.000745201
     0.839116277  0.133640203  0.000719132
     0.772440513  0.200307432  0.000726291
     0.839120241  0.333635728  0.000731834
     0.772446320  0.400298367  0.000728722
     0.839118980  0.533633964  0.000776376
     0.772456143  0.600308173  0.000744639
     0.839115033  0.733643180  0.000789390
     0.972455313  0.800305582  0.000815291
     0.039114714  0.933643289  0.000747563
     0.172457971  0.800312211  0.000779216
     0.239134551  0.933647193  0.000681063
     0.372451396  0.800316674  0.000689249
     0.439124489  0.933644769  0.000676788
     0.572441101  0.800310054  0.000668168
     0.639115067  0.933638985  0.000734556
     0.772445098  0.800313187  0.000752577
     0.839116614  0.933644338  0.000758538
     0.373021009  0.251226878  0.297301779
     0.420879805  0.189313152  0.300522872
     0.325156981  0.313167186  0.294329035

  ion indices of the primitive-cell ions
   primitive index   ion index
                 1           1
                 2           2
                 3           3
                 4           4
                 5           5
                 6           6
                 7           7
                 8           8
                 9           9
                10          10
                11          11
                12          12
                13          13
                14          14
                15          15
                16          16
                17          17
                18          18
                19          19
                20          20
                21          21
                22          22
                23          23
                24          24
                25          25
                26          26
                27          27
                28          28
                29          29
                30          30
                31          31
                32          32
                33          33
                34          34
                35          35
                36          36
                37          37
                38          38
                39          39
                40          40
                41          41
                42          42
                43          43
                44          44
                45          45
                46          46
                47          47
                48          48
                49          49
                50          50
                51          51
                52          52
                53          53

----------------------------------------------------------------------------------------

 
 
 KPOINTS: auto                                    

Automatic generation of k-mesh.
 Grid dimensions read from file:
 generate k-points for:    1    1    1

 Generating k-lattice:

  Cartesian coordinates                     Fractional coordinates (reciprocal lattice)
     0.081135903  0.046843835  0.000000000     1.000000000 -0.000000000  0.000000000
     0.000000000  0.093687670  0.000000000     0.000000000  1.000000000  0.000000000
     0.000000000  0.000000000  0.050000000     0.000000000  0.000000000  1.000000000

  Length of vectors
     0.093687670  0.093687670  0.050000000

  Shift w.r.t. Gamma in fractional coordinates (k-lattice)
     0.000000000  0.000000000  0.000000000

 
 Subroutine IBZKPT returns following result:
 ===========================================
 
 Found      1 irreducible k-points:
 
 Following reciprocal coordinates:
            Coordinates               Weight
  0.000000  0.000000  0.000000      1.000000
 
 Following cartesian coordinates:
            Coordinates               Weight
  0.000000  0.000000  0.000000      1.000000
 


--------------------------------------------------------------------------------------------------------




 Dimension of arrays:
   k-points           NKPTS =      1   k-points in BZ     NKDIM =      1   number of bands    NBANDS=    140
   number of dos      NEDOS =    301   number of ions     NIONS =     53
   non local maximal  LDIM  =      4   non local SUM 2l+1 LMDIM =      8
   total plane-waves  NPLWV = ******
   max r-space proj   IRMAX =      1   max aug-charges    IRDMAX=   9736
   dimension x,y,z NGX =   128 NGY =  128 NGZ =  210
   dimension x,y,z NGXF=   256 NGYF=  256 NGZF=  420
   support grid    NGXF=   256 NGYF=  256 NGZF=  420
   ions per type =              51   2
   NGX,Y,Z   is equivalent  to a cutoff of  17.27, 17.27, 17.46 a.u.
   NGXF,Y,Z  is equivalent  to a cutoff of  34.53, 34.53, 34.91 a.u.

 SYSTEM =  unknown system                          
 POSCAR =   C  O                                   

 Startparameter for this run:
   NWRITE =      2    write-flag & timer
   PREC   = accura    normal or accurate (medium, high low for compatibility)
   ISTART =      0    job   : 0-new  1-cont  2-samecut
   ICHARG =      2    charge: 1-file 2-atom 10-const
   ISPIN  =      1    spin polarized calculation?
   LNONCOLLINEAR =      F non collinear calculations
   LSORBIT =      F    spin-orbit coupling
   INIWAV =      1    electr: 0-lowe 1-rand  2-diag
   LASPH  =      F    aspherical Exc in radial PAW
 Electronic Relaxation 1
   ENCUT  = 1000.0 eV  73.50 Ry    8.57 a.u.  31.78 31.78 51.57*2*pi/ulx,y,z
   ENINI  = 1000.0     initial cutoff
   ENAUG  =  946.8 eV  augmentation charge cutoff
   NELM   =     60;   NELMIN=  2; NELMDL= -5     # of ELM steps 
   EDIFF  = 0.1E-05   stopping-criterion for ELM
   LREAL  =      F    real-space projection
   NLSPLINE    = F    spline interpolate recip. space projectors
   LCOMPAT=      F    compatible to vasp.4.4
   GGA_COMPAT  = T    GGA compatible to vasp.4.4-vasp.4.6
   LMAXPAW     = -100 max onsite density
   LMAXMIX     =    2 max onsite mixed and CHGCAR
   VOSKOWN=      0    Vosko Wilk Nusair interpolation
   ROPT   =    0.00000   0.00000
 Ionic relaxation
   EDIFFG = 0.1E-04   stopping-criterion for IOM
   NSW    =      0    number of steps for IOM
   NBLOCK =      1;   KBLOCK =      1    inner block; outer block 
   IBRION =     -1    ionic relax: 0-MD 1-quasi-New 2-CG
   NFREE  =      0    steps in history (QN), initial steepest desc. (CG)
   ISIF   =      0    stress and relaxation
   IWAVPR =     10    prediction:  0-non 1-charg 2-wave 3-comb
   ISYM   =      2    0-nonsym 1-usesym 2-fastsym
   LCORR  =      T    Harris-Foulkes like correction to forces

   POTIM  = 0.5000    time-step for ionic-motion
   TEIN   =    0.0    initial temperature
   TEBEG  =    0.0;   TEEND  =   0.0 temperature during run
   SMASS  =  -3.00    Nose mass-parameter (am)
   estimated Nose-frequenzy (Omega)   =  0.10E-29 period in steps = 0.13E+47 mass=  -0.347E-26a.u.
   SCALEE = 1.0000    scale energy and forces
   NPACO  =    256;   APACO  = 16.0  distance and # of slots for P.C.
   PSTRESS=    0.0 pullay stress

  Mass of Ions in am
   POMASS =  12.01 16.00
  Ionic Valenz
   ZVAL   =   4.00  6.00
  Atomic Wigner-Seitz radii
   RWIGS  =  -1.00 -1.00
  virtual crystal weights 
   VCA    =   1.00  1.00
   NELECT =     216.0000    total number of electrons
   NUPDOWN=      -1.0000    fix difference up-down

 DOS related values:
   EMIN   =  10.00;   EMAX   =-10.00  energy-range for DOS
   EFERMI =   0.00
   ISMEAR =     0;   SIGMA  =   0.01  broadening in eV -4-tet -1-fermi 0-gaus

 Electronic relaxation 2 (details)
   IALGO  =     58    algorithm
   LDIAG  =      T    sub-space diagonalisation (order eigenvalues)
   LSUBROT=      F    optimize rotation matrix (better conditioning)
   TURBO    =      0    0=normal 1=particle mesh
   IRESTART =      0    0=no restart 2=restart with 2 vectors
   NREBOOT  =      0    no. of reboots
   NMIN     =      0    reboot dimension
   EREF     =   0.00    reference energy to select bands
   IMIX   =      4    mixing-type and parameters
     AMIX     =   0.40;   BMIX     =  1.00
     AMIX_MAG =   1.60;   BMIX_MAG =  1.00
     AMIN     =   0.10
     WC   =   100.;   INIMIX=   1;  MIXPRE=   1;  MAXMIX= -45

 Intra band minimization:
   WEIMIN = 0.0000     energy-eigenvalue tresh-hold
   EBREAK =  0.18E-08  absolut break condition
   DEPER  =   0.30     relativ break condition  

   TIME   =   0.40     timestep for ELM

  volume/ion in A,a.u.               =      49.64       335.01
  Fermi-wavevector in a.u.,A,eV,Ry     =   0.711510  1.344560  6.887909  0.506247
  Thomas-Fermi vector in A             =   1.798641
 
 Write flags
   LWAVE        =      F    write WAVECAR
   LDOWNSAMPLE  =      F    k-point downsampling of WAVECAR
   LCHARG       =      T    write CHGCAR
   LVTOT        =      F    write LOCPOT, total local potential
   LVHAR        =      F    write LOCPOT, Hartree potential only
   LELF         =      F    write electronic localiz. function (ELF)
   LORBIT       =      0    0 simple, 1 ext, 2 COOP (PROOUT), +10 PAW based schemes


 Dipole corrections
   LMONO  =      F    monopole corrections only (constant potential shift)
   LDIPOL =      F    correct potential (dipole corrections)
   IDIPOL =      0    1-x, 2-y, 3-z, 4-all directions 
   EPSILON=  1.0000000 bulk dielectric constant

 Exchange correlation treatment:
   GGA     =    --    GGA type
   LEXCH   =     8    internal setting for exchange type
   VOSKOWN=      0    Vosko Wilk Nusair interpolation
   LHFCALC =     F    Hartree Fock is set to
   LHFONE  =     F    Hartree Fock one center treatment
   AEXX    =    0.0000 exact exchange contribution

 Linear response parameters
   LEPSILON=     F    determine dielectric tensor
   LRPA    =     F    only Hartree local field effects (RPA)
   LNABLA  =     F    use nabla operator in PAW spheres
   LVEL    =     F    velocity operator in full k-point grid
   LINTERFAST=   F  fast interpolation
   KINTER  =     0    interpolate to denser k-point grid
   CSHIFT  =0.1000    complex shift for real part using Kramers Kronig
   OMEGAMAX=  -1.0    maximum frequency
   DEG_THRESHOLD= 0.2000000E-02 threshold for treating states as degnerate
   RTIME   =   -0.100 relaxation time in fs
  (WPLASMAI=    0.000 imaginary part of plasma frequency in eV, 0.658/RTIME)
   DFIELD  = 0.0000000 0.0000000 0.0000000 field for delta impulse in time
 
 Orbital magnetization related:
   ORBITALMAG=     F  switch on orbital magnetization
   LCHIMAG   =     F  perturbation theory with respect to B field
   DQ        =  0.001000  dq finite difference perturbation B field
   LLRAUG    =     F  two centre corrections for induced B field



--------------------------------------------------------------------------------------------------------


 Static calculation
 charge density and potential will be updated during run
 non-spin polarized calculation
 Conjugate gradient for all bands (Freysoldt, et al. PRB 79, 241103 (2009))
 preconditioned conjugated gradient                                        
 perform sub-space diagonalisation
    before iterative eigenvector-optimisation
 modified Broyden-mixing scheme, WC =      100.0
 initial mixing is a Kerker type mixing with AMIX =  0.4000 and BMIX =      1.0000
 Hartree-type preconditioning will be used
 using additional bands           32
 reciprocal scheme for non local part
 use partial core corrections
 no Harris-corrections to forces 
 use gradient corrections 
 use of overlap-Matrix (Vanderbilt PP)
 Gauss-broadening in eV      SIGMA  =   0.01


--------------------------------------------------------------------------------------------------------


  energy-cutoff  :     1000.00
  volume of cell :     2631.08
      direct lattice vectors                 reciprocal lattice vectors
    12.325000000  0.000000000  0.000000000     0.081135903  0.046843835  0.000000000
    -6.162500000 10.673763102  0.000000000     0.000000000  0.093687670  0.000000000
     0.000000000  0.000000000 20.000000000     0.000000000  0.000000000  0.050000000

  length of vectors
    12.325000000 12.325000000 20.000000000     0.093687670  0.093687670  0.050000000


 
 k-points in units of 2pi/SCALE and weight: auto                                    
   0.00000000  0.00000000  0.00000000       1.000
 
 k-points in reciprocal lattice and weights: auto                                    
   0.00000000  0.00000000  0.00000000       1.000
 
 position of ions in fractional coordinates (direct lattice) 
   0.97245084  0.00032082  0.00070839
   0.03911838  0.13365950  0.00055022
   0.17244363  0.00029545  0.00062454
   0.23909628  0.13364792  0.00032058
   0.97245206  0.20032201  0.00060652
   0.03912836  0.33364377  0.00055519
   0.17245176  0.20035455  0.00027396
   0.23912436  0.33366572  0.00009033
   0.37246557  0.00032440  0.00056739
   0.43913747  0.13361994  0.00032292
   0.97244982  0.40030936  0.00068451
   0.03912498  0.53363679  0.00071676
   0.37241618  0.40032948  0.00000000
   0.43909960  0.53363898  0.00029052
   0.57244368  0.00031213  0.00069947
   0.63911021  0.13363175  0.00068409
   0.97245270  0.60030565  0.00080036
   0.03912449  0.73364036  0.00081814
   0.57243347  0.60030624  0.00050362
   0.63911189  0.73364188  0.00065988
   0.17245463  0.40031823  0.00036131
   0.23912018  0.53363655  0.00047314
   0.37245975  0.20029599  0.00011125
   0.43910710  0.33367342  0.00006970
   0.17245216  0.60031151  0.00065542
   0.23912337  0.73363857  0.00071891
   0.57243108  0.20028917  0.00051662
   0.63911277  0.33361863  0.00057797
   0.37243981  0.60030802  0.00045356
   0.43911609  0.73363786  0.00061774
   0.57246936  0.40032050  0.00042490
   0.63911941  0.53365087  0.00057451
   0.77244572  0.00031543  0.00074520
   0.83911628  0.13364020  0.00071913
   0.77244051  0.20030743  0.00072629
   0.83912024  0.33363573  0.00073183
   0.77244632  0.40029837  0.00072872
   0.83911898  0.53363396  0.00077638
   0.77245614  0.60030817  0.00074464
   0.83911503  0.73364318  0.00078939
   0.97245531  0.80030558  0.00081529
   0.03911471  0.93364329  0.00074756
   0.17245797  0.80031221  0.00077922
   0.23913455  0.93364719  0.00068106
   0.37245140  0.80031667  0.00068925
   0.43912449  0.93364477  0.00067679
   0.57244110  0.80031005  0.00066817
   0.63911507  0.93363899  0.00073456
   0.77244510  0.80031319  0.00075258
   0.83911661  0.93364434  0.00075854
   0.37302101  0.25122688  0.29730178
   0.42087980  0.18931315  0.30052287
   0.32515698  0.31316719  0.29432904
 
 position of ions in cartesian coordinates  (Angst):
  11.98347958  0.00342433  0.01416777
  -0.34154264  1.42664989  0.01100432
   2.12354700  0.00315355  0.01249070
   2.12325634  1.42652621  0.00641170
  10.75098721  2.13818970  0.01213047
  -1.57382270  3.56123457  0.01110375
   0.89078307  2.13853702  0.00547917
   0.89099273  3.56146885  0.00180651
   4.58863896  0.00346260  0.01134782
   4.58893648  1.42622757  0.00645846
   9.51853763  4.27280730  0.01369027
  -2.80632132  5.69591267  0.01433526
   2.12299894  4.27302204  0.00000000
   2.12335237  5.69593607  0.00581036
   7.05344483  0.00333155  0.01398950
   7.05352764  1.42635365  0.01368187
   8.28609598  6.40752033  0.01600723
  -4.03884931  7.83070339  0.01636283
   3.35585531  6.40752662  0.01007237
   3.35598594  7.83071962  0.01319763
  -0.34145776  4.27290193  0.00722612
  -0.34137895  5.69591010  0.00946273
   3.35624236  2.13791198  0.00222492
   3.35573251  3.56155103  0.00139405
  -1.57394684  6.40758280  0.01310850
  -1.57385216  7.83068434  0.01437823
   5.82093107  2.13783916  0.01033241
   5.82114012  3.56096622  0.01155939
   0.89092245  6.40754561  0.00907111
   0.89106251  7.83067670  0.01235474
   4.58870974  4.27292622  0.00849795
   4.58852320  5.69606300  0.01149026
   9.51844972  0.00336679  0.01490402
   9.51855036  1.42644387  0.01438264
   8.28593477  2.13803408  0.01452582
   8.28612680  3.56114872  0.01463668
   7.05356221  4.27268994  0.01457444
   7.05362213  5.69588251  0.01552751
   5.82112285  6.40754723  0.01489279
   5.82101669  7.83073350  0.01578780
   7.05362858  8.54227219  0.01630582
  -5.27148792  9.96548729  0.01495127
  -2.80637951  8.54234295  0.01558431
  -2.80626749  9.96552896  0.01362126
  -0.34148805  8.54239058  0.01378498
  -0.34137657  9.96550309  0.01353576
   2.12342586  8.54231992  0.01336337
   2.12354296  9.96544135  0.01469111
   4.58845581  8.54235337  0.01505154
   4.58852904  9.96549848  0.01517076
   3.04929830  2.68153618  5.94603558
   4.02070129  2.02068374  6.01045744
   2.07766701  3.34267235  5.88658071
 


--------------------------------------------------------------------------------------------------------


 k-point   1 :   0.0000 0.0000 0.0000  plane waves:  189031

 maximum and minimum number of plane-waves per node :     47262    47254

 maximum number of plane-waves:    189031
 maximum index in each direction: 
   IXMAX=   31   IYMAX=   31   IZMAX=   51
   IXMIN=  -31   IYMIN=  -31   IZMIN=  -51


 parallel 3D FFT for wavefunctions:
    minimum data exchange during FFTs selected (reduces bandwidth)
 parallel 3D FFT for charge:
    minimum data exchange during FFTs selected (reduces bandwidth)


 total amount of memory used by VASP MPI-rank0   175916. kBytes
=======================================================================

   base      :      30000. kBytes
   nonl-proj :      46129. kBytes
   fftplans  :      35778. kBytes
   grid      :      52596. kBytes
   one-center:         43. kBytes
   wavefun   :      11370. kBytes
 
     INWAV:  cpu time    0.0000: real time    0.0000
 Broyden mixing: mesh for mixing (old mesh)
   NGX = 63   NGY = 63   NGZ =103
  (NGX  =256   NGY  =256   NGZ  =420)
  gives a total of 408807 points

 initial charge density was supplied:
 charge density of overlapping atoms calculated
 number of electron     216.0000000 magnetization 
 keeping initial charge density in first step


--------------------------------------------------------------------------------------------------------


 Maximum index for augmentation-charges          459 (set IRDMAX)


--------------------------------------------------------------------------------------------------------


 First call to EWALD:  gamma=   0.128
 Maximum number of real-space cells 3x 3x 2
 Maximum number of reciprocal cells 3x 3x 4

    FEWALD:  cpu time    0.0024: real time    0.0024


--------------------------------------- Iteration      1(   1)  ---------------------------------------


    POTLOK:  cpu time    0.2872: real time    0.2896
    SETDIJ:  cpu time    0.0053: real time    0.0053
    TRIAL :  cpu time    4.2096: real time    4.2543
    CORREC:  cpu time    0.0007: real time    0.0009
    --------------------------------------------
      LOOP:  cpu time    4.5054: real time    4.5658

 eigenvalue-minimisations  :   280
 total energy-change (2. order) : 0.2665430E+04  (-0.1114132E+05)
 number of electron     216.0000000 magnetization 
 augmentation part      216.0000000 magnetization 

 Free energy of the ion-electron system (eV)
  ---------------------------------------------------
  alpha Z        PSCENC =        59.93625244
  Ewald energy   TEWEN  =     31026.62845738
  -Hartree energ DENC   =    -37202.07702306
  -exchange      EXHF   =         0.00000000
  -V(xc)+E(xc)   XCENC  =       420.79876021
  PAW double counting   =      6525.96553977    -6260.36035765
  entropy T*S    EENTRO =        -0.00000011
  eigenvalues    EBANDS =      -274.98542738
  atomic energy  EATOM  =      8369.52358910
  ---------------------------------------------------
  free energy    TOTEN  =      2665.42979070 eV

  energy without entropy =     2665.42979081  energy(sigma->0) =     2665.42979076


--------------------------------------------------------------------------------------------------------




--------------------------------------- Iteration      1(   2)  ---------------------------------------


    TRIAL :  cpu time    6.0813: real time    6.1424
    CORREC:  cpu time    0.0001: real time    0.0001
    --------------------------------------------
      LOOP:  cpu time    6.1490: real time    6.2133

 eigenvalue-minimisations  :   448
 total energy-change (2. order) :-0.2447493E+04  (-0.2303402E+04)
 number of electron     216.0000000 magnetization 
 augmentation part      216.0000000 magnetization 

 Free energy of the ion-electron system (eV)
  ---------------------------------------------------
  alpha Z        PSCENC =        59.93625244
  Ewald energy   TEWEN  =     31026.62845738
  -Hartree energ DENC   =    -37202.07702306
  -exchange      EXHF   =         0.00000000
  -V(xc)+E(xc)   XCENC  =       420.79876021
  PAW double counting   =      6525.96553977    -6260.36035765
  entropy T*S    EENTRO =        -0.00000000
  eigenvalues    EBANDS =     -2722.47793706
  atomic energy  EATOM  =      8369.52358910
  ---------------------------------------------------
  free energy    TOTEN  =       217.93728113 eV

  energy without entropy =      217.93728113  energy(sigma->0) =      217.93728113


--------------------------------------------------------------------------------------------------------




--------------------------------------- Iteration      1(   3)  ---------------------------------------


    TRIAL :  cpu time    4.8146: real time    4.8632
    CORREC:  cpu time    0.0001: real time    0.0001
    --------------------------------------------
      LOOP:  cpu time    4.9329: real time    4.9865

 eigenvalue-minimisations  :   336
 total energy-change (2. order) :-0.6974535E+03  (-0.6935952E+03)
 number of electron     216.0000000 magnetization 
 augmentation part      216.0000000 magnetization 

 Free energy of the ion-electron system (eV)
  ---------------------------------------------------
  alpha Z        PSCENC =        59.93625244
  Ewald energy   TEWEN  =     31026.62845738
  -Hartree energ DENC   =    -37202.07702306
  -exchange      EXHF   =         0.00000000
  -V(xc)+E(xc)   XCENC  =       420.79876021
  PAW double counting   =      6525.96553977    -6260.36035765
  entropy T*S    EENTRO =        -0.00000000
  eigenvalues    EBANDS =     -3419.93145414
  atomic energy  EATOM  =      8369.52358910
  ---------------------------------------------------
  free energy    TOTEN  =      -479.51623595 eV

  energy without entropy =     -479.51623595  energy(sigma->0) =     -479.51623595


--------------------------------------------------------------------------------------------------------




--------------------------------------- Iteration      1(   4)  ---------------------------------------


    TRIAL :  cpu time    5.4448: real time    5.5026
    CORREC:  cpu time    0.0001: real time    0.0001
    --------------------------------------------
      LOOP:  cpu time    5.5039: real time    5.5631

 eigenvalue-minimisations  :   392
 total energy-change (2. order) :-0.3773772E+02  (-0.3756319E+02)
 number of electron     216.0000000 magnetization 
 augmentation part      216.0000000 magnetization 

 Free energy of the ion-electron system (eV)
  ---------------------------------------------------
  alpha Z        PSCENC =        59.93625244
  Ewald energy   TEWEN  =     31026.62845738
  -Hartree energ DENC   =    -37202.07702306
  -exchange      EXHF   =         0.00000000
  -V(xc)+E(xc)   XCENC  =       420.79876021
  PAW double counting   =      6525.96553977    -6260.36035765
  entropy T*S    EENTRO =        -0.00000000
  eigenvalues    EBANDS =     -3457.66917731
  atomic energy  EATOM  =      8369.52358910
  ---------------------------------------------------
  free energy    TOTEN  =      -517.25395912 eV

  energy without entropy =     -517.25395912  energy(sigma->0) =     -517.25395912


--------------------------------------------------------------------------------------------------------




--------------------------------------- Iteration      1(   5)  ---------------------------------------


    TRIAL :  cpu time    5.4378: real time    5.4985
    CORREC:  cpu time    0.0001: real time    0.0001
    CHARGE:  cpu time    0.2381: real time    0.2431
    --------------------------------------------
      LOOP:  cpu time    5.7029: real time    5.7707

 eigenvalue-minimisations  :   392
 total energy-change (2. order) :-0.7840084E+00  (-0.7808593E+00)
 number of electron     216.0000000 magnetization 
 augmentation part       -0.2667177 magnetization 

 Free energy of the ion-electron system (eV)
  ---------------------------------------------------
  alpha Z        PSCENC =        59.93625244
  Ewald energy   TEWEN  =     31026.62845738
  -Hartree energ DENC   =    -37202.07702306
  -exchange      EXHF   =         0.00000000
  -V(xc)+E(xc)   XCENC  =       420.79876021
  PAW double counting   =      6525.96553977    -6260.36035765
  entropy T*S    EENTRO =        -0.00000000
  eigenvalues    EBANDS =     -3458.45318570
  atomic energy  EATOM  =      8369.52358910
  ---------------------------------------------------
  free energy    TOTEN  =      -518.03796751 eV

  energy without entropy =     -518.03796751  energy(sigma->0) =     -518.03796751


--------------------------------------------------------------------------------------------------------




--------------------------------------- Iteration      1(   6)  ---------------------------------------


    POTLOK:  cpu time    0.2678: real time    0.2699
    SETDIJ:  cpu time    0.0031: real time    0.0031
    TRIAL :  cpu time    2.0095: real time    2.0298
    CORREC:  cpu time    0.7946: real time    0.8017
    CHARGE:  cpu time    0.2349: real time    0.2368
    --------------------------------------------
      LOOP:  cpu time    3.4100: real time    3.4460

 eigenvalue-minimisations  :     0
 total energy-change (2. order) : 0.5122673E+02  (-0.1540829E+02)
 number of electron     216.0000000 magnetization 
 augmentation part       -0.3656364 magnetization 

 Free energy of the ion-electron system (eV)
  ---------------------------------------------------
  alpha Z        PSCENC =        59.93625244
  Ewald energy   TEWEN  =     31026.62845738
  -Hartree energ DENC   =    -38609.73976010
  -exchange      EXHF   =         0.00000000
  -V(xc)+E(xc)   XCENC  =       468.95502797
  PAW double counting   =     89704.54774451   -89447.21115317
  entropy T*S    EENTRO =        -0.00000000
  eigenvalues    EBANDS =     -2039.45139269
  atomic energy  EATOM  =      8369.52358910
  ---------------------------------------------------
  free energy    TOTEN  =      -466.81123458 eV

  energy without entropy =     -466.81123458  energy(sigma->0) =     -466.81123458


--------------------------------------------------------------------------------------------------------




--------------------------------------- Iteration      1(   7)  ---------------------------------------


    POTLOK:  cpu time    0.2679: real time    0.2700
    SETDIJ:  cpu time    0.0031: real time    0.0031
    TRIAL :  cpu time    2.0010: real time    2.0208
    CORREC:  cpu time    0.7971: real time    0.8041
    CHARGE:  cpu time    0.2343: real time    0.2361
    --------------------------------------------
      LOOP:  cpu time    3.3767: real time    3.4107

 eigenvalue-minimisations  :     0
 total energy-change (2. order) :-0.1544961E+02  (-0.1796409E+01)
 number of electron     216.0000000 magnetization 
 augmentation part       -0.4128778 magnetization 

 Free energy of the ion-electron system (eV)
  ---------------------------------------------------
  alpha Z        PSCENC =        59.93625244
  Ewald energy   TEWEN  =     31026.62845738
  -Hartree energ DENC   =    -38111.82699696
  -exchange      EXHF   =         0.00000000
  -V(xc)+E(xc)   XCENC  =       451.94329102
  PAW double counting   =    105803.89196491  -105543.74058567
  entropy T*S    EENTRO =        -0.00000000
  eigenvalues    EBANDS =     -2538.61682111
  atomic energy  EATOM  =      8369.52358910
  ---------------------------------------------------
  free energy    TOTEN  =      -482.26084889 eV

  energy without entropy =     -482.26084889  energy(sigma->0) =     -482.26084889


--------------------------------------------------------------------------------------------------------




--------------------------------------- Iteration      1(   8)  ---------------------------------------


    POTLOK:  cpu time    0.2674: real time    0.2695
    SETDIJ:  cpu time    0.0031: real time    0.0031
    TRIAL :  cpu time    1.9998: real time    2.0202
    CORREC:  cpu time    0.7957: real time    0.8026
    CHARGE:  cpu time    0.2353: real time    0.2373
    --------------------------------------------
      LOOP:  cpu time    3.3653: real time    3.3996

 eigenvalue-minimisations  :     0
 total energy-change (2. order) :-0.1794966E+01  (-0.4683680E+00)
 number of electron     216.0000000 magnetization 
 augmentation part       -0.4298803 magnetization 

 Free energy of the ion-electron system (eV)
  ---------------------------------------------------
  alpha Z        PSCENC =        59.93625244
  Ewald energy   TEWEN  =     31026.62845738
  -Hartree energ DENC   =    -38083.79645291
  -exchange      EXHF   =         0.00000000
  -V(xc)+E(xc)   XCENC  =       451.36085563
  PAW double counting   =    110148.01140599  -109887.44951670
  entropy T*S    EENTRO =        -0.00000000
  eigenvalues    EBANDS =     -2568.27040546
  atomic energy  EATOM  =      8369.52358910
  ---------------------------------------------------
  free energy    TOTEN  =      -484.05581453 eV

  energy without entropy =     -484.05581453  energy(sigma->0) =     -484.05581453


--------------------------------------------------------------------------------------------------------




--------------------------------------- Iteration      1(   9)  ---------------------------------------


    POTLOK:  cpu time    0.2671: real time    0.2690
    SETDIJ:  cpu time    0.0030: real time    0.0030
    TRIAL :  cpu time    2.0005: real time    2.0201
    CORREC:  cpu time    0.7959: real time    0.8034
    CHARGE:  cpu time    0.2357: real time    0.2379
    --------------------------------------------
      LOOP:  cpu time    3.3693: real time    3.4013

 eigenvalue-minimisations  :     0
 total energy-change (2. order) :-0.4682222E+00  (-0.1497358E+00)
 number of electron     216.0000000 magnetization 
 augmentation part       -0.4372958 magnetization 

 Free energy of the ion-electron system (eV)
  ---------------------------------------------------
  alpha Z        PSCENC =        59.93625244
  Ewald energy   TEWEN  =     31026.62845738
  -Hartree energ DENC   =    -38099.98071218
  -exchange      EXHF   =         0.00000000
  -V(xc)+E(xc)   XCENC  =       451.56134325
  PAW double counting   =    112926.65928117  -112665.94542689
  entropy T*S    EENTRO =        -0.00000000
  eigenvalues    EBANDS =     -2552.90682096
  atomic energy  EATOM  =      8369.52358910
  ---------------------------------------------------
  free energy    TOTEN  =      -484.52403670 eV

  energy without entropy =     -484.52403670  energy(sigma->0) =     -484.52403670


--------------------------------------------------------------------------------------------------------




--------------------------------------- Iteration      1(  10)  ---------------------------------------


    POTLOK:  cpu time    0.2672: real time    0.2691
    SETDIJ:  cpu time    0.0029: real time    0.0030
    TRIAL :  cpu time    2.0005: real time    2.0203
    CORREC:  cpu time    0.7936: real time    0.8003
    CHARGE:  cpu time    0.2355: real time    0.2374
    --------------------------------------------
      LOOP:  cpu time    3.3687: real time    3.4012

 eigenvalue-minimisations  :     0
 total energy-change (2. order) :-0.1494855E+00  (-0.5952141E-01)
 number of electron     216.0000000 magnetization 
 augmentation part       -0.4379613 magnetization 

 Free energy of the ion-electron system (eV)
  ---------------------------------------------------
  alpha Z        PSCENC =        59.93625244
  Ewald energy   TEWEN  =     31026.62845738
  -Hartree energ DENC   =    -38101.05084823
  -exchange      EXHF   =         0.00000000
  -V(xc)+E(xc)   XCENC  =       451.48514772
  PAW double counting   =    113403.41517151  -113142.61743951
  entropy T*S    EENTRO =        -0.00000000
  eigenvalues    EBANDS =     -2551.99385260
  atomic energy  EATOM  =      8369.52358910
  ---------------------------------------------------
  free energy    TOTEN  =      -484.67352220 eV

  energy without entropy =     -484.67352220  energy(sigma->0) =     -484.67352220


--------------------------------------------------------------------------------------------------------




--------------------------------------- Iteration      1(  11)  ---------------------------------------


    POTLOK:  cpu time    0.2670: real time    0.2688
    SETDIJ:  cpu time    0.0031: real time    0.0031
    TRIAL :  cpu time    1.9991: real time    2.0197
    CORREC:  cpu time    0.7940: real time    0.8013
    CHARGE:  cpu time    0.2349: real time    0.2371
    --------------------------------------------
      LOOP:  cpu time    3.3490: real time    3.3848

 eigenvalue-minimisations  :     0
 total energy-change (2. order) :-0.5936130E-01  (-0.2415838E-01)
 number of electron     216.0000000 magnetization 
 augmentation part       -0.4374655 magnetization 

 Free energy of the ion-electron system (eV)
  ---------------------------------------------------
  alpha Z        PSCENC =        59.93625244
  Ewald energy   TEWEN  =     31026.62845738
  -Hartree energ DENC   =    -38097.17611249
  -exchange      EXHF   =         0.00000000
  -V(xc)+E(xc)   XCENC  =       451.42809508
  PAW double counting   =    112939.27147627  -112678.47332914
  entropy T*S    EENTRO =        -0.00000000
  eigenvalues    EBANDS =     -2555.87131214
  atomic energy  EATOM  =      8369.52358910
  ---------------------------------------------------
  free energy    TOTEN  =      -484.73288350 eV

  energy without entropy =     -484.73288350  energy(sigma->0) =     -484.73288350


--------------------------------------------------------------------------------------------------------




--------------------------------------- Iteration      1(  12)  ---------------------------------------


    POTLOK:  cpu time    0.2669: real time    0.2687
    SETDIJ:  cpu time    0.0031: real time    0.0031
    TRIAL :  cpu time    1.9999: real time    2.0196
    CORREC:  cpu time    0.7920: real time    0.7994
    CHARGE:  cpu time    0.2356: real time    0.2375
    --------------------------------------------
      LOOP:  cpu time    3.3139: real time    3.3470

 eigenvalue-minimisations  :     0
 total energy-change (2. order) :-0.2405991E-01  (-0.8373065E-02)
 number of electron     216.0000000 magnetization 
 augmentation part       -0.4375494 magnetization 

 Free energy of the ion-electron system (eV)
  ---------------------------------------------------
  alpha Z        PSCENC =        59.93625244
  Ewald energy   TEWEN  =     31026.62845738
  -Hartree energ DENC   =    -38095.37094678
  -exchange      EXHF   =         0.00000000
  -V(xc)+E(xc)   XCENC  =       451.39357492
  PAW double counting   =    112564.41351434  -112303.63731916
  entropy T*S    EENTRO =        -0.00000000
  eigenvalues    EBANDS =     -2557.64406565
  atomic energy  EATOM  =      8369.52358910
  ---------------------------------------------------
  free energy    TOTEN  =      -484.75694341 eV

  energy without entropy =     -484.75694341  energy(sigma->0) =     -484.75694341


--------------------------------------------------------------------------------------------------------




--------------------------------------- Iteration      1(  13)  ---------------------------------------


    POTLOK:  cpu time    0.2650: real time    0.2669
    SETDIJ:  cpu time    0.0031: real time    0.0031
    TRIAL :  cpu time    2.0007: real time    2.0210
    CORREC:  cpu time    0.7936: real time    0.8006
    CHARGE:  cpu time    0.2346: real time    0.2365
    --------------------------------------------
      LOOP:  cpu time    3.3916: real time    3.4302

 eigenvalue-minimisations  :     0
 total energy-change (2. order) :-0.8356522E-02  (-0.2387596E-02)
 number of electron     216.0000000 magnetization 
 augmentation part       -0.4372205 magnetization 

 Free energy of the ion-electron system (eV)
  ---------------------------------------------------
  alpha Z        PSCENC =        59.93625244
  Ewald energy   TEWEN  =     31026.62845738
  -Hartree energ DENC   =    -38095.29873397
  -exchange      EXHF   =         0.00000000
  -V(xc)+E(xc)   XCENC  =       451.38241355
  PAW double counting   =    112446.74050466  -112185.97484306
  entropy T*S    EENTRO =        -0.00000000
  eigenvalues    EBANDS =     -2557.70294003
  atomic energy  EATOM  =      8369.52358910
  ---------------------------------------------------
  free energy    TOTEN  =      -484.76529993 eV

  energy without entropy =     -484.76529993  energy(sigma->0) =     -484.76529993


--------------------------------------------------------------------------------------------------------




--------------------------------------- Iteration      1(  14)  ---------------------------------------


    POTLOK:  cpu time    0.2643: real time    0.2661
    SETDIJ:  cpu time    0.0030: real time    0.0030
    TRIAL :  cpu time    1.9946: real time    2.0257
    CORREC:  cpu time    0.7953: real time    0.8022
    CHARGE:  cpu time    0.2352: real time    0.2370
    --------------------------------------------
      LOOP:  cpu time    3.3505: real time    3.4065

 eigenvalue-minimisations  :     0
 total energy-change (2. order) :-0.2389007E-02  (-0.6761594E-03)
 number of electron     216.0000000 magnetization 
 augmentation part       -0.4370009 magnetization 

 Free energy of the ion-electron system (eV)
  ---------------------------------------------------
  alpha Z        PSCENC =        59.93625244
  Ewald energy   TEWEN  =     31026.62845738
  -Hartree energ DENC   =    -38095.29364907
  -exchange      EXHF   =         0.00000000
  -V(xc)+E(xc)   XCENC  =       451.38144329
  PAW double counting   =    112481.41072982  -112220.64777805
  entropy T*S    EENTRO =        -0.00000000
  eigenvalues    EBANDS =     -2557.70673384
  atomic energy  EATOM  =      8369.52358910
  ---------------------------------------------------
  free energy    TOTEN  =      -484.76768894 eV

  energy without entropy =     -484.76768894  energy(sigma->0) =     -484.76768894


--------------------------------------------------------------------------------------------------------




--------------------------------------- Iteration      1(  15)  ---------------------------------------


    POTLOK:  cpu time    0.2633: real time    0.2649
    SETDIJ:  cpu time    0.0030: real time    0.0030
    TRIAL :  cpu time    1.9981: real time    2.0208
    CORREC:  cpu time    0.7918: real time    0.7986
    CHARGE:  cpu time    0.2356: real time    0.2374
    --------------------------------------------
      LOOP:  cpu time    3.3628: real time    3.3989

 eigenvalue-minimisations  :     0
 total energy-change (2. order) :-0.6777940E-03  (-0.2348049E-03)
 number of electron     216.0000000 magnetization 
 augmentation part       -0.4367230 magnetization 

 Free energy of the ion-electron system (eV)
  ---------------------------------------------------
  alpha Z        PSCENC =        59.93625244
  Ewald energy   TEWEN  =     31026.62845738
  -Hartree energ DENC   =    -38094.97634019
  -exchange      EXHF   =         0.00000000
  -V(xc)+E(xc)   XCENC  =       451.36783787
  PAW double counting   =    112512.18616854  -112251.42146223
  entropy T*S    EENTRO =        -0.00000000
  eigenvalues    EBANDS =     -2558.01286964
  atomic energy  EATOM  =      8369.52358910
  ---------------------------------------------------
  free energy    TOTEN  =      -484.76836674 eV

  energy without entropy =     -484.76836674  energy(sigma->0) =     -484.76836674


--------------------------------------------------------------------------------------------------------




--------------------------------------- Iteration      1(  16)  ---------------------------------------


    POTLOK:  cpu time    0.2631: real time    0.2652
    SETDIJ:  cpu time    0.0028: real time    0.0028
    TRIAL :  cpu time    2.0012: real time    2.0213
    CORREC:  cpu time    0.7886: real time    0.7980
    CHARGE:  cpu time    0.2352: real time    0.2372
    --------------------------------------------
      LOOP:  cpu time    3.3630: real time    3.4062

 eigenvalue-minimisations  :     0
 total energy-change (2. order) :-0.2359576E-03  (-0.8729740E-04)
 number of electron     216.0000000 magnetization 
 augmentation part       -0.4365701 magnetization 

 Free energy of the ion-electron system (eV)
  ---------------------------------------------------
  alpha Z        PSCENC =        59.93625244
  Ewald energy   TEWEN  =     31026.62845738
  -Hartree energ DENC   =    -38095.06307058
  -exchange      EXHF   =         0.00000000
  -V(xc)+E(xc)   XCENC  =       451.37159072
  PAW double counting   =    112492.55631869  -112231.79224186
  entropy T*S    EENTRO =        -0.00000000
  eigenvalues    EBANDS =     -2557.92949859
  atomic energy  EATOM  =      8369.52358910
  ---------------------------------------------------
  free energy    TOTEN  =      -484.76860269 eV

  energy without entropy =     -484.76860269  energy(sigma->0) =     -484.76860269


--------------------------------------------------------------------------------------------------------




--------------------------------------- Iteration      1(  17)  ---------------------------------------


    POTLOK:  cpu time    0.2634: real time    0.2651
    SETDIJ:  cpu time    0.0030: real time    0.0030
    TRIAL :  cpu time    1.9966: real time    2.0189
    CORREC:  cpu time    0.7908: real time    0.7990
    CHARGE:  cpu time    0.2353: real time    0.2371
    --------------------------------------------
      LOOP:  cpu time    3.3710: real time    3.4076

 eigenvalue-minimisations  :     0
 total energy-change (2. order) :-0.8782654E-04  (-0.3478393E-04)
 number of electron     216.0000000 magnetization 
 augmentation part       -0.4365805 magnetization 

 Free energy of the ion-electron system (eV)
  ---------------------------------------------------
  alpha Z        PSCENC =        59.93625244
  Ewald energy   TEWEN  =     31026.62845738
  -Hartree energ DENC   =    -38095.16468938
  -exchange      EXHF   =         0.00000000
  -V(xc)+E(xc)   XCENC  =       451.37502632
  PAW double counting   =    112463.21877930  -112202.45510523
  entropy T*S    EENTRO =        -0.00000000
  eigenvalues    EBANDS =     -2557.83100045
  atomic energy  EATOM  =      8369.52358910
  ---------------------------------------------------
  free energy    TOTEN  =      -484.76869052 eV

  energy without entropy =     -484.76869052  energy(sigma->0) =     -484.76869052


--------------------------------------------------------------------------------------------------------




--------------------------------------- Iteration      1(  18)  ---------------------------------------


    POTLOK:  cpu time    0.2619: real time    0.2637
    SETDIJ:  cpu time    0.0030: real time    0.0030
    TRIAL :  cpu time    1.9990: real time    2.0198
    CORREC:  cpu time    0.7893: real time    0.7961
    CHARGE:  cpu time    0.2346: real time    0.2367
    --------------------------------------------
      LOOP:  cpu time    3.3571: real time    3.4129

 eigenvalue-minimisations  :     0
 total energy-change (2. order) :-0.3492476E-04  (-0.1334232E-04)
 number of electron     216.0000000 magnetization 
 augmentation part       -0.4366293 magnetization 

 Free energy of the ion-electron system (eV)
  ---------------------------------------------------
  alpha Z        PSCENC =        59.93625244
  Ewald energy   TEWEN  =     31026.62845738
  -Hartree energ DENC   =    -38095.14830932
  -exchange      EXHF   =         0.00000000
  -V(xc)+E(xc)   XCENC  =       451.37405532
  PAW double counting   =    112454.01759105  -112193.25344641
  entropy T*S    EENTRO =        -0.00000000
  eigenvalues    EBANDS =     -2557.84691500
  atomic energy  EATOM  =      8369.52358910
  ---------------------------------------------------
  free energy    TOTEN  =      -484.76872544 eV

  energy without entropy =     -484.76872544  energy(sigma->0) =     -484.76872544


--------------------------------------------------------------------------------------------------------




--------------------------------------- Iteration      1(  19)  ---------------------------------------


    POTLOK:  cpu time    0.2638: real time    0.2660
    SETDIJ:  cpu time    0.0031: real time    0.0031
    TRIAL :  cpu time    1.9992: real time    2.0196
    CORREC:  cpu time    0.7901: real time    0.7976
    CHARGE:  cpu time    0.2350: real time    0.2368
    --------------------------------------------
      LOOP:  cpu time    3.3773: real time    3.4180

 eigenvalue-minimisations  :     0
 total energy-change (2. order) :-0.1312028E-04  (-0.4971547E-05)
 number of electron     216.0000000 magnetization 
 augmentation part       -0.4367016 magnetization 

 Free energy of the ion-electron system (eV)
  ---------------------------------------------------
  alpha Z        PSCENC =        59.93625244
  Ewald energy   TEWEN  =     31026.62845738
  -Hartree energ DENC   =    -38095.17027909
  -exchange      EXHF   =         0.00000000
  -V(xc)+E(xc)   XCENC  =       451.37528411
  PAW double counting   =    112458.85722466  -112198.09297764
  entropy T*S    EENTRO =        -0.00000000
  eigenvalues    EBANDS =     -2557.82628952
  atomic energy  EATOM  =      8369.52358910
  ---------------------------------------------------
  free energy    TOTEN  =      -484.76873856 eV

  energy without entropy =     -484.76873856  energy(sigma->0) =     -484.76873856


--------------------------------------------------------------------------------------------------------




--------------------------------------- Iteration      1(  20)  ---------------------------------------


    POTLOK:  cpu time    0.2630: real time    0.2650
    SETDIJ:  cpu time    0.0030: real time    0.0030
    TRIAL :  cpu time    2.0003: real time    2.0226
    CORREC:  cpu time    0.7791: real time    0.7975
    CHARGE:  cpu time    0.2354: real time    0.2373
    --------------------------------------------
      LOOP:  cpu time    3.2987: real time    3.3754

 eigenvalue-minimisations  :     0
 total energy-change (2. order) :-0.4771951E-05  (-0.1851413E-05)
 number of electron     216.0000000 magnetization 
 augmentation part       -0.4367082 magnetization 

 Free energy of the ion-electron system (eV)
  ---------------------------------------------------
  alpha Z        PSCENC =        59.93625244
  Ewald energy   TEWEN  =     31026.62845738
  -Hartree energ DENC   =    -38095.15906772
  -exchange      EXHF   =         0.00000000
  -V(xc)+E(xc)   XCENC  =       451.37429416
  PAW double counting   =    112464.62333102  -112203.85871444
  entropy T*S    EENTRO =        -0.00000000
  eigenvalues    EBANDS =     -2557.83688527
  atomic energy  EATOM  =      8369.52358910
  ---------------------------------------------------
  free energy    TOTEN  =      -484.76874334 eV

  energy without entropy =     -484.76874334  energy(sigma->0) =     -484.76874334


--------------------------------------------------------------------------------------------------------




--------------------------------------- Iteration      1(  21)  ---------------------------------------


    POTLOK:  cpu time    0.2633: real time    0.2655
    SETDIJ:  cpu time    0.0030: real time    0.0030
    TRIAL :  cpu time    1.9969: real time    2.0191
    CORREC:  cpu time    0.7917: real time    0.7993
    CHARGE:  cpu time    0.2353: real time    0.2375
    --------------------------------------------
      LOOP:  cpu time    3.2931: real time    3.3867

 eigenvalue-minimisations  :     0
 total energy-change (2. order) :-0.1736116E-05  (-0.7841332E-06)
 number of electron     216.0000000 magnetization 
 augmentation part       -0.4367169 magnetization 

 Free energy of the ion-electron system (eV)
  ---------------------------------------------------
  alpha Z        PSCENC =        59.93625244
  Ewald energy   TEWEN  =     31026.62845738
  -Hartree energ DENC   =    -38095.18192342
  -exchange      EXHF   =         0.00000000
  -V(xc)+E(xc)   XCENC  =       451.37540055
  PAW double counting   =    112466.42466945  -112205.66023848
  entropy T*S    EENTRO =        -0.00000000
  eigenvalues    EBANDS =     -2557.81495209
  atomic energy  EATOM  =      8369.52358910
  ---------------------------------------------------
  free energy    TOTEN  =      -484.76874507 eV

  energy without entropy =     -484.76874507  energy(sigma->0) =     -484.76874507


--------------------------------------------------------------------------------------------------------




--------------------------------------- Iteration      1(  22)  ---------------------------------------


    POTLOK:  cpu time    0.2633: real time    0.2651
    SETDIJ:  cpu time    0.0030: real time    0.0030
    TRIAL :  cpu time    1.9990: real time    2.0186
    CORREC:  cpu time    0.7915: real time    0.7980
    EDDIAG:  cpu time    0.4543: real time    0.4612
    CHARGE:  cpu time    0.2300: real time    0.2369
    --------------------------------------------
      LOOP:  cpu time    3.7977: real time    3.8676

 eigenvalue-minimisations  :     0
 total energy-change (2. order) :-0.7624476E-06  (-0.3177523E-06)
 number of electron     216.0000000 magnetization 
 augmentation part       -0.4367122 magnetization 

 Free energy of the ion-electron system (eV)
  ---------------------------------------------------
  alpha Z        PSCENC =        59.93625244
  Ewald energy   TEWEN  =     31026.62845738
  -Hartree energ DENC   =    -38095.17042098
  -exchange      EXHF   =         0.00000000
  -V(xc)+E(xc)   XCENC  =       451.37480572
  PAW double counting   =    112466.16521907  -112205.40074102
  entropy T*S    EENTRO =        -0.00000000
  eigenvalues    EBANDS =     -2557.82590755
  atomic energy  EATOM  =      8369.52358910
  ---------------------------------------------------
  free energy    TOTEN  =      -484.76874584 eV

  energy without entropy =     -484.76874584  energy(sigma->0) =     -484.76874584


--------------------------------------------------------------------------------------------------------


  average scaling for gradient   0.9256


 average (electrostatic) potential at core
  the test charge radii are     0.5770  0.5955
  (the norm of the test charge is              1.0000)
       1 -85.2917       2 -85.2908       3 -85.2924       4 -85.2937       5 -85.2896
       6 -85.2892       7 -85.2922       8 -85.2903       9 -85.2905      10 -85.2917
      11 -85.2892      12 -85.2895      13 -85.2916      14 -85.2903      15 -85.2891
      16 -85.2896      17 -85.2902      18 -85.2910      19 -85.2916      20 -85.2904
      21 -85.2891      22 -85.2888      23 -85.2944      24 -85.2942      25 -85.2889
      26 -85.2894      27 -85.2907      28 -85.2922      29 -85.2891      30 -85.2890
      31 -85.2930      32 -85.2919      33 -85.2898      34 -85.2894      35 -85.2894
      36 -85.2898      37 -85.2908      38 -85.2913      39 -85.2913      40 -85.2912
      41 -85.2912      42 -85.2916      43 -85.2904      44 -85.2917      45 -85.2890
      46 -85.2893      47 -85.2895      48 -85.2892      49 -85.2911      50 -85.2905
      51 -89.2282      52-120.0074      53-120.0070
 
 
 
 E-fermi :  -3.9198     XC(G=0):  -2.4119     alpha+bet : -2.1113

 Fermi energy:        -3.9197780767

 k-point     1 :       0.0000    0.0000    0.0000
  band No.  band energies     occupation 
      1     -27.3292      2.00000
      2     -26.3240      2.00000
      3     -22.0405      2.00000
      4     -21.1010      2.00000
      5     -21.1004      2.00000
      6     -21.1002      2.00000
      7     -21.0992      2.00000
      8     -21.0989      2.00000
      9     -21.0988      2.00000
     10     -19.2561      2.00000
     11     -19.2560      2.00000
     12     -19.2557      2.00000
     13     -19.2551      2.00000
     14     -19.2549      2.00000
     15     -19.2547      2.00000
     16     -18.3582      2.00000
     17     -18.3580      2.00000
     18     -18.3577      2.00000
     19     -18.3572      2.00000
     20     -18.3568      2.00000
     21     -18.3565      2.00000
     22     -16.1903      2.00000
     23     -16.1900      2.00000
     24     -16.1891      2.00000
     25     -16.1889      2.00000
     26     -16.1884      2.00000
     27     -16.1884      2.00000
     28     -15.2042      2.00000
     29     -15.2042      2.00000
     30     -15.2035      2.00000
     31     -15.2033      2.00000
     32     -15.2028      2.00000
     33     -15.2027      2.00000
     34     -13.8508      2.00000
     35     -13.8506      2.00000
     36     -13.8500      2.00000
     37     -13.8499      2.00000
     38     -13.8498      2.00000
     39     -13.8496      2.00000
     40     -12.1325      2.00000
     41     -11.4618      2.00000
     42     -11.4615      2.00000
     43     -11.4611      2.00000
     44     -11.4610      2.00000
     45     -11.4600      2.00000
     46     -11.4597      2.00000
     47     -11.3648      2.00000
     48     -11.3648      2.00000
     49     -11.3642      2.00000
     50     -11.3642      2.00000
     51     -11.3637      2.00000
     52     -11.3635      2.00000
     53     -10.9430      2.00000
     54     -10.8784      2.00000
     55     -10.8782      2.00000
     56     -10.1324      2.00000
     57      -9.9877      2.00000
     58      -9.9876      2.00000
     59      -9.9861      2.00000
     60      -9.9857      2.00000
     61      -9.9855      2.00000
     62      -9.9855      2.00000
     63      -9.0168      2.00000
     64      -9.0164      2.00000
     65      -9.0161      2.00000
     66      -9.0149      2.00000
     67      -9.0139      2.00000
     68      -9.0139      2.00000
     69      -8.7074      2.00000
     70      -8.7073      2.00000
     71      -8.7067      2.00000
     72      -8.7065      2.00000
     73      -8.7060      2.00000
     74      -8.7059      2.00000
     75      -8.6590      2.00000
     76      -8.6588      2.00000
     77      -8.6584      2.00000
     78      -8.6583      2.00000
     79      -8.6580      2.00000
     80      -8.6571      2.00000
     81      -7.3318      2.00000
     82      -7.3316      2.00000
     83      -7.0517      2.00000
     84      -7.0502      2.00000
     85      -7.0500      2.00000
     86      -7.0495      2.00000
     87      -7.0484      2.00000
     88      -7.0483      2.00000
     89      -6.8866      2.00000
     90      -6.8861      2.00000
     91      -6.8860      2.00000
     92      -6.8859      2.00000
     93      -6.8857      2.00000
     94      -6.8856      2.00000
     95      -5.9905      2.00000
     96      -5.9898      2.00000
     97      -5.9895      2.00000
     98      -5.9891      2.00000
     99      -5.9890      2.00000
    100      -5.9889      2.00000
    101      -5.5621      2.00000
    102      -5.5600      2.00000
    103      -4.0072      2.00000
    104      -4.0070      2.00000
    105      -4.0066      2.00000
    106      -4.0064      2.00000
    107      -4.0052      2.00000
    108      -4.0050      2.00000
    109      -1.2045      0.00000
    110      -1.2042      0.00000
    111      -1.2033      0.00000
    112      -1.2031      0.00000
    113      -1.2027      0.00000
    114      -1.2025      0.00000
    115       0.4965      0.00000
    116       0.6596      0.00000
    117       0.6601      0.00000
    118       0.6606      0.00000
    119       0.6610      0.00000
    120       0.6611      0.00000
    121       0.6630      0.00000
    122       0.9438      0.00000
    123       1.1564      0.00000
    124       1.1949      0.00000
    125       1.6254      0.00000
    126       1.8831      0.00000
    127       1.9366      0.00000
    128       1.9588      0.00000
    129       2.0139      0.00000
    130       2.0192      0.00000
    131       2.0286      0.00000
    132       2.4009      0.00000
    133       2.4010      0.00000
    134       2.4023      0.00000
    135       2.4032      0.00000
    136       2.4038      0.00000
    137       2.4062      0.00000
    138       2.9319      0.00000
    139       3.0354      0.00000
    140       3.1669      0.00000


--------------------------------------------------------------------------------------------------------


 soft charge-density along one line, spin component           1
         0         1         2         3         4         5         6         7         8         9
 total charge-density along one line
 
 pseudopotential strength for first ion, spin component:           1
 12.690  21.354   0.000   0.000   0.000   0.000   0.000   0.000
 21.354  35.932   0.000   0.000   0.000   0.000   0.000   0.000
  0.000   0.000  -3.164  -0.000   0.000  -5.672  -0.000   0.000
  0.000   0.000  -0.000  -3.166  -0.000  -0.000  -5.673  -0.000
  0.000   0.000   0.000  -0.000  -3.164   0.000  -0.000  -5.672
  0.000   0.000  -5.672  -0.000   0.000 -10.143  -0.000   0.000
  0.000   0.000  -0.000  -5.673  -0.000  -0.000 -10.146  -0.000
  0.000   0.000   0.000  -0.000  -5.672   0.000  -0.000 -10.143
 total augmentation occupancy for first ion, spin component:           1
  7.880  -2.765  -0.000  -0.002  -0.000   0.000   0.001   0.000
 -2.765   1.007   0.000   0.001   0.000  -0.000  -0.000  -0.000
 -0.000   0.000   7.264  -0.008   0.000  -2.462   0.003  -0.000
 -0.002   0.001  -0.008   3.235  -0.000   0.003  -0.862   0.000
 -0.000   0.000   0.000  -0.000   7.263  -0.000   0.000  -2.462
  0.000  -0.000  -2.462   0.003  -0.000   0.849  -0.001   0.000
  0.001  -0.000   0.003  -0.862   0.000  -0.001   0.236  -0.000
  0.000  -0.000  -0.000   0.000  -2.462   0.000  -0.000   0.849


------------------------ aborting loop because EDIFF is reached ----------------------------------------


    FORLOC:  cpu time    0.0518: real time    0.0523
    FORNL :  cpu time    0.7326: real time    0.7415
    FORCOR:  cpu time    0.2845: real time    0.2865
    OFIELD:  cpu time    0.0012: real time    0.0012

 VOLUME and BASIS-vectors are now :
 -----------------------------------------------------------------------------
  energy-cutoff  :     1000.00
  volume of cell :     2631.08
      direct lattice vectors                 reciprocal lattice vectors
    12.325000000  0.000000000  0.000000000     0.081135903  0.046843835  0.000000000
    -6.162500000 10.673763102  0.000000000     0.000000000  0.093687670  0.000000000
     0.000000000  0.000000000 20.000000000     0.000000000  0.000000000  0.050000000

  length of vectors
    12.325000000 12.325000000 20.000000000     0.093687670  0.093687670  0.050000000


 FORCES acting on ions:
    Electron-Ion                     Ewald-Force                    Non-Local-Force
 -----------------------------------------------------------------------------------------------
   0.265E+01 0.230E+01 0.163E+02   -.265E+01 -.230E+01 -.163E+02   0.646E-02 -.902E-03 0.693E-02
   0.378E+01 0.186E+01 0.186E+02   -.379E+01 -.185E+01 -.186E+02   0.623E-02 -.398E-02 -.549E-02
   0.158E+01 0.427E+01 0.200E+02   -.158E+01 -.427E+01 -.200E+02   -.357E-03 0.145E-01 0.237E-02
   0.204E+01 0.295E+01 0.248E+02   -.205E+01 -.296E+01 -.248E+02   0.140E-01 0.181E-02 -.856E-02
   0.283E+01 0.678E+00 0.166E+02   -.283E+01 -.677E+00 -.166E+02   0.114E-02 -.680E-02 0.174E-02
   0.290E+01 -.592E+00 0.168E+02   -.290E+01 0.594E+00 -.168E+02   -.629E-02 0.268E-02 -.531E-02
   0.392E+01 0.144E+01 0.237E+02   -.392E+01 -.144E+01 -.237E+02   0.156E-01 -.209E-01 -.383E-02
   0.382E+01 -.136E+01 0.249E+02   -.383E+01 0.136E+01 -.248E+02   -.316E-02 -.782E-02 -.599E-02
   -.191E+01 0.388E+01 0.202E+02   0.192E+01 -.389E+01 -.202E+02   -.290E-02 -.103E-01 -.548E-02
   -.278E+01 0.234E+01 0.245E+02   0.279E+01 -.235E+01 -.245E+02   -.298E-01 0.177E-01 0.473E-02
   0.742E+00 -.753E+00 0.149E+02   -.738E+00 0.752E+00 -.149E+02   0.287E-02 -.264E-02 -.169E-02
   0.658E+00 -.554E+00 0.144E+02   -.656E+00 0.554E+00 -.144E+02   -.829E-02 0.390E-02 0.463E-02
   0.148E+01 -.319E+01 0.265E+02   -.148E+01 0.320E+01 -.265E+02   0.305E-01 -.105E-01 -.355E-05
   0.863E+00 -.431E+01 0.212E+02   -.871E+00 0.432E+01 -.212E+02   0.653E-02 0.419E-02 -.166E-01
   -.257E+01 0.157E+01 0.161E+02   0.258E+01 -.158E+01 -.161E+02   0.720E-02 -.351E-02 0.476E-02
   -.345E+01 0.103E+01 0.171E+02   0.345E+01 -.103E+01 -.171E+02   -.360E-02 0.669E-02 -.719E-02
   -.470E+00 -.184E+00 0.139E+02   0.475E+00 0.181E+00 -.139E+02   -.189E-02 0.978E-03 0.162E-02
   0.210E+00 0.161E+01 0.143E+02   -.208E+00 -.162E+01 -.143E+02   -.399E-02 0.236E-02 0.923E-02
   -.667E+00 -.411E+01 0.185E+02   0.664E+00 0.412E+01 -.185E+02   0.787E-02 -.341E-02 0.957E-03
   -.367E+00 -.240E+01 0.153E+02   0.363E+00 0.240E+01 -.153E+02   0.154E-02 -.230E-02 -.107E-02
   0.378E+01 -.167E+01 0.196E+02   -.378E+01 0.167E+01 -.196E+02   0.299E-03 -.389E-02 -.196E-01
   0.258E+01 -.212E+01 0.176E+02   -.258E+01 0.212E+01 -.176E+02   -.650E-02 0.517E-02 -.525E-02
   -.716E+00 0.133E+01 0.279E+02   0.714E+00 -.133E+01 -.279E+02   -.117E-01 0.119E-01 0.857E-02
   -.960E+00 -.210E+01 0.275E+02   0.960E+00 0.210E+01 -.275E+02   0.131E-01 -.169E-01 -.335E-02
   0.139E+01 -.535E+00 0.150E+02   -.138E+01 0.533E+00 -.150E+02   0.272E-02 -.223E-02 -.523E-02
   0.333E+00 0.121E+01 0.150E+02   -.331E+00 -.121E+01 -.150E+02   -.663E-02 0.429E-02 0.390E-02
   -.431E+01 0.587E+00 0.212E+02   0.432E+01 -.591E+00 -.212E+02   0.837E-02 0.955E-02 -.236E-02
   -.413E+01 -.164E+01 0.202E+02   0.414E+01 0.163E+01 -.202E+02   -.118E-01 0.101E-01 0.255E-02
   0.151E+01 -.302E+01 0.180E+02   -.151E+01 0.302E+01 -.180E+02   0.641E-02 0.142E-02 -.931E-02
   0.129E+00 -.130E+01 0.156E+02   -.132E+00 0.131E+01 -.156E+02   -.408E-02 0.240E-02 -.427E-02
   -.300E+01 -.311E+01 0.225E+02   0.300E+01 0.311E+01 -.225E+02   -.140E-01 -.938E-02 -.809E-02
   -.210E+01 -.390E+01 0.188E+02   0.210E+01 0.391E+01 -.188E+02   0.686E-03 -.346E-02 0.437E-02
   0.182E+00 0.739E+00 0.142E+02   -.183E+00 -.739E+00 -.143E+02   0.642E-02 -.524E-02 0.605E-02
   0.469E+00 0.714E+00 0.148E+02   -.473E+00 -.712E+00 -.148E+02   -.177E-02 0.421E-02 -.255E-02
   -.179E+01 0.300E+00 0.154E+02   0.180E+01 -.301E+00 -.154E+02   0.378E-02 -.205E-02 0.412E-02
   -.159E+01 -.687E+00 0.152E+02   0.159E+01 0.686E+00 -.152E+02   -.566E-02 0.313E-02 0.247E-02
   -.306E+01 -.160E+01 0.164E+02   0.307E+01 0.160E+01 -.164E+02   -.358E-02 0.132E-02 0.334E-02
   -.198E+01 -.158E+01 0.150E+02   0.198E+01 0.158E+01 -.150E+02   -.542E-02 0.136E-02 0.934E-02
   -.180E+01 -.230E+01 0.156E+02   0.180E+01 0.231E+01 -.156E+02   -.413E-02 -.488E-03 0.578E-02
   -.273E+00 -.606E+00 0.144E+02   0.274E+00 0.606E+00 -.144E+02   0.215E-02 0.134E-03 0.790E-02
   0.675E+00 0.169E+01 0.146E+02   -.676E+00 -.169E+01 -.146E+02   -.430E-02 0.277E-02 0.749E-02
   0.207E+01 0.321E+01 0.167E+02   -.207E+01 -.322E+01 -.167E+02   0.684E-03 0.353E-03 0.921E-02
   0.196E+00 0.283E+01 0.153E+02   -.190E+00 -.283E+01 -.153E+02   -.183E-02 0.249E-02 0.163E-02
   -.529E-01 0.432E+01 0.186E+02   0.566E-01 -.432E+01 -.186E+02   -.102E-01 0.395E-02 0.588E-02
   -.535E+00 0.102E+01 0.154E+02   0.537E+00 -.102E+01 -.154E+02   0.357E-02 -.269E-02 -.667E-03
   -.205E+01 0.252E+01 0.169E+02   0.205E+01 -.252E+01 -.169E+02   -.791E-02 0.140E-02 -.380E-02
   -.483E+00 -.121E+01 0.149E+02   0.482E+00 0.121E+01 -.149E+02   0.767E-02 -.185E-02 0.455E-02
   -.109E+01 0.405E+00 0.144E+02   0.109E+01 -.404E+00 -.144E+02   -.278E-02 0.305E-02 -.459E-02
   0.117E+00 -.755E+00 0.143E+02   -.119E+00 0.756E+00 -.143E+02   0.525E-02 -.357E-02 0.581E-02
   0.120E+01 0.853E+00 0.144E+02   -.120E+01 -.851E+00 -.144E+02   0.145E-02 0.129E-02 0.314E-02
   0.119E-01 0.112E-01 -.223E+03   -.153E-01 -.795E-02 0.223E+03   -.301E-02 0.197E-02 -.328E-02
   -.229E+03 0.156E+03 -.345E+03   0.279E+03 -.190E+03 0.349E+03   -.511E+02 0.348E+02 -.343E+01
   0.229E+03 -.156E+03 -.326E+03   -.279E+03 0.190E+03 0.323E+03   0.511E+02 -.348E+02 0.309E+01
 -----------------------------------------------------------------------------------------------
   -.568E-02 0.127E-01 0.342E+00   0.000E+00 0.568E-13 -.284E-12   0.620E-02 -.130E-01 -.341E+00
 
 
 POSITION                                       TOTAL-FORCE (eV/Angst)
 -----------------------------------------------------------------------------------
     11.98348      0.00342      0.01417         0.002996     -0.001499     -0.001072
     -0.34154      1.42665      0.01100        -0.001245     -0.000078     -0.003389
      2.12355      0.00315      0.01249        -0.001569      0.009998     -0.006325
      2.12326      1.42653      0.00641         0.012673      0.001030     -0.008180
     10.75099      2.13819      0.01213         0.000143     -0.005405     -0.000096
     -1.57382      3.56123      0.01110        -0.008677      0.004916     -0.001499
      0.89078      2.13854      0.00548         0.008811     -0.018541      0.002291
      0.89099      3.56147      0.00181        -0.012605     -0.002000      0.011578
      4.58864      0.00346      0.01135         0.004054     -0.016407     -0.003574
      4.58894      1.42623      0.00646        -0.022634      0.012667      0.013767
      9.51854      4.27281      0.01369         0.006691     -0.003216      0.000175
     -2.80632      5.69591      0.01434        -0.006379      0.003330      0.000766
      2.12300      4.27302      0.00000         0.024114     -0.004430      0.020206
      2.12335      5.69594      0.00581        -0.000960      0.009730     -0.002744
      7.05344      0.00333      0.01399         0.009148     -0.005157     -0.000413
      7.05353      1.42635      0.01368        -0.001453      0.004697     -0.003841
      8.28610      6.40752      0.01601         0.003181     -0.001531     -0.000791
     -4.03885      7.83070      0.01636        -0.002052      0.000832     -0.000105
      3.35586      6.40753      0.01007         0.005051      0.000644     -0.001350
      3.35599      7.83072      0.01320        -0.003380      0.000277     -0.000650
     -0.34146      4.27290      0.00723        -0.002198     -0.001187     -0.004585
     -0.34138      5.69591      0.00946        -0.009047      0.006338     -0.001147
      3.35624      2.13791      0.00222        -0.013071      0.011540      0.016085
      3.35573      3.56155      0.00139         0.013249     -0.015299      0.008522
     -1.57395      6.40758      0.01311         0.005652     -0.004010     -0.000625
     -1.57385      7.83068      0.01438        -0.004677      0.003670      0.000032
      5.82093      2.13784      0.01033         0.016741      0.004928     -0.002998
      5.82114      3.56097      0.01156        -0.005776      0.008156     -0.003731
      0.89092      6.40755      0.00907         0.004233      0.002293     -0.002304
      0.89106      7.83068      0.01235        -0.006935      0.003710      0.000322
      4.58871      4.27293      0.00850        -0.012224     -0.006213     -0.010721
      4.58852      5.69606      0.01149         0.001868     -0.000508     -0.003951
      9.51845      0.00337      0.01490         0.004595     -0.004587      0.000179
      9.51855      1.42644      0.01438        -0.005128      0.005563     -0.000349
      8.28593      2.13803      0.01453         0.006514     -0.003501      0.000566
      8.28613      3.56115      0.01464        -0.004146      0.002083     -0.000067
      7.05356      4.27269      0.01457         0.003075     -0.001068     -0.000636
      7.05362      5.69588      0.01553        -0.002317      0.001461     -0.000112
      5.82112      6.40755      0.01489        -0.002683      0.001724     -0.000061
      5.82102      7.83073      0.01579         0.002597      0.000421     -0.000287
      7.05363      8.54227      0.01631        -0.004579      0.001034      0.001065
     -5.27149      9.96549      0.01495        -0.000228     -0.002197     -0.002143
     -2.80638      8.54234      0.01558         0.003337     -0.001655     -0.001190
     -2.80627      9.96553      0.01362        -0.006282     -0.000343     -0.003869
     -0.34149      8.54239      0.01378         0.005810     -0.004722      0.000216
     -0.34138      9.96550      0.01354        -0.005623     -0.000139     -0.001299
      2.12343      8.54232      0.01336         0.005661     -0.001480      0.000748
      2.12354      9.96544      0.01469        -0.005385      0.003885     -0.001892
      4.58846      8.54235      0.01505         0.003607     -0.002783      0.000958
      4.58853      9.96550      0.01517        -0.003092      0.003367      0.000164
      3.04930      2.68154      5.94604        -0.006272      0.005175      0.033123
      4.02070      2.02068      6.01046        -0.526769      0.358018     -0.051073
      2.07767      3.34267      5.88658         0.533581     -0.363530      0.016307
 -----------------------------------------------------------------------------------
    total drift:                                0.000529     -0.000329      0.000517


--------------------------------------------------------------------------------------------------------



  FREE ENERGIE OF THE ION-ELECTRON SYSTEM (eV)
  ---------------------------------------------------
  free  energy   TOTEN  =      -484.76874584 eV

  energy  without entropy=     -484.76874584  energy(sigma->0) =     -484.76874584
 


--------------------------------------------------------------------------------------------------------


    POTLOK:  cpu time    0.2805: real time    0.2826


--------------------------------------------------------------------------------------------------------


     LOOP+:  cpu time  107.1247: real time  108.5261
    4ORBIT:  cpu time    0.0000: real time    0.0000

 total amount of memory used by VASP MPI-rank0   175916. kBytes
=======================================================================

   base      :      30000. kBytes
   nonl-proj :      46129. kBytes
   fftplans  :      35778. kBytes
   grid      :      52596. kBytes
   one-center:         43. kBytes
   wavefun   :      11370. kBytes
 
  
  
 General timing and accounting informations for this job:
 ========================================================
  
                  Total CPU time used (sec):      139.597
                            User time (sec):      129.239
                          System time (sec):       10.358
                         Elapsed time (sec):      142.675
  
                   Maximum memory used (kb):      515124.
                   Average memory used (kb):          N/A
  
                          Minor page faults:        50270
                          Major page faults:           78
                 Voluntary context switches:         3591
