 vasp.6.2.1 16May21 (build Nov 06 2021 14:46:37) complex                        
  
 executed on             LinuxIFC date 2025.03.03  16:52:23
 running on  112 total cores
 distrk:  each k-point on  112 cores,    1 groups
 distr:  one band on NCORE=   4 cores,   28 groups


--------------------------------------------------------------------------------------------------------


 INCAR:
   ALGO = Conjugate
   NCORE = 4
   ISMEAR = 0
   SIGMA = 0.01
   PREC = Accurate
   EDIFF = 1E-6
   ENCUT = 1000
   ISIF = 0
   LWAVE = .FALSE.
   LCHARGE = .FALSE.
   SYMPREC = 1E-6

 POTCAR:    PAW_PBE C_h 06Feb2004                 
 POTCAR:    PAW_PBE O_h 06Feb2004                 
 -----------------------------------------------------------------------------
|                                                                             |
|           W    W    AA    RRRRR   N    N  II  N    N   GGGG   !!!           |
|           W    W   A  A   R    R  NN   N  II  NN   N  G    G  !!!           |
|           W    W  A    A  R    R  N N  N  II  N N  N  G       !!!           |
|           W WW W  AAAAAA  RRRRR   N  N N  II  N  N N  G  GGG   !            |
|           WW  WW  A    A  R   R   N   NN  II  N   NN  G    G                |
|           W    W  A    A  R    R  N    N  II  N    N   GGGG   !!!           |
|                                                                             |
|     For optimal performance we recommend to set                             |
|       NCORE = 2 up to number-of-cores-per-socket                            |
|     NCORE specifies how many cores store one orbital (NPAR=cpu/NCORE).      |
|     This setting can greatly improve the performance of VASP for DFT.       |
|     The default, NCORE=1 might be grossly inefficient on modern             |
|     multi-core architectures or massively parallel machines. Do your        |
|     own testing! More info at https://www.vasp.at/wiki/index.php/NCORE      |
|     Unfortunately you need to use the default for GW and RPA                |
|     calculations (for HF NCORE is supported but not extensively tested      |
|     yet).                                                                   |
|                                                                             |
 -----------------------------------------------------------------------------

 POTCAR:    PAW_PBE C_h 06Feb2004                 
   VRHFIN =C: s2p2                                                                                  
   LEXCH  = PE                                                                                      
   EATOM  =   147.1560 eV,   10.8157 Ry                                                             
                                                                                                    
   TITEL  = PAW_PBE C_h 06Feb2004                                                                   
   LULTRA =        F    use ultrasoft PP ?                                                          
   IUNSCR =        1    unscreen: 0-lin 1-nonlin 2-no                                               
   RPACOR =    0.800    partial core radius                                                         
   POMASS =   12.011; ZVAL   =    4.000    mass and valenz                                          
   RCORE  =    1.100    outmost cutoff radius                                                       
   RWIGS  =    1.630; RWIGS  =    0.863    wigner-seitz radius (au A)                               
   ENMAX  =  700.000; ENMIN  =  500.000 eV                                                          
   ICORE  =        2    local potential                                                             
   LCOR   =        T    correct aug charges                                                         
   LPAW   =        T    paw PP                                                                      
   EAUG   =  946.768                                                                                
   DEXC   =    0.000                                                                                
   RMAX   =    1.128    core radius for proj-oper                                                   
   RAUG   =    1.300    factor for augmentation sphere                                              
   RDEP   =    1.162    radius for radial grids                                                     
   RDEPT  =    1.088    core radius for aug-charge                                                  
                                                                                                    
   Atomic configuration                                                                             
    4 entries                                                                                       
     n  l   j            E        occ.                                                              
     1  0  0.50      -273.3789   2.0000                                                             
     2  0  0.50       -13.7508   2.0000                                                             
     2  1  0.50        -5.2854   2.0000                                                             
     3  2  1.50        -5.4423   0.0000                                                             
   Description                                                                                      
     l       E           TYP  RCUT    TYP  RCUT                                                     
     0    -13.7508458     23  1.100                                                                 
     0     -8.2022199     23  1.100                                                                 
     1     -5.2854383     23  1.100                                                                 
     1      1.1560700     23  1.100                                                                 
     2     -5.4423304      7  1.100                                                                 
  local pseudopotential read in
  partial core-charges read in
  partial kinetic energy density read in
  atomic valenz-charges read in
  non local Contribution for L=           0  read in
    real space projection operators read in
  non local Contribution for L=           0  read in
    real space projection operators read in
  non local Contribution for L=           1  read in
    real space projection operators read in
  non local Contribution for L=           1  read in
    real space projection operators read in
    PAW grid and wavefunctions read in
 
   number of l-projection  operators is LMAX  =           4
   number of lm-projection operators is LMMAX =           8
 
 POTCAR:    PAW_PBE O_h 06Feb2004                 
   VRHFIN =O: s2p4                                                                                  
   LEXCH  = PE                                                                                      
   EATOM  =   432.3788 eV,   31.7789 Ry                                                             
                                                                                                    
   TITEL  = PAW_PBE O_h 06Feb2004                                                                   
   LULTRA =        F    use ultrasoft PP ?                                                          
   IUNSCR =        1    unscreen: 0-lin 1-nonlin 2-no                                               
   RPACOR =    0.800    partial core radius                                                         
   POMASS =   16.000; ZVAL   =    6.000    mass and valenz                                          
   RCORE  =    1.100    outmost cutoff radius                                                       
   RWIGS  =    1.400; RWIGS  =    0.741    wigner-seitz radius (au A)                               
   ENMAX  =  700.000; ENMIN  =  500.000 eV                                                          
   ICORE  =        2    local potential                                                             
   LCOR   =        T    correct aug charges                                                         
   LPAW   =        T    paw PP                                                                      
   EAUG   =  888.804                                                                                
   DEXC   =    0.000                                                                                
   RMAX   =    1.128    core radius for proj-oper                                                   
   RAUG   =    1.300    factor for augmentation sphere                                              
   RDEP   =    1.125    radius for radial grids                                                     
   RDEPT  =    1.088    core radius for aug-charge                                                  
                                                                                                    
   Atomic configuration                                                                             
    4 entries                                                                                       
     n  l   j            E        occ.                                                              
     1  0  0.50      -514.6923   2.0000                                                             
     2  0  0.50       -23.9615   2.0000                                                             
     2  1  0.50        -9.0305   4.0000                                                             
     3  2  1.50        -9.5241   0.0000                                                             
   Description                                                                                      
     l       E           TYP  RCUT    TYP  RCUT                                                     
     0    -23.9615319     23  1.100                                                                 
     0    -25.3221145     23  1.100                                                                 
     1     -9.0304911     23  1.100                                                                 
     1     -5.4802209     23  1.100                                                                 
     2     -9.5240782      7  1.100                                                                 
  local pseudopotential read in
  partial core-charges read in
  partial kinetic energy density read in
  atomic valenz-charges read in
  non local Contribution for L=           0  read in
    real space projection operators read in
  non local Contribution for L=           0  read in
    real space projection operators read in
  non local Contribution for L=           1  read in
    real space projection operators read in
  non local Contribution for L=           1  read in
    real space projection operators read in
    PAW grid and wavefunctions read in
 
   number of l-projection  operators is LMAX  =           4
   number of lm-projection operators is LMMAX =           8
 
 -----------------------------------------------------------------------------
|                                                                             |
|               ----> ADVICE to this user running VASP <----                  |
|                                                                             |
|     You have a (more or less) 'large supercell' and for larger cells it     |
|     might be more efficient to use real-space projection operators.         |
|     Therefore, try LREAL= Auto in the INCAR file.                           |
|     Mind: For very accurate calculation, you might also keep the            |
|     reciprocal projection scheme (i.e. LREAL=.FALSE.).                      |
|                                                                             |
 -----------------------------------------------------------------------------

  PAW_PBE C_h 06Feb2004                 :
 energy of atom  1       EATOM= -147.1560
 kinetic energy error for atom=    0.0031 (will be added to EATOM!!)
  PAW_PBE O_h 06Feb2004                 :
 energy of atom  2       EATOM= -432.3788
 kinetic energy error for atom=    0.0171 (will be added to EATOM!!)
 
 
 POSCAR:  C  O
  positions in cartesian coordinates
  No initial velocities read in
 exchange correlation table for  LEXCH =        8
   RHO(1)=    0.500       N(1)  =     2000
   RHO(2)=  100.500       N(2)  =     4000
 


--------------------------------------------------------------------------------------------------------


 ion  position               nearest neighbor table
   1  0.972  0.000  0.001-  50 1.42   2 1.42  42 1.42
   2  0.039  0.134  0.001-   5 1.42   7 1.42   1 1.42
   3  0.172  0.000  0.001-  42 1.42  44 1.42   4 1.42
   4  0.239  0.134  0.000-   7 1.42   3 1.42  23 1.42
   5  0.972  0.200  0.001-   6 1.42   2 1.42  34 1.42
   6  0.039  0.334  0.001-   5 1.42  21 1.42  11 1.42
   7  0.172  0.200  0.000-   8 1.42   2 1.42   4 1.42
   8  0.239  0.334  0.000-  13 1.42   7 1.42  21 1.42
   9  0.372  0.000  0.001-  10 1.42  44 1.42  46 1.42
  10  0.439  0.134  0.000-  27 1.42   9 1.42  23 1.42
  11  0.972  0.400  0.001-  12 1.42  36 1.42   6 1.42
  12  0.039  0.534  0.001-  25 1.42  11 1.42  17 1.42
  13  0.372  0.400  0.000-   8 1.42  14 1.42  24 1.42
  14  0.439  0.534  0.000-  13 1.42  29 1.42  19 1.42
  15  0.572  0.000  0.001-  46 1.42  16 1.42  48 1.42
  16  0.639  0.134  0.001-  15 1.42  35 1.42  27 1.42
  17  0.972  0.600  0.001-  38 1.42  18 1.42  12 1.42
  18  0.039  0.734  0.001-  43 1.42  41 1.42  17 1.42
  19  0.572  0.600  0.001-  14 1.42  20 1.42  32 1.42
  20  0.639  0.734  0.001-  49 1.42  19 1.42  47 1.42
  21  0.172  0.400  0.000-  22 1.42   8 1.42   6 1.42
  22  0.239  0.534  0.000-  21 1.42  29 1.42  25 1.42
  23  0.372  0.200  0.000-  10 1.42   4 1.42  24 1.42
  24  0.439  0.334  0.000-  13 1.42  31 1.42  23 1.42
  25  0.172  0.600  0.001-  26 1.42  12 1.42  22 1.42
  26  0.239  0.734  0.001-  25 1.42  45 1.42  43 1.42
  27  0.572  0.200  0.001-  10 1.42  28 1.42  16 1.42
  28  0.639  0.334  0.001-  27 1.42  37 1.42  31 1.42
  29  0.372  0.600  0.000-  22 1.42  14 1.42  30 1.42
  30  0.439  0.734  0.001-  47 1.42  29 1.42  45 1.42
  31  0.572  0.400  0.000-  32 1.42  28 1.42  24 1.42
  32  0.639  0.534  0.001-  31 1.42  39 1.42  19 1.42
  33  0.772  0.000  0.001-  34 1.42  48 1.42  50 1.42
  34  0.839  0.134  0.001-  33 1.42   5 1.42  35 1.42
  35  0.772  0.200  0.001-  36 1.42  16 1.42  34 1.42
  36  0.839  0.334  0.001-  35 1.42  11 1.42  37 1.42
  37  0.772  0.400  0.001-  28 1.42  38 1.42  36 1.42
  38  0.839  0.534  0.001-  17 1.42  37 1.42  39 1.42
  39  0.772  0.600  0.001-  40 1.42  38 1.42  32 1.42
  40  0.839  0.734  0.001-  39 1.42  49 1.42  41 1.42
  41  0.972  0.800  0.001-  18 1.42  42 1.42  40 1.42
  42  0.039  0.934  0.001-   3 1.42  41 1.42   1 1.42
  43  0.172  0.800  0.001-  18 1.42  44 1.42  26 1.42
  44  0.239  0.934  0.001-   9 1.42  43 1.42   3 1.42
  45  0.372  0.800  0.001-  26 1.42  46 1.42  30 1.42
  46  0.439  0.934  0.001-  15 1.42  45 1.42   9 1.42
  47  0.572  0.800  0.001-  30 1.42  48 1.42  20 1.42
  48  0.639  0.934  0.001-  47 1.42  33 1.42  15 1.42
  49  0.772  0.800  0.001-  50 1.42  20 1.42  40 1.42
  50  0.839  0.934  0.001-  49 1.42   1 1.42  33 1.42
  51  0.373  0.251  0.334-  52 1.18  53 1.18
  52  0.421  0.189  0.337-  51 1.18
  53  0.325  0.313  0.331-  51 1.18
 
  LATTYP: Found a hexagonal cell.
 ALAT       =    12.3250000000
 C/A-ratio  =     1.6227180527
  
  Lattice vectors:
  
 A1 = (  12.3250000000,   0.0000000000,   0.0000000000)
 A2 = (  -6.1625000000,  10.6737631016,   0.0000000000)
 A3 = (   0.0000000000,   0.0000000000,  20.0000000000)


Analysis of symmetry for initial positions (statically):
=====================================================================
 Subroutine PRICEL returns:
 Original cell was already a primitive cell.
 

 Routine SETGRP: Setting up the symmetry group for a 
 hexagonal supercell.


 Subroutine GETGRP returns: Found  1 space group operations
 (whereof  1 operations were pure point group operations)
 out of a pool of 24 trial point group operations.


The static configuration has the point symmetry C_1 .


Analysis of symmetry for dynamics (positions and initial velocities):
=====================================================================
 Subroutine PRICEL returns:
 Original cell was already a primitive cell.
 

 Routine SETGRP: Setting up the symmetry group for a 
 hexagonal supercell.


 Subroutine GETGRP returns: Found  1 space group operations
 (whereof  1 operations were pure point group operations)
 out of a pool of 24 trial point group operations.


The dynamic configuration has the point symmetry C_1 .


 Subroutine INISYM returns: Found  1 space group operations
 (whereof  1 operations are pure point group operations),
 and found     1 'primitive' translations


----------------------------------------------------------------------------------------

                                     Primitive cell                                     

  volume of cell :    2631.0826

  direct lattice vectors                    reciprocal lattice vectors
    12.325000000  0.000000000  0.000000000     0.081135903  0.046843835  0.000000000
    -6.162500000 10.673763102  0.000000000     0.000000000  0.093687670  0.000000000
     0.000000000  0.000000000 20.000000000     0.000000000  0.000000000  0.050000000

  length of vectors
    12.325000000 12.325000000 20.000000000     0.093687670  0.093687670  0.050000000

  position of ions in fractional coordinates (direct lattice)
     0.972450841  0.000320818  0.000708389
     0.039118382  0.133659505  0.000550216
     0.172443627  0.000295449  0.000624535
     0.239096278  0.133647917  0.000320585
     0.972452058  0.200322012  0.000606523
     0.039128360  0.333643771  0.000555187
     0.172451764  0.200354552  0.000273959
     0.239124359  0.333665720  0.000090325
     0.372465565  0.000324403  0.000567391
     0.439137473  0.133619939  0.000322923
     0.972449824  0.400309362  0.000684513
     0.039124981  0.533636789  0.000716763
     0.372416176  0.400329481  0.000000000
     0.439099602  0.533638981  0.000290518
     0.572443676  0.000312125  0.000699475
     0.639110207  0.133631751  0.000684093
     0.972452703  0.600305653  0.000800361
     0.039124495  0.733640359  0.000818141
     0.572433471  0.600306242  0.000503618
     0.639111888  0.733641879  0.000659881
     0.172454630  0.400318228  0.000361306
     0.239120185  0.533636548  0.000473136
     0.372459750  0.200295993  0.000111246
     0.439107096  0.333673419  0.000069702
     0.172452155  0.600311506  0.000655425
     0.239123371  0.733638574  0.000718912
     0.572431082  0.200289171  0.000516621
     0.639112773  0.333618630  0.000577970
     0.372439808  0.600308022  0.000453556
     0.439116090  0.733637858  0.000617737
     0.572469358  0.400320504  0.000424897
     0.639119408  0.533650873  0.000574513
     0.772445723  0.000315427  0.000745201
     0.839116277  0.133640203  0.000719132
     0.772440513  0.200307432  0.000726291
     0.839120241  0.333635728  0.000731834
     0.772446320  0.400298367  0.000728722
     0.839118980  0.533633964  0.000776376
     0.772456143  0.600308173  0.000744639
     0.839115033  0.733643180  0.000789390
     0.972455313  0.800305582  0.000815291
     0.039114714  0.933643289  0.000747563
     0.172457971  0.800312211  0.000779216
     0.239134551  0.933647193  0.000681063
     0.372451396  0.800316674  0.000689249
     0.439124489  0.933644769  0.000676788
     0.572441101  0.800310054  0.000668168
     0.639115067  0.933638985  0.000734556
     0.772445098  0.800313187  0.000752577
     0.839116614  0.933644338  0.000758538
     0.373021009  0.251226878  0.333709963
     0.420879805  0.189313152  0.336931056
     0.325156981  0.313167186  0.330737220

  ion indices of the primitive-cell ions
   primitive index   ion index
                 1           1
                 2           2
                 3           3
                 4           4
                 5           5
                 6           6
                 7           7
                 8           8
                 9           9
                10          10
                11          11
                12          12
                13          13
                14          14
                15          15
                16          16
                17          17
                18          18
                19          19
                20          20
                21          21
                22          22
                23          23
                24          24
                25          25
                26          26
                27          27
                28          28
                29          29
                30          30
                31          31
                32          32
                33          33
                34          34
                35          35
                36          36
                37          37
                38          38
                39          39
                40          40
                41          41
                42          42
                43          43
                44          44
                45          45
                46          46
                47          47
                48          48
                49          49
                50          50
                51          51
                52          52
                53          53

----------------------------------------------------------------------------------------

 
 
 KPOINTS: auto                                    

Automatic generation of k-mesh.
 Grid dimensions read from file:
 generate k-points for:    1    1    1

 Generating k-lattice:

  Cartesian coordinates                     Fractional coordinates (reciprocal lattice)
     0.081135903  0.046843835  0.000000000     1.000000000 -0.000000000  0.000000000
     0.000000000  0.093687670  0.000000000     0.000000000  1.000000000  0.000000000
     0.000000000  0.000000000  0.050000000     0.000000000  0.000000000  1.000000000

  Length of vectors
     0.093687670  0.093687670  0.050000000

  Shift w.r.t. Gamma in fractional coordinates (k-lattice)
     0.000000000  0.000000000  0.000000000

 
 Subroutine IBZKPT returns following result:
 ===========================================
 
 Found      1 irreducible k-points:
 
 Following reciprocal coordinates:
            Coordinates               Weight
  0.000000  0.000000  0.000000      1.000000
 
 Following cartesian coordinates:
            Coordinates               Weight
  0.000000  0.000000  0.000000      1.000000
 


--------------------------------------------------------------------------------------------------------




 Dimension of arrays:
   k-points           NKPTS =      1   k-points in BZ     NKDIM =      1   number of bands    NBANDS=    140
   number of dos      NEDOS =    301   number of ions     NIONS =     53
   non local maximal  LDIM  =      4   non local SUM 2l+1 LMDIM =      8
   total plane-waves  NPLWV = ******
   max r-space proj   IRMAX =      1   max aug-charges    IRDMAX=   9736
   dimension x,y,z NGX =   128 NGY =  128 NGZ =  210
   dimension x,y,z NGXF=   256 NGYF=  256 NGZF=  420
   support grid    NGXF=   256 NGYF=  256 NGZF=  420
   ions per type =              51   2
   NGX,Y,Z   is equivalent  to a cutoff of  17.27, 17.27, 17.46 a.u.
   NGXF,Y,Z  is equivalent  to a cutoff of  34.53, 34.53, 34.91 a.u.

 SYSTEM =  unknown system                          
 POSCAR =   C  O                                   

 Startparameter for this run:
   NWRITE =      2    write-flag & timer
   PREC   = accura    normal or accurate (medium, high low for compatibility)
   ISTART =      0    job   : 0-new  1-cont  2-samecut
   ICHARG =      2    charge: 1-file 2-atom 10-const
   ISPIN  =      1    spin polarized calculation?
   LNONCOLLINEAR =      F non collinear calculations
   LSORBIT =      F    spin-orbit coupling
   INIWAV =      1    electr: 0-lowe 1-rand  2-diag
   LASPH  =      F    aspherical Exc in radial PAW
 Electronic Relaxation 1
   ENCUT  = 1000.0 eV  73.50 Ry    8.57 a.u.  31.78 31.78 51.57*2*pi/ulx,y,z
   ENINI  = 1000.0     initial cutoff
   ENAUG  =  946.8 eV  augmentation charge cutoff
   NELM   =     60;   NELMIN=  2; NELMDL= -5     # of ELM steps 
   EDIFF  = 0.1E-05   stopping-criterion for ELM
   LREAL  =      F    real-space projection
   NLSPLINE    = F    spline interpolate recip. space projectors
   LCOMPAT=      F    compatible to vasp.4.4
   GGA_COMPAT  = T    GGA compatible to vasp.4.4-vasp.4.6
   LMAXPAW     = -100 max onsite density
   LMAXMIX     =    2 max onsite mixed and CHGCAR
   VOSKOWN=      0    Vosko Wilk Nusair interpolation
   ROPT   =    0.00000   0.00000
 Ionic relaxation
   EDIFFG = 0.1E-04   stopping-criterion for IOM
   NSW    =      0    number of steps for IOM
   NBLOCK =      1;   KBLOCK =      1    inner block; outer block 
   IBRION =     -1    ionic relax: 0-MD 1-quasi-New 2-CG
   NFREE  =      0    steps in history (QN), initial steepest desc. (CG)
   ISIF   =      0    stress and relaxation
   IWAVPR =     10    prediction:  0-non 1-charg 2-wave 3-comb
   ISYM   =      2    0-nonsym 1-usesym 2-fastsym
   LCORR  =      T    Harris-Foulkes like correction to forces

   POTIM  = 0.5000    time-step for ionic-motion
   TEIN   =    0.0    initial temperature
   TEBEG  =    0.0;   TEEND  =   0.0 temperature during run
   SMASS  =  -3.00    Nose mass-parameter (am)
   estimated Nose-frequenzy (Omega)   =  0.10E-29 period in steps = 0.13E+47 mass=  -0.347E-26a.u.
   SCALEE = 1.0000    scale energy and forces
   NPACO  =    256;   APACO  = 16.0  distance and # of slots for P.C.
   PSTRESS=    0.0 pullay stress

  Mass of Ions in am
   POMASS =  12.01 16.00
  Ionic Valenz
   ZVAL   =   4.00  6.00
  Atomic Wigner-Seitz radii
   RWIGS  =  -1.00 -1.00
  virtual crystal weights 
   VCA    =   1.00  1.00
   NELECT =     216.0000    total number of electrons
   NUPDOWN=      -1.0000    fix difference up-down

 DOS related values:
   EMIN   =  10.00;   EMAX   =-10.00  energy-range for DOS
   EFERMI =   0.00
   ISMEAR =     0;   SIGMA  =   0.01  broadening in eV -4-tet -1-fermi 0-gaus

 Electronic relaxation 2 (details)
   IALGO  =     58    algorithm
   LDIAG  =      T    sub-space diagonalisation (order eigenvalues)
   LSUBROT=      F    optimize rotation matrix (better conditioning)
   TURBO    =      0    0=normal 1=particle mesh
   IRESTART =      0    0=no restart 2=restart with 2 vectors
   NREBOOT  =      0    no. of reboots
   NMIN     =      0    reboot dimension
   EREF     =   0.00    reference energy to select bands
   IMIX   =      4    mixing-type and parameters
     AMIX     =   0.40;   BMIX     =  1.00
     AMIX_MAG =   1.60;   BMIX_MAG =  1.00
     AMIN     =   0.10
     WC   =   100.;   INIMIX=   1;  MIXPRE=   1;  MAXMIX= -45

 Intra band minimization:
   WEIMIN = 0.0000     energy-eigenvalue tresh-hold
   EBREAK =  0.18E-08  absolut break condition
   DEPER  =   0.30     relativ break condition  

   TIME   =   0.40     timestep for ELM

  volume/ion in A,a.u.               =      49.64       335.01
  Fermi-wavevector in a.u.,A,eV,Ry     =   0.711510  1.344560  6.887909  0.506247
  Thomas-Fermi vector in A             =   1.798641
 
 Write flags
   LWAVE        =      F    write WAVECAR
   LDOWNSAMPLE  =      F    k-point downsampling of WAVECAR
   LCHARG       =      T    write CHGCAR
   LVTOT        =      F    write LOCPOT, total local potential
   LVHAR        =      F    write LOCPOT, Hartree potential only
   LELF         =      F    write electronic localiz. function (ELF)
   LORBIT       =      0    0 simple, 1 ext, 2 COOP (PROOUT), +10 PAW based schemes


 Dipole corrections
   LMONO  =      F    monopole corrections only (constant potential shift)
   LDIPOL =      F    correct potential (dipole corrections)
   IDIPOL =      0    1-x, 2-y, 3-z, 4-all directions 
   EPSILON=  1.0000000 bulk dielectric constant

 Exchange correlation treatment:
   GGA     =    --    GGA type
   LEXCH   =     8    internal setting for exchange type
   VOSKOWN=      0    Vosko Wilk Nusair interpolation
   LHFCALC =     F    Hartree Fock is set to
   LHFONE  =     F    Hartree Fock one center treatment
   AEXX    =    0.0000 exact exchange contribution

 Linear response parameters
   LEPSILON=     F    determine dielectric tensor
   LRPA    =     F    only Hartree local field effects (RPA)
   LNABLA  =     F    use nabla operator in PAW spheres
   LVEL    =     F    velocity operator in full k-point grid
   LINTERFAST=   F  fast interpolation
   KINTER  =     0    interpolate to denser k-point grid
   CSHIFT  =0.1000    complex shift for real part using Kramers Kronig
   OMEGAMAX=  -1.0    maximum frequency
   DEG_THRESHOLD= 0.2000000E-02 threshold for treating states as degnerate
   RTIME   =   -0.100 relaxation time in fs
  (WPLASMAI=    0.000 imaginary part of plasma frequency in eV, 0.658/RTIME)
   DFIELD  = 0.0000000 0.0000000 0.0000000 field for delta impulse in time
 
 Orbital magnetization related:
   ORBITALMAG=     F  switch on orbital magnetization
   LCHIMAG   =     F  perturbation theory with respect to B field
   DQ        =  0.001000  dq finite difference perturbation B field
   LLRAUG    =     F  two centre corrections for induced B field



--------------------------------------------------------------------------------------------------------


 Static calculation
 charge density and potential will be updated during run
 non-spin polarized calculation
 Conjugate gradient for all bands (Freysoldt, et al. PRB 79, 241103 (2009))
 preconditioned conjugated gradient                                        
 perform sub-space diagonalisation
    before iterative eigenvector-optimisation
 modified Broyden-mixing scheme, WC =      100.0
 initial mixing is a Kerker type mixing with AMIX =  0.4000 and BMIX =      1.0000
 Hartree-type preconditioning will be used
 using additional bands           32
 reciprocal scheme for non local part
 use partial core corrections
 no Harris-corrections to forces 
 use gradient corrections 
 use of overlap-Matrix (Vanderbilt PP)
 Gauss-broadening in eV      SIGMA  =   0.01


--------------------------------------------------------------------------------------------------------


  energy-cutoff  :     1000.00
  volume of cell :     2631.08
      direct lattice vectors                 reciprocal lattice vectors
    12.325000000  0.000000000  0.000000000     0.081135903  0.046843835  0.000000000
    -6.162500000 10.673763102  0.000000000     0.000000000  0.093687670  0.000000000
     0.000000000  0.000000000 20.000000000     0.000000000  0.000000000  0.050000000

  length of vectors
    12.325000000 12.325000000 20.000000000     0.093687670  0.093687670  0.050000000


 
 k-points in units of 2pi/SCALE and weight: auto                                    
   0.00000000  0.00000000  0.00000000       1.000
 
 k-points in reciprocal lattice and weights: auto                                    
   0.00000000  0.00000000  0.00000000       1.000
 
 position of ions in fractional coordinates (direct lattice) 
   0.97245084  0.00032082  0.00070839
   0.03911838  0.13365950  0.00055022
   0.17244363  0.00029545  0.00062454
   0.23909628  0.13364792  0.00032058
   0.97245206  0.20032201  0.00060652
   0.03912836  0.33364377  0.00055519
   0.17245176  0.20035455  0.00027396
   0.23912436  0.33366572  0.00009033
   0.37246557  0.00032440  0.00056739
   0.43913747  0.13361994  0.00032292
   0.97244982  0.40030936  0.00068451
   0.03912498  0.53363679  0.00071676
   0.37241618  0.40032948  0.00000000
   0.43909960  0.53363898  0.00029052
   0.57244368  0.00031213  0.00069947
   0.63911021  0.13363175  0.00068409
   0.97245270  0.60030565  0.00080036
   0.03912449  0.73364036  0.00081814
   0.57243347  0.60030624  0.00050362
   0.63911189  0.73364188  0.00065988
   0.17245463  0.40031823  0.00036131
   0.23912018  0.53363655  0.00047314
   0.37245975  0.20029599  0.00011125
   0.43910710  0.33367342  0.00006970
   0.17245216  0.60031151  0.00065542
   0.23912337  0.73363857  0.00071891
   0.57243108  0.20028917  0.00051662
   0.63911277  0.33361863  0.00057797
   0.37243981  0.60030802  0.00045356
   0.43911609  0.73363786  0.00061774
   0.57246936  0.40032050  0.00042490
   0.63911941  0.53365087  0.00057451
   0.77244572  0.00031543  0.00074520
   0.83911628  0.13364020  0.00071913
   0.77244051  0.20030743  0.00072629
   0.83912024  0.33363573  0.00073183
   0.77244632  0.40029837  0.00072872
   0.83911898  0.53363396  0.00077638
   0.77245614  0.60030817  0.00074464
   0.83911503  0.73364318  0.00078939
   0.97245531  0.80030558  0.00081529
   0.03911471  0.93364329  0.00074756
   0.17245797  0.80031221  0.00077922
   0.23913455  0.93364719  0.00068106
   0.37245140  0.80031667  0.00068925
   0.43912449  0.93364477  0.00067679
   0.57244110  0.80031005  0.00066817
   0.63911507  0.93363899  0.00073456
   0.77244510  0.80031319  0.00075258
   0.83911661  0.93364434  0.00075854
   0.37302101  0.25122688  0.33370996
   0.42087980  0.18931315  0.33693106
   0.32515698  0.31316719  0.33073722
 
 position of ions in cartesian coordinates  (Angst):
  11.98347958  0.00342433  0.01416777
  -0.34154264  1.42664989  0.01100432
   2.12354700  0.00315355  0.01249070
   2.12325634  1.42652621  0.00641170
  10.75098721  2.13818970  0.01213047
  -1.57382270  3.56123457  0.01110375
   0.89078307  2.13853702  0.00547917
   0.89099273  3.56146885  0.00180651
   4.58863896  0.00346260  0.01134782
   4.58893648  1.42622757  0.00645846
   9.51853763  4.27280730  0.01369027
  -2.80632132  5.69591267  0.01433526
   2.12299894  4.27302204  0.00000000
   2.12335237  5.69593607  0.00581036
   7.05344483  0.00333155  0.01398950
   7.05352764  1.42635365  0.01368187
   8.28609598  6.40752033  0.01600723
  -4.03884931  7.83070339  0.01636283
   3.35585531  6.40752662  0.01007237
   3.35598594  7.83071962  0.01319763
  -0.34145776  4.27290193  0.00722612
  -0.34137895  5.69591010  0.00946273
   3.35624236  2.13791198  0.00222492
   3.35573251  3.56155103  0.00139405
  -1.57394684  6.40758280  0.01310850
  -1.57385216  7.83068434  0.01437823
   5.82093107  2.13783916  0.01033241
   5.82114012  3.56096622  0.01155939
   0.89092245  6.40754561  0.00907111
   0.89106251  7.83067670  0.01235474
   4.58870974  4.27292622  0.00849795
   4.58852320  5.69606300  0.01149026
   9.51844972  0.00336679  0.01490402
   9.51855036  1.42644387  0.01438264
   8.28593477  2.13803408  0.01452582
   8.28612680  3.56114872  0.01463668
   7.05356221  4.27268994  0.01457444
   7.05362213  5.69588251  0.01552751
   5.82112285  6.40754723  0.01489279
   5.82101669  7.83073350  0.01578780
   7.05362858  8.54227219  0.01630582
  -5.27148792  9.96548729  0.01495127
  -2.80637951  8.54234295  0.01558431
  -2.80626749  9.96552896  0.01362126
  -0.34148805  8.54239058  0.01378498
  -0.34137657  9.96550309  0.01353576
   2.12342586  8.54231992  0.01336337
   2.12354296  9.96544135  0.01469111
   4.58845581  8.54235337  0.01505154
   4.58852904  9.96549848  0.01517076
   3.04929830  2.68153618  6.67419927
   4.02070129  2.02068374  6.73862113
   2.07766701  3.34267235  6.61474440
 


--------------------------------------------------------------------------------------------------------


 k-point   1 :   0.0000 0.0000 0.0000  plane waves:  189031

 maximum and minimum number of plane-waves per node :     47262    47254

 maximum number of plane-waves:    189031
 maximum index in each direction: 
   IXMAX=   31   IYMAX=   31   IZMAX=   51
   IXMIN=  -31   IYMIN=  -31   IZMIN=  -51


 parallel 3D FFT for wavefunctions:
    minimum data exchange during FFTs selected (reduces bandwidth)
 parallel 3D FFT for charge:
    minimum data exchange during FFTs selected (reduces bandwidth)


 total amount of memory used by VASP MPI-rank0   175916. kBytes
=======================================================================

   base      :      30000. kBytes
   nonl-proj :      46129. kBytes
   fftplans  :      35778. kBytes
   grid      :      52596. kBytes
   one-center:         43. kBytes
   wavefun   :      11370. kBytes
 
     INWAV:  cpu time    0.0000: real time    0.0000
 Broyden mixing: mesh for mixing (old mesh)
   NGX = 63   NGY = 63   NGZ =103
  (NGX  =256   NGY  =256   NGZ  =420)
  gives a total of 408807 points

 initial charge density was supplied:
 charge density of overlapping atoms calculated
 number of electron     216.0000000 magnetization 
 keeping initial charge density in first step


--------------------------------------------------------------------------------------------------------


 Maximum index for augmentation-charges          459 (set IRDMAX)


--------------------------------------------------------------------------------------------------------


 First call to EWALD:  gamma=   0.128
 Maximum number of real-space cells 3x 3x 2
 Maximum number of reciprocal cells 3x 3x 4

    FEWALD:  cpu time    0.0024: real time    0.0024


--------------------------------------- Iteration      1(   1)  ---------------------------------------


    POTLOK:  cpu time    0.3109: real time    0.3136
    SETDIJ:  cpu time    0.0047: real time    0.0048
    TRIAL :  cpu time    4.1824: real time    4.2273
    CORREC:  cpu time    0.0006: real time    0.0006
    --------------------------------------------
      LOOP:  cpu time    4.5038: real time    4.5540

 eigenvalue-minimisations  :   280
 total energy-change (2. order) : 0.2658682E+04  (-0.1114319E+05)
 number of electron     216.0000000 magnetization 
 augmentation part      216.0000000 magnetization 

 Free energy of the ion-electron system (eV)
  ---------------------------------------------------
  alpha Z        PSCENC =        59.93625244
  Ewald energy   TEWEN  =     30433.92553120
  -Hartree energ DENC   =    -36609.37782081
  -exchange      EXHF   =         0.00000000
  -V(xc)+E(xc)   XCENC  =       420.79842279
  PAW double counting   =      6525.96553977    -6260.36035765
  entropy T*S    EENTRO =        -0.00000000
  eigenvalues    EBANDS =      -281.72941908
  atomic energy  EATOM  =      8369.52358910
  ---------------------------------------------------
  free energy    TOTEN  =      2658.68173777 eV

  energy without entropy =     2658.68173777  energy(sigma->0) =     2658.68173777


--------------------------------------------------------------------------------------------------------




--------------------------------------- Iteration      1(   2)  ---------------------------------------


    TRIAL :  cpu time    6.0401: real time    6.0992
    CORREC:  cpu time    0.0001: real time    0.0001
    --------------------------------------------
      LOOP:  cpu time    6.0737: real time    6.1334

 eigenvalue-minimisations  :   448
 total energy-change (2. order) :-0.2442113E+04  (-0.2298466E+04)
 number of electron     216.0000000 magnetization 
 augmentation part      216.0000000 magnetization 

 Free energy of the ion-electron system (eV)
  ---------------------------------------------------
  alpha Z        PSCENC =        59.93625244
  Ewald energy   TEWEN  =     30433.92553120
  -Hartree energ DENC   =    -36609.37782081
  -exchange      EXHF   =         0.00000000
  -V(xc)+E(xc)   XCENC  =       420.79842279
  PAW double counting   =      6525.96553977    -6260.36035765
  entropy T*S    EENTRO =        -0.00000000
  eigenvalues    EBANDS =     -2723.84255730
  atomic energy  EATOM  =      8369.52358910
  ---------------------------------------------------
  free energy    TOTEN  =       216.56859955 eV

  energy without entropy =      216.56859955  energy(sigma->0) =      216.56859955


--------------------------------------------------------------------------------------------------------




--------------------------------------- Iteration      1(   3)  ---------------------------------------


    TRIAL :  cpu time    5.1007: real time    5.1520
    CORREC:  cpu time    0.0000: real time    0.0000
    --------------------------------------------
      LOOP:  cpu time    5.1749: real time    5.2288

 eigenvalue-minimisations  :   364
 total energy-change (2. order) :-0.6967583E+03  (-0.6931584E+03)
 number of electron     216.0000000 magnetization 
 augmentation part      216.0000000 magnetization 

 Free energy of the ion-electron system (eV)
  ---------------------------------------------------
  alpha Z        PSCENC =        59.93625244
  Ewald energy   TEWEN  =     30433.92553120
  -Hartree energ DENC   =    -36609.37782081
  -exchange      EXHF   =         0.00000000
  -V(xc)+E(xc)   XCENC  =       420.79842279
  PAW double counting   =      6525.96553977    -6260.36035765
  entropy T*S    EENTRO =        -0.00000000
  eigenvalues    EBANDS =     -3420.60085022
  atomic energy  EATOM  =      8369.52358910
  ---------------------------------------------------
  free energy    TOTEN  =      -480.18969337 eV

  energy without entropy =     -480.18969337  energy(sigma->0) =     -480.18969337


--------------------------------------------------------------------------------------------------------




--------------------------------------- Iteration      1(   4)  ---------------------------------------


    TRIAL :  cpu time    5.0884: real time    5.1440
    CORREC:  cpu time    0.0001: real time    0.0001
    --------------------------------------------
      LOOP:  cpu time    5.1300: real time    5.1859

 eigenvalue-minimisations  :   364
 total energy-change (2. order) :-0.3672998E+02  (-0.3658679E+02)
 number of electron     216.0000000 magnetization 
 augmentation part      216.0000000 magnetization 

 Free energy of the ion-electron system (eV)
  ---------------------------------------------------
  alpha Z        PSCENC =        59.93625244
  Ewald energy   TEWEN  =     30433.92553120
  -Hartree energ DENC   =    -36609.37782081
  -exchange      EXHF   =         0.00000000
  -V(xc)+E(xc)   XCENC  =       420.79842279
  PAW double counting   =      6525.96553977    -6260.36035765
  entropy T*S    EENTRO =        -0.00000000
  eigenvalues    EBANDS =     -3457.33082550
  atomic energy  EATOM  =      8369.52358910
  ---------------------------------------------------
  free energy    TOTEN  =      -516.91966866 eV

  energy without entropy =     -516.91966866  energy(sigma->0) =     -516.91966866


--------------------------------------------------------------------------------------------------------




--------------------------------------- Iteration      1(   5)  ---------------------------------------


    TRIAL :  cpu time    5.6893: real time    5.7922
    CORREC:  cpu time    0.0001: real time    0.0001
    CHARGE:  cpu time    0.2326: real time    0.2413
    --------------------------------------------
      LOOP:  cpu time    5.9735: real time    6.0892

 eigenvalue-minimisations  :   420
 total energy-change (2. order) :-0.1123769E+01  (-0.1122128E+01)
 number of electron     216.0000000 magnetization 
 augmentation part       -0.2647145 magnetization 

 Free energy of the ion-electron system (eV)
  ---------------------------------------------------
  alpha Z        PSCENC =        59.93625244
  Ewald energy   TEWEN  =     30433.92553120
  -Hartree energ DENC   =    -36609.37782081
  -exchange      EXHF   =         0.00000000
  -V(xc)+E(xc)   XCENC  =       420.79842279
  PAW double counting   =      6525.96553977    -6260.36035765
  entropy T*S    EENTRO =        -0.00000000
  eigenvalues    EBANDS =     -3458.45459448
  atomic energy  EATOM  =      8369.52358910
  ---------------------------------------------------
  free energy    TOTEN  =      -518.04343763 eV

  energy without entropy =     -518.04343763  energy(sigma->0) =     -518.04343763


--------------------------------------------------------------------------------------------------------




--------------------------------------- Iteration      1(   6)  ---------------------------------------


    POTLOK:  cpu time    0.2750: real time    0.2774
    SETDIJ:  cpu time    0.0028: real time    0.0029
    TRIAL :  cpu time    2.0129: real time    2.0331
    CORREC:  cpu time    0.8081: real time    0.8153
    CHARGE:  cpu time    0.2354: real time    0.2376
    --------------------------------------------
      LOOP:  cpu time    3.3633: real time    3.3963

 eigenvalue-minimisations  :     0
 total energy-change (2. order) : 0.5134463E+02  (-0.1548447E+02)
 number of electron     216.0000000 magnetization 
 augmentation part       -0.3648867 magnetization 

 Free energy of the ion-electron system (eV)
  ---------------------------------------------------
  alpha Z        PSCENC =        59.93625244
  Ewald energy   TEWEN  =     30433.92553120
  -Hartree energ DENC   =    -38018.79895961
  -exchange      EXHF   =         0.00000000
  -V(xc)+E(xc)   XCENC  =       469.00955193
  PAW double counting   =     89550.54171025   -89293.22045635
  entropy T*S    EENTRO =        -0.00000000
  eigenvalues    EBANDS =     -2037.61602841
  atomic energy  EATOM  =      8369.52358910
  ---------------------------------------------------
  free energy    TOTEN  =      -466.69880944 eV

  energy without entropy =     -466.69880944  energy(sigma->0) =     -466.69880944


--------------------------------------------------------------------------------------------------------




--------------------------------------- Iteration      1(   7)  ---------------------------------------


    POTLOK:  cpu time    0.2760: real time    0.2782
    SETDIJ:  cpu time    0.0031: real time    0.0031
    TRIAL :  cpu time    2.0054: real time    2.0250
    CORREC:  cpu time    0.8066: real time    0.8137
    CHARGE:  cpu time    0.2355: real time    0.2374
    --------------------------------------------
      LOOP:  cpu time    3.4001: real time    3.4620

 eigenvalue-minimisations  :     0
 total energy-change (2. order) :-0.1552762E+02  (-0.1817044E+01)
 number of electron     216.0000000 magnetization 
 augmentation part       -0.4124245 magnetization 

 Free energy of the ion-electron system (eV)
  ---------------------------------------------------
  alpha Z        PSCENC =        59.93625244
  Ewald energy   TEWEN  =     30433.92553120
  -Hartree energ DENC   =    -37518.47880488
  -exchange      EXHF   =         0.00000000
  -V(xc)+E(xc)   XCENC  =       451.89828095
  PAW double counting   =    105743.11324840  -105482.96511432
  entropy T*S    EENTRO =        -0.00000000
  eigenvalues    EBANDS =     -2539.17941463
  atomic energy  EATOM  =      8369.52358910
  ---------------------------------------------------
  free energy    TOTEN  =      -482.22643173 eV

  energy without entropy =     -482.22643173  energy(sigma->0) =     -482.22643173


--------------------------------------------------------------------------------------------------------




--------------------------------------- Iteration      1(   8)  ---------------------------------------


    POTLOK:  cpu time    0.2747: real time    0.2768
    SETDIJ:  cpu time    0.0030: real time    0.0030
    TRIAL :  cpu time    2.0056: real time    2.0256
    CORREC:  cpu time    0.8062: real time    0.8131
    CHARGE:  cpu time    0.2361: real time    0.2379
    --------------------------------------------
      LOOP:  cpu time    3.4035: real time    3.4358

 eigenvalue-minimisations  :     0
 total energy-change (2. order) :-0.1815399E+01  (-0.4712554E+00)
 number of electron     216.0000000 magnetization 
 augmentation part       -0.4298453 magnetization 

 Free energy of the ion-electron system (eV)
  ---------------------------------------------------
  alpha Z        PSCENC =        59.93625244
  Ewald energy   TEWEN  =     30433.92553120
  -Hartree energ DENC   =    -37490.49435546
  -exchange      EXHF   =         0.00000000
  -V(xc)+E(xc)   XCENC  =       451.33756261
  PAW double counting   =    110144.95411289  -109884.39622308
  entropy T*S    EENTRO =        -0.00000000
  eigenvalues    EBANDS =     -2568.82830012
  atomic energy  EATOM  =      8369.52358910
  ---------------------------------------------------
  free energy    TOTEN  =      -484.04183040 eV

  energy without entropy =     -484.04183040  energy(sigma->0) =     -484.04183040


--------------------------------------------------------------------------------------------------------




--------------------------------------- Iteration      1(   9)  ---------------------------------------


    POTLOK:  cpu time    0.2749: real time    0.2771
    SETDIJ:  cpu time    0.0030: real time    0.0030
    TRIAL :  cpu time    2.0047: real time    2.0248
    CORREC:  cpu time    0.8077: real time    0.8147
    CHARGE:  cpu time    0.2353: real time    0.2370
    --------------------------------------------
      LOOP:  cpu time    3.3321: real time    3.3971

 eigenvalue-minimisations  :     0
 total energy-change (2. order) :-0.4711430E+00  (-0.1536828E+00)
 number of electron     216.0000000 magnetization 
 augmentation part       -0.4376240 magnetization 

 Free energy of the ion-electron system (eV)
  ---------------------------------------------------
  alpha Z        PSCENC =        59.93625244
  Ewald energy   TEWEN  =     30433.92553120
  -Hartree energ DENC   =    -37507.30147386
  -exchange      EXHF   =         0.00000000
  -V(xc)+E(xc)   XCENC  =       451.56459656
  PAW double counting   =    112950.80650858  -112690.09737817
  entropy T*S    EENTRO =        -0.00000000
  eigenvalues    EBANDS =     -2552.87059922
  atomic energy  EATOM  =      8369.52358910
  ---------------------------------------------------
  free energy    TOTEN  =      -484.51297337 eV

  energy without entropy =     -484.51297337  energy(sigma->0) =     -484.51297337


--------------------------------------------------------------------------------------------------------




--------------------------------------- Iteration      1(  10)  ---------------------------------------


    POTLOK:  cpu time    0.2753: real time    0.2771
    SETDIJ:  cpu time    0.0030: real time    0.0030
    TRIAL :  cpu time    2.0049: real time    2.0247
    CORREC:  cpu time    0.8093: real time    0.8164
    CHARGE:  cpu time    0.2354: real time    0.2372
    --------------------------------------------
      LOOP:  cpu time    3.4090: real time    3.4412

 eigenvalue-minimisations  :     0
 total energy-change (2. order) :-0.1534644E+00  (-0.6298627E-01)
 number of electron     216.0000000 magnetization 
 augmentation part       -0.4381446 magnetization 

 Free energy of the ion-electron system (eV)
  ---------------------------------------------------
  alpha Z        PSCENC =        59.93625244
  Ewald energy   TEWEN  =     30433.92553120
  -Hartree energ DENC   =    -37508.46995004
  -exchange      EXHF   =         0.00000000
  -V(xc)+E(xc)   XCENC  =       451.48990662
  PAW double counting   =    113463.09053310  -113202.29405544
  entropy T*S    EENTRO =        -0.00000000
  eigenvalues    EBANDS =     -2551.86824477
  atomic energy  EATOM  =      8369.52358910
  ---------------------------------------------------
  free energy    TOTEN  =      -484.66643777 eV

  energy without entropy =     -484.66643777  energy(sigma->0) =     -484.66643777


--------------------------------------------------------------------------------------------------------




--------------------------------------- Iteration      1(  11)  ---------------------------------------


    POTLOK:  cpu time    0.2749: real time    0.2769
    SETDIJ:  cpu time    0.0030: real time    0.0030
    TRIAL :  cpu time    2.0035: real time    2.0239
    CORREC:  cpu time    0.8062: real time    0.8131
    CHARGE:  cpu time    0.2349: real time    0.2368
    --------------------------------------------
      LOOP:  cpu time    3.3896: real time    3.4539

 eigenvalue-minimisations  :     0
 total energy-change (2. order) :-0.6283290E-01  (-0.2599582E-01)
 number of electron     216.0000000 magnetization 
 augmentation part       -0.4376578 magnetization 

 Free energy of the ion-electron system (eV)
  ---------------------------------------------------
  alpha Z        PSCENC =        59.93625244
  Ewald energy   TEWEN  =     30433.92553120
  -Hartree energ DENC   =    -37504.38948914
  -exchange      EXHF   =         0.00000000
  -V(xc)+E(xc)   XCENC  =       451.43235445
  PAW double counting   =    112993.72006017  -112732.92232870
  entropy T*S    EENTRO =        -0.00000000
  eigenvalues    EBANDS =     -2555.95524021
  atomic energy  EATOM  =      8369.52358910
  ---------------------------------------------------
  free energy    TOTEN  =      -484.72927068 eV

  energy without entropy =     -484.72927068  energy(sigma->0) =     -484.72927068


--------------------------------------------------------------------------------------------------------




--------------------------------------- Iteration      1(  12)  ---------------------------------------


    POTLOK:  cpu time    0.2742: real time    0.2760
    SETDIJ:  cpu time    0.0030: real time    0.0030
    TRIAL :  cpu time    2.0053: real time    2.0253
    CORREC:  cpu time    0.8045: real time    0.8110
    CHARGE:  cpu time    0.2349: real time    0.2368
    --------------------------------------------
      LOOP:  cpu time    3.3692: real time    3.4034

 eigenvalue-minimisations  :     0
 total energy-change (2. order) :-0.2590252E-01  (-0.9094736E-02)
 number of electron     216.0000000 magnetization 
 augmentation part       -0.4377403 magnetization 

 Free energy of the ion-electron system (eV)
  ---------------------------------------------------
  alpha Z        PSCENC =        59.93625244
  Ewald energy   TEWEN  =     30433.92553120
  -Hartree energ DENC   =    -37502.44493537
  -exchange      EXHF   =         0.00000000
  -V(xc)+E(xc)   XCENC  =       451.39008832
  PAW double counting   =    112607.16344615  -112346.38675846
  entropy T*S    EENTRO =        -0.00000000
  eigenvalues    EBANDS =     -2557.86238659
  atomic energy  EATOM  =      8369.52358910
  ---------------------------------------------------
  free energy    TOTEN  =      -484.75517320 eV

  energy without entropy =     -484.75517320  energy(sigma->0) =     -484.75517320


--------------------------------------------------------------------------------------------------------




--------------------------------------- Iteration      1(  13)  ---------------------------------------


    POTLOK:  cpu time    0.2776: real time    0.2797
    SETDIJ:  cpu time    0.0030: real time    0.0030
    TRIAL :  cpu time    2.0062: real time    2.0284
    CORREC:  cpu time    0.8037: real time    0.8113
    CHARGE:  cpu time    0.2358: real time    0.2376
    --------------------------------------------
      LOOP:  cpu time    3.3618: real time    3.4179

 eigenvalue-minimisations  :     0
 total energy-change (2. order) :-0.9078715E-02  (-0.2665164E-02)
 number of electron     216.0000000 magnetization 
 augmentation part       -0.4373142 magnetization 

 Free energy of the ion-electron system (eV)
  ---------------------------------------------------
  alpha Z        PSCENC =        59.93625244
  Ewald energy   TEWEN  =     30433.92553120
  -Hartree energ DENC   =    -37502.54315952
  -exchange      EXHF   =         0.00000000
  -V(xc)+E(xc)   XCENC  =       451.38311989
  PAW double counting   =    112476.90383106  -112216.13807140
  entropy T*S    EENTRO =        -0.00000000
  eigenvalues    EBANDS =     -2557.75534469
  atomic energy  EATOM  =      8369.52358910
  ---------------------------------------------------
  free energy    TOTEN  =      -484.76425191 eV

  energy without entropy =     -484.76425191  energy(sigma->0) =     -484.76425191


--------------------------------------------------------------------------------------------------------




--------------------------------------- Iteration      1(  14)  ---------------------------------------


    POTLOK:  cpu time    0.2738: real time    0.2756
    SETDIJ:  cpu time    0.0030: real time    0.0030
    TRIAL :  cpu time    2.0046: real time    2.0243
    CORREC:  cpu time    0.8034: real time    0.8104
    CHARGE:  cpu time    0.2357: real time    0.2375
    --------------------------------------------
      LOOP:  cpu time    3.4277: real time    3.4672

 eigenvalue-minimisations  :     0
 total energy-change (2. order) :-0.2667899E-02  (-0.7735658E-03)
 number of electron     216.0000000 magnetization 
 augmentation part       -0.4370506 magnetization 

 Free energy of the ion-electron system (eV)
  ---------------------------------------------------
  alpha Z        PSCENC =        59.93625244
  Ewald energy   TEWEN  =     30433.92553120
  -Hartree energ DENC   =    -37502.58043492
  -exchange      EXHF   =         0.00000000
  -V(xc)+E(xc)   XCENC  =       451.38243729
  PAW double counting   =    112508.37031955  -112247.60746642
  entropy T*S    EENTRO =        -0.00000000
  eigenvalues    EBANDS =     -2557.71714806
  atomic energy  EATOM  =      8369.52358910
  ---------------------------------------------------
  free energy    TOTEN  =      -484.76691981 eV

  energy without entropy =     -484.76691981  energy(sigma->0) =     -484.76691981


--------------------------------------------------------------------------------------------------------




--------------------------------------- Iteration      1(  15)  ---------------------------------------


    POTLOK:  cpu time    0.2722: real time    0.2740
    SETDIJ:  cpu time    0.0030: real time    0.0030
    TRIAL :  cpu time    2.0204: real time    2.0406
    CORREC:  cpu time    0.8013: real time    0.8090
    CHARGE:  cpu time    0.2355: real time    0.2373
    --------------------------------------------
      LOOP:  cpu time    3.3971: real time    3.4308

 eigenvalue-minimisations  :     0
 total energy-change (2. order) :-0.7764776E-03  (-0.2902535E-03)
 number of electron     216.0000000 magnetization 
 augmentation part       -0.4367037 magnetization 

 Free energy of the ion-electron system (eV)
  ---------------------------------------------------
  alpha Z        PSCENC =        59.93625244
  Ewald energy   TEWEN  =     30433.92553120
  -Hartree energ DENC   =    -37502.20986521
  -exchange      EXHF   =         0.00000000
  -V(xc)+E(xc)   XCENC  =       451.36579522
  PAW double counting   =    112536.00108575  -112275.23616935
  entropy T*S    EENTRO =        -0.00000000
  eigenvalues    EBANDS =     -2558.07391544
  atomic energy  EATOM  =      8369.52358910
  ---------------------------------------------------
  free energy    TOTEN  =      -484.76769629 eV

  energy without entropy =     -484.76769629  energy(sigma->0) =     -484.76769629


--------------------------------------------------------------------------------------------------------




--------------------------------------- Iteration      1(  16)  ---------------------------------------


    POTLOK:  cpu time    0.2729: real time    0.2748
    SETDIJ:  cpu time    0.0030: real time    0.0030
    TRIAL :  cpu time    2.0043: real time    2.0243
    CORREC:  cpu time    0.8031: real time    0.8100
    CHARGE:  cpu time    0.2350: real time    0.2368
    --------------------------------------------
      LOOP:  cpu time    3.3710: real time    3.4030

 eigenvalue-minimisations  :     0
 total energy-change (2. order) :-0.2920135E-03  (-0.1180430E-03)
 number of electron     216.0000000 magnetization 
 augmentation part       -0.4365307 magnetization 

 Free energy of the ion-electron system (eV)
  ---------------------------------------------------
  alpha Z        PSCENC =        59.93625244
  Ewald energy   TEWEN  =     30433.92553120
  -Hartree energ DENC   =    -37502.37232601
  -exchange      EXHF   =         0.00000000
  -V(xc)+E(xc)   XCENC  =       451.37269202
  PAW double counting   =    112507.40668272  -112246.64288055
  entropy T*S    EENTRO =        -0.00000000
  eigenvalues    EBANDS =     -2557.91752922
  atomic energy  EATOM  =      8369.52358910
  ---------------------------------------------------
  free energy    TOTEN  =      -484.76798830 eV

  energy without entropy =     -484.76798830  energy(sigma->0) =     -484.76798830


--------------------------------------------------------------------------------------------------------




--------------------------------------- Iteration      1(  17)  ---------------------------------------


    POTLOK:  cpu time    0.2711: real time    0.2734
    SETDIJ:  cpu time    0.0029: real time    0.0030
    TRIAL :  cpu time    2.0001: real time    2.0251
    CORREC:  cpu time    0.8026: real time    0.8115
    CHARGE:  cpu time    0.2345: real time    0.2367
    --------------------------------------------
      LOOP:  cpu time    3.4184: real time    3.4821

 eigenvalue-minimisations  :     0
 total energy-change (2. order) :-0.1190343E-03  (-0.4884013E-04)
 number of electron     216.0000000 magnetization 
 augmentation part       -0.4365144 magnetization 

 Free energy of the ion-electron system (eV)
  ---------------------------------------------------
  alpha Z        PSCENC =        59.93625244
  Ewald energy   TEWEN  =     30433.92553120
  -Hartree energ DENC   =    -37502.45698635
  -exchange      EXHF   =         0.00000000
  -V(xc)+E(xc)   XCENC  =       451.37458070
  PAW double counting   =    112468.98348877  -112208.21982971
  entropy T*S    EENTRO =        -0.00000000
  eigenvalues    EBANDS =     -2557.83473349
  atomic energy  EATOM  =      8369.52358910
  ---------------------------------------------------
  free energy    TOTEN  =      -484.76810734 eV

  energy without entropy =     -484.76810734  energy(sigma->0) =     -484.76810734


--------------------------------------------------------------------------------------------------------




--------------------------------------- Iteration      1(  18)  ---------------------------------------


    POTLOK:  cpu time    0.2713: real time    0.2734
    SETDIJ:  cpu time    0.0030: real time    0.0030
    TRIAL :  cpu time    2.0028: real time    2.0271
    CORREC:  cpu time    0.8036: real time    0.8121
    CHARGE:  cpu time    0.2369: real time    0.2390
    --------------------------------------------
      LOOP:  cpu time    3.3601: real time    3.4049

 eigenvalue-minimisations  :     0
 total energy-change (2. order) :-0.4902662E-04  (-0.1719291E-04)
 number of electron     216.0000000 magnetization 
 augmentation part       -0.4366100 magnetization 

 Free energy of the ion-electron system (eV)
  ---------------------------------------------------
  alpha Z        PSCENC =        59.93625244
  Ewald energy   TEWEN  =     30433.92553120
  -Hartree energ DENC   =    -37502.47915903
  -exchange      EXHF   =         0.00000000
  -V(xc)+E(xc)   XCENC  =       451.37548718
  PAW double counting   =    112454.01838801  -112193.25454921
  entropy T*S    EENTRO =        -0.00000000
  eigenvalues    EBANDS =     -2557.81369606
  atomic energy  EATOM  =      8369.52358910
  ---------------------------------------------------
  free energy    TOTEN  =      -484.76815636 eV

  energy without entropy =     -484.76815636  energy(sigma->0) =     -484.76815636


--------------------------------------------------------------------------------------------------------




--------------------------------------- Iteration      1(  19)  ---------------------------------------


    POTLOK:  cpu time    0.2711: real time    0.2738
    SETDIJ:  cpu time    0.0029: real time    0.0029
    TRIAL :  cpu time    2.0082: real time    2.0288
    CORREC:  cpu time    0.8052: real time    0.8121
    CHARGE:  cpu time    0.2351: real time    0.2369
    --------------------------------------------
      LOOP:  cpu time    3.3597: real time    3.4276

 eigenvalue-minimisations  :     0
 total energy-change (2. order) :-0.1687750E-04  (-0.6106485E-05)
 number of electron     216.0000000 magnetization 
 augmentation part       -0.4366817 magnetization 

 Free energy of the ion-electron system (eV)
  ---------------------------------------------------
  alpha Z        PSCENC =        59.93625244
  Ewald energy   TEWEN  =     30433.92553120
  -Hartree energ DENC   =    -37502.47014667
  -exchange      EXHF   =         0.00000000
  -V(xc)+E(xc)   XCENC  =       451.37504601
  PAW double counting   =    112458.05491524  -112197.29061448
  entropy T*S    EENTRO =        -0.00000000
  eigenvalues    EBANDS =     -2557.82274608
  atomic energy  EATOM  =      8369.52358910
  ---------------------------------------------------
  free energy    TOTEN  =      -484.76817324 eV

  energy without entropy =     -484.76817324  energy(sigma->0) =     -484.76817324


--------------------------------------------------------------------------------------------------------




--------------------------------------- Iteration      1(  20)  ---------------------------------------


    POTLOK:  cpu time    0.2714: real time    0.2733
    SETDIJ:  cpu time    0.0028: real time    0.0029
    TRIAL :  cpu time    2.0039: real time    2.0241
    CORREC:  cpu time    0.8043: real time    0.8113
    CHARGE:  cpu time    0.2357: real time    0.2376
    --------------------------------------------
      LOOP:  cpu time    3.4169: real time    3.4780

 eigenvalue-minimisations  :     0
 total energy-change (2. order) :-0.5745605E-05  (-0.2076976E-05)
 number of electron     216.0000000 magnetization 
 augmentation part       -0.4367158 magnetization 

 Free energy of the ion-electron system (eV)
  ---------------------------------------------------
  alpha Z        PSCENC =        59.93625244
  Ewald energy   TEWEN  =     30433.92553120
  -Hartree energ DENC   =    -37502.48726720
  -exchange      EXHF   =         0.00000000
  -V(xc)+E(xc)   XCENC  =       451.37562075
  PAW double counting   =    112464.24149634  -112203.47705656
  entropy T*S    EENTRO =        -0.00000000
  eigenvalues    EBANDS =     -2557.80634506
  atomic energy  EATOM  =      8369.52358910
  ---------------------------------------------------
  free energy    TOTEN  =      -484.76817899 eV

  energy without entropy =     -484.76817899  energy(sigma->0) =     -484.76817899


--------------------------------------------------------------------------------------------------------




--------------------------------------- Iteration      1(  21)  ---------------------------------------


    POTLOK:  cpu time    0.2715: real time    0.2734
    SETDIJ:  cpu time    0.0028: real time    0.0028
    TRIAL :  cpu time    2.0067: real time    2.0293
    CORREC:  cpu time    0.8053: real time    0.8139
    CHARGE:  cpu time    0.2349: real time    0.2370
    --------------------------------------------
      LOOP:  cpu time    3.3661: real time    3.4649

 eigenvalue-minimisations  :     0
 total energy-change (2. order) :-0.1893030E-05  (-0.8509944E-06)
 number of electron     216.0000000 magnetization 
 augmentation part       -0.4367157 magnetization 

 Free energy of the ion-electron system (eV)
  ---------------------------------------------------
  alpha Z        PSCENC =        59.93625244
  Ewald energy   TEWEN  =     30433.92553120
  -Hartree energ DENC   =    -37502.48206705
  -exchange      EXHF   =         0.00000000
  -V(xc)+E(xc)   XCENC  =       451.37527328
  PAW double counting   =    112466.43169787  -112205.66718291
  entropy T*S    EENTRO =        -0.00000000
  eigenvalues    EBANDS =     -2557.81127482
  atomic energy  EATOM  =      8369.52358910
  ---------------------------------------------------
  free energy    TOTEN  =      -484.76818088 eV

  energy without entropy =     -484.76818088  energy(sigma->0) =     -484.76818088


--------------------------------------------------------------------------------------------------------




--------------------------------------- Iteration      1(  22)  ---------------------------------------


    POTLOK:  cpu time    0.2743: real time    0.2762
    SETDIJ:  cpu time    0.0029: real time    0.0029
    TRIAL :  cpu time    2.0046: real time    2.0245
    CORREC:  cpu time    0.8013: real time    0.8084
    EDDIAG:  cpu time    0.4593: real time    0.4639
    CHARGE:  cpu time    0.2350: real time    0.2368
    --------------------------------------------
      LOOP:  cpu time    3.8199: real time    3.8767

 eigenvalue-minimisations  :     0
 total energy-change (2. order) :-0.8073403E-06  (-0.3470422E-06)
 number of electron     216.0000000 magnetization 
 augmentation part       -0.4367114 magnetization 

 Free energy of the ion-electron system (eV)
  ---------------------------------------------------
  alpha Z        PSCENC =        59.93625244
  Ewald energy   TEWEN  =     30433.92553120
  -Hartree energ DENC   =    -37502.48462229
  -exchange      EXHF   =         0.00000000
  -V(xc)+E(xc)   XCENC  =       451.37545427
  PAW double counting   =    112466.08041977  -112205.31599430
  entropy T*S    EENTRO =        -0.00000000
  eigenvalues    EBANDS =     -2557.80881187
  atomic energy  EATOM  =      8369.52358910
  ---------------------------------------------------
  free energy    TOTEN  =      -484.76818169 eV

  energy without entropy =     -484.76818169  energy(sigma->0) =     -484.76818169


--------------------------------------------------------------------------------------------------------


  average scaling for gradient   0.9344


 average (electrostatic) potential at core
  the test charge radii are     0.5770  0.5955
  (the norm of the test charge is              1.0000)
       1 -85.2914       2 -85.2907       3 -85.2917       4 -85.2926       5 -85.2898
       6 -85.2896       7 -85.2916       8 -85.2901       9 -85.2904      10 -85.2911
      11 -85.2895      12 -85.2897      13 -85.2910      14 -85.2903      15 -85.2894
      16 -85.2898      17 -85.2903      18 -85.2908      19 -85.2913      20 -85.2904
      21 -85.2894      22 -85.2892      23 -85.2931      24 -85.2930      25 -85.2893
      26 -85.2896      27 -85.2905      28 -85.2917      29 -85.2894      30 -85.2894
      31 -85.2921      32 -85.2914      33 -85.2899      34 -85.2897      35 -85.2897
      36 -85.2899      37 -85.2907      38 -85.2911      39 -85.2910      40 -85.2909
      41 -85.2909      42 -85.2912      43 -85.2904      44 -85.2913      45 -85.2894
      46 -85.2897      47 -85.2897      48 -85.2895      49 -85.2910      50 -85.2905
      51 -89.2284      52-120.0075      53-120.0071
 
 
 
 E-fermi :  -3.9168     XC(G=0):  -2.4205     alpha+bet : -2.1113

 Fermi energy:        -3.9167759015

 k-point     1 :       0.0000    0.0000    0.0000
  band No.  band energies     occupation 
      1     -27.3295      2.00000
      2     -26.3242      2.00000
      3     -22.0404      2.00000
      4     -21.1010      2.00000
      5     -21.0999      2.00000
      6     -21.0997      2.00000
      7     -21.0992      2.00000
      8     -21.0990      2.00000
      9     -21.0989      2.00000
     10     -19.2560      2.00000
     11     -19.2560      2.00000
     12     -19.2557      2.00000
     13     -19.2551      2.00000
     14     -19.2547      2.00000
     15     -19.2545      2.00000
     16     -18.3581      2.00000
     17     -18.3579      2.00000
     18     -18.3576      2.00000
     19     -18.3572      2.00000
     20     -18.3566      2.00000
     21     -18.3564      2.00000
     22     -16.1902      2.00000
     23     -16.1898      2.00000
     24     -16.1890      2.00000
     25     -16.1888      2.00000
     26     -16.1884      2.00000
     27     -16.1883      2.00000
     28     -15.2042      2.00000
     29     -15.2042      2.00000
     30     -15.2033      2.00000
     31     -15.2031      2.00000
     32     -15.2027      2.00000
     33     -15.2026      2.00000
     34     -13.8507      2.00000
     35     -13.8505      2.00000
     36     -13.8499      2.00000
     37     -13.8498      2.00000
     38     -13.8497      2.00000
     39     -13.8495      2.00000
     40     -12.1328      2.00000
     41     -11.4617      2.00000
     42     -11.4614      2.00000
     43     -11.4610      2.00000
     44     -11.4609      2.00000
     45     -11.4598      2.00000
     46     -11.4596      2.00000
     47     -11.3647      2.00000
     48     -11.3646      2.00000
     49     -11.3640      2.00000
     50     -11.3640      2.00000
     51     -11.3637      2.00000
     52     -11.3635      2.00000
     53     -10.9433      2.00000
     54     -10.8787      2.00000
     55     -10.8786      2.00000
     56     -10.1323      2.00000
     57      -9.9877      2.00000
     58      -9.9875      2.00000
     59      -9.9860      2.00000
     60      -9.9856      2.00000
     61      -9.9854      2.00000
     62      -9.9853      2.00000
     63      -9.0162      2.00000
     64      -9.0159      2.00000
     65      -9.0158      2.00000
     66      -9.0148      2.00000
     67      -9.0143      2.00000
     68      -9.0143      2.00000
     69      -8.7076      2.00000
     70      -8.7070      2.00000
     71      -8.7065      2.00000
     72      -8.7064      2.00000
     73      -8.7060      2.00000
     74      -8.7058      2.00000
     75      -8.6590      2.00000
     76      -8.6588      2.00000
     77      -8.6582      2.00000
     78      -8.6581      2.00000
     79      -8.6579      2.00000
     80      -8.6570      2.00000
     81      -7.3320      2.00000
     82      -7.3319      2.00000
     83      -7.0516      2.00000
     84      -7.0500      2.00000
     85      -7.0498      2.00000
     86      -7.0494      2.00000
     87      -7.0484      2.00000
     88      -7.0483      2.00000
     89      -6.8866      2.00000
     90      -6.8862      2.00000
     91      -6.8860      2.00000
     92      -6.8857      2.00000
     93      -6.8855      2.00000
     94      -6.8853      2.00000
     95      -5.9901      2.00000
     96      -5.9898      2.00000
     97      -5.9895      2.00000
     98      -5.9892      2.00000
     99      -5.9889      2.00000
    100      -5.9887      2.00000
    101      -5.5620      2.00000
    102      -5.5599      2.00000
    103      -4.0070      2.00000
    104      -4.0067      2.00000
    105      -4.0062      2.00000
    106      -4.0062      2.00000
    107      -4.0053      2.00000
    108      -4.0052      2.00000
    109      -1.2042      0.00000
    110      -1.2039      0.00000
    111      -1.2034      0.00000
    112      -1.2032      0.00000
    113      -1.2027      0.00000
    114      -1.2024      0.00000
    115       0.5485      0.00000
    116       0.6600      0.00000
    117       0.6604      0.00000
    118       0.6609      0.00000
    119       0.6610      0.00000
    120       0.6611      0.00000
    121       0.6628      0.00000
    122       0.8980      0.00000
    123       1.2025      0.00000
    124       1.4264      0.00000
    125       1.5781      0.00000
    126       1.9702      0.00000
    127       1.9798      0.00000
    128       2.0078      0.00000
    129       2.0215      0.00000
    130       2.0256      0.00000
    131       2.2925      0.00000
    132       2.3977      0.00000
    133       2.4010      0.00000
    134       2.4019      0.00000
    135       2.4025      0.00000
    136       2.4055      0.00000
    137       2.4849      0.00000
    138       2.8792      0.00000
    139       2.9975      0.00000
    140       3.4474      0.00000


--------------------------------------------------------------------------------------------------------


 soft charge-density along one line, spin component           1
         0         1         2         3         4         5         6         7         8         9
 total charge-density along one line
 
 pseudopotential strength for first ion, spin component:           1
 12.690  21.354   0.000   0.000   0.000   0.000   0.000   0.000
 21.354  35.932   0.000   0.000   0.000   0.000   0.000   0.000
  0.000   0.000  -3.164  -0.000   0.000  -5.672  -0.000   0.000
  0.000   0.000  -0.000  -3.166  -0.000  -0.000  -5.673  -0.000
  0.000   0.000   0.000  -0.000  -3.164   0.000  -0.000  -5.672
  0.000   0.000  -5.672  -0.000   0.000 -10.143  -0.000   0.000
  0.000   0.000  -0.000  -5.673  -0.000  -0.000 -10.146  -0.000
  0.000   0.000   0.000  -0.000  -5.672   0.000  -0.000 -10.143
 total augmentation occupancy for first ion, spin component:           1
  7.880  -2.765  -0.000  -0.002  -0.000   0.000   0.001   0.000
 -2.765   1.007   0.000   0.001   0.000  -0.000  -0.000  -0.000
 -0.000   0.000   7.264  -0.008   0.000  -2.462   0.003  -0.000
 -0.002   0.001  -0.008   3.235  -0.000   0.003  -0.862   0.000
 -0.000   0.000   0.000  -0.000   7.263  -0.000   0.000  -2.462
  0.000  -0.000  -2.462   0.003  -0.000   0.849  -0.001   0.000
  0.001  -0.000   0.003  -0.862   0.000  -0.001   0.236  -0.000
  0.000  -0.000  -0.000   0.000  -2.462   0.000  -0.000   0.849


------------------------ aborting loop because EDIFF is reached ----------------------------------------


    FORLOC:  cpu time    0.0510: real time    0.0515
    FORNL :  cpu time    0.7353: real time    0.7440
    FORCOR:  cpu time    0.2919: real time    0.2940
    OFIELD:  cpu time    0.0015: real time    0.0015

 VOLUME and BASIS-vectors are now :
 -----------------------------------------------------------------------------
  energy-cutoff  :     1000.00
  volume of cell :     2631.08
      direct lattice vectors                 reciprocal lattice vectors
    12.325000000  0.000000000  0.000000000     0.081135903  0.046843835  0.000000000
    -6.162500000 10.673763102  0.000000000     0.000000000  0.093687670  0.000000000
     0.000000000  0.000000000 20.000000000     0.000000000  0.000000000  0.050000000

  length of vectors
    12.325000000 12.325000000 20.000000000     0.093687670  0.093687670  0.050000000


 FORCES acting on ions:
    Electron-Ion                     Ewald-Force                    Non-Local-Force
 -----------------------------------------------------------------------------------------------
   0.177E+01 0.154E+01 0.135E+02   -.178E+01 -.154E+01 -.135E+02   0.553E-02 -.750E-03 0.644E-02
   0.248E+01 0.124E+01 0.152E+02   -.249E+01 -.124E+01 -.152E+02   0.461E-02 -.354E-02 -.550E-02
   0.102E+01 0.277E+01 0.159E+02   -.102E+01 -.277E+01 -.159E+02   -.270E-03 0.129E-01 0.393E-03
   0.129E+01 0.187E+01 0.194E+02   -.129E+01 -.187E+01 -.194E+02   0.126E-01 0.119E-02 -.123E-01
   0.190E+01 0.465E+00 0.139E+02   -.190E+01 -.464E+00 -.139E+02   0.367E-03 -.605E-02 0.275E-02
   0.194E+01 -.411E+00 0.140E+02   -.195E+01 0.413E+00 -.140E+02   -.619E-02 0.307E-02 -.378E-02
   0.250E+01 0.941E+00 0.189E+02   -.250E+01 -.941E+00 -.189E+02   0.135E-01 -.198E-01 -.521E-02
   0.246E+01 -.859E+00 0.200E+02   -.246E+01 0.863E+00 -.200E+02   -.525E-02 -.643E-02 -.553E-02
   -.124E+01 0.255E+01 0.162E+02   0.124E+01 -.255E+01 -.162E+02   -.135E-02 -.116E-01 -.488E-02
   -.174E+01 0.147E+01 0.194E+02   0.174E+01 -.148E+01 -.194E+02   -.275E-01 0.161E-01 0.349E-02
   0.501E+00 -.519E+00 0.126E+02   -.498E+00 0.519E+00 -.126E+02   0.338E-02 -.276E-02 -.644E-03
   0.458E+00 -.387E+00 0.122E+02   -.458E+00 0.387E+00 -.122E+02   -.744E-02 0.359E-02 0.548E-02
   0.904E+00 -.202E+01 0.213E+02   -.906E+00 0.202E+01 -.212E+02   0.282E-01 -.890E-02 -.118E-02
   0.545E+00 -.283E+01 0.173E+02   -.550E+00 0.283E+01 -.173E+02   0.500E-02 0.548E-02 -.160E-01
   -.175E+01 0.106E+01 0.134E+02   0.175E+01 -.106E+01 -.134E+02   0.723E-02 -.365E-02 0.637E-02
   -.230E+01 0.677E+00 0.140E+02   0.230E+01 -.678E+00 -.140E+02   -.266E-02 0.594E-02 -.571E-02
   -.323E+00 -.127E+00 0.117E+02   0.328E+00 0.125E+00 -.117E+02   -.102E-02 0.646E-03 0.183E-02
   0.142E+00 0.110E+01 0.120E+02   -.141E+00 -.110E+01 -.120E+02   -.345E-02 0.199E-02 0.923E-02
   -.448E+00 -.272E+01 0.152E+02   0.446E+00 0.273E+01 -.152E+02   0.682E-02 -.251E-02 0.698E-03
   -.255E+00 -.163E+01 0.129E+02   0.251E+00 0.163E+01 -.129E+02   0.711E-03 -.162E-02 -.805E-03
   0.250E+01 -.110E+01 0.161E+02   -.250E+01 0.110E+01 -.161E+02   -.650E-03 -.304E-02 -.175E-01
   0.174E+01 -.142E+01 0.146E+02   -.175E+01 0.142E+01 -.146E+02   -.658E-02 0.515E-02 -.329E-02
   -.453E+00 0.828E+00 0.219E+02   0.450E+00 -.827E+00 -.219E+02   -.108E-01 0.110E-01 0.383E-02
   -.611E+00 -.130E+01 0.217E+02   0.613E+00 0.130E+01 -.217E+02   0.125E-01 -.156E-01 -.778E-02
   0.949E+00 -.356E+00 0.127E+02   -.947E+00 0.355E+00 -.127E+02   0.331E-02 -.246E-02 -.401E-02
   0.243E+00 0.823E+00 0.126E+02   -.242E+00 -.823E+00 -.126E+02   -.581E-02 0.386E-02 0.493E-02
   -.281E+01 0.364E+00 0.169E+02   0.281E+01 -.367E+00 -.169E+02   0.103E-01 0.857E-02 -.207E-02
   -.268E+01 -.107E+01 0.161E+02   0.268E+01 0.107E+01 -.162E+02   -.100E-01 0.942E-02 0.154E-02
   0.100E+01 -.202E+01 0.149E+02   -.100E+01 0.202E+01 -.149E+02   0.535E-02 0.173E-02 -.769E-02
   0.853E-01 -.884E+00 0.131E+02   -.879E-01 0.886E+00 -.131E+02   -.449E-02 0.235E-02 -.307E-02
   -.192E+01 -.197E+01 0.178E+02   0.192E+01 0.198E+01 -.178E+02   -.127E-01 -.858E-02 -.109E-01
   -.138E+01 -.258E+01 0.153E+02   0.138E+01 0.258E+01 -.153E+02   0.625E-03 -.207E-02 0.295E-02
   0.121E+00 0.519E+00 0.121E+02   -.122E+00 -.519E+00 -.121E+02   0.567E-02 -.489E-02 0.668E-02
   0.319E+00 0.490E+00 0.125E+02   -.322E+00 -.489E+00 -.125E+02   -.208E-02 0.446E-02 -.169E-02
   -.121E+01 0.212E+00 0.129E+02   0.121E+01 -.213E+00 -.129E+02   0.388E-02 -.229E-02 0.528E-02
   -.107E+01 -.474E+00 0.128E+02   0.107E+01 0.474E+00 -.128E+02   -.477E-02 0.267E-02 0.332E-02
   -.204E+01 -.108E+01 0.135E+02   0.205E+01 0.108E+01 -.135E+02   -.216E-02 0.111E-02 0.337E-02
   -.134E+01 -.107E+01 0.126E+02   0.134E+01 0.107E+01 -.126E+02   -.460E-02 0.129E-02 0.912E-02
   -.122E+01 -.155E+01 0.130E+02   0.122E+01 0.155E+01 -.130E+02   -.345E-02 -.977E-04 0.517E-02
   -.184E+00 -.417E+00 0.121E+02   0.185E+00 0.417E+00 -.122E+02   0.201E-02 0.421E-03 0.754E-02
   0.458E+00 0.115E+01 0.122E+02   -.459E+00 -.115E+01 -.123E+02   -.410E-02 0.220E-02 0.713E-02
   0.139E+01 0.214E+01 0.137E+02   -.139E+01 -.215E+01 -.137E+02   -.144E-03 -.377E-03 0.827E-02
   0.140E+00 0.191E+01 0.127E+02   -.136E+00 -.191E+01 -.127E+02   -.950E-03 0.155E-02 0.201E-02
   -.297E-01 0.283E+01 0.150E+02   0.318E-01 -.284E+01 -.150E+02   -.891E-02 0.277E-02 0.557E-02
   -.363E+00 0.684E+00 0.129E+02   0.365E+00 -.686E+00 -.129E+02   0.385E-02 -.278E-02 0.611E-03
   -.136E+01 0.168E+01 0.139E+02   0.136E+01 -.168E+01 -.139E+02   -.697E-02 0.834E-03 -.222E-02
   -.346E+00 -.831E+00 0.126E+02   0.345E+00 0.831E+00 -.126E+02   0.688E-02 -.160E-02 0.539E-02
   -.749E+00 0.271E+00 0.121E+02   0.747E+00 -.270E+00 -.121E+02   -.327E-02 0.317E-02 -.360E-02
   0.805E-01 -.516E+00 0.121E+02   -.815E-01 0.516E+00 -.121E+02   0.470E-02 -.335E-02 0.576E-02
   0.819E+00 0.583E+00 0.121E+02   -.822E+00 -.581E+00 -.121E+02   0.543E-03 0.153E-02 0.320E-02
   0.530E-02 0.190E-01 -.182E+03   -.883E-02 -.155E-01 0.183E+03   -.304E-02 0.179E-02 -.271E-02
   -.229E+03 0.156E+03 -.285E+03   0.279E+03 -.190E+03 0.289E+03   -.511E+02 0.348E+02 -.343E+01
   0.229E+03 -.156E+03 -.266E+03   -.279E+03 0.190E+03 0.263E+03   0.511E+02 -.348E+02 0.309E+01
 -----------------------------------------------------------------------------------------------
   -.595E-02 0.131E-01 0.341E+00   0.000E+00 0.568E-13 0.114E-12   0.653E-02 -.136E-01 -.341E+00
 
 
 POSITION                                       TOTAL-FORCE (eV/Angst)
 -----------------------------------------------------------------------------------
     11.98348      0.00342      0.01417         0.003102     -0.001584     -0.001038
     -0.34154      1.42665      0.01100        -0.000942     -0.000075     -0.003422
      2.12355      0.00315      0.01249        -0.001684      0.010504     -0.006380
      2.12326      1.42653      0.00641         0.013167      0.001212     -0.008408
     10.75099      2.13819      0.01213         0.000236     -0.005562     -0.000096
     -1.57382      3.56123      0.01110        -0.008867      0.004834     -0.001458
      0.89078      2.13854      0.00548         0.009293     -0.018926      0.002237
      0.89099      3.56147      0.00181        -0.012201     -0.002256      0.011534
      4.58864      0.00346      0.01135         0.003838     -0.016122     -0.003547
      4.58894      1.42623      0.00646        -0.023332      0.013112      0.013680
      9.51854      4.27281      0.01369         0.006629     -0.003131      0.000173
     -2.80632      5.69591      0.01434        -0.006446      0.003361      0.000755
      2.12300      4.27302      0.00000         0.024796     -0.004813      0.020100
      2.12335      5.69594      0.00581        -0.000744      0.009436     -0.002756
      7.05344      0.00333      0.01399         0.009299     -0.005239     -0.000396
      7.05353      1.42635      0.01368        -0.001535      0.004845     -0.003835
      8.28610      6.40752      0.01601         0.003064     -0.001511     -0.000806
     -4.03885      7.83070      0.01636        -0.002150      0.000867     -0.000096
      3.35586      6.40753      0.01007         0.005316      0.000609     -0.001296
      3.35599      7.83072      0.01320        -0.003293      0.000173     -0.000657
     -0.34146      4.27290      0.00723        -0.002074     -0.001307     -0.004587
     -0.34138      5.69591      0.00946        -0.009149      0.006491     -0.001138
      3.35624      2.13791      0.00222        -0.013458      0.011858      0.015753
      3.35573      3.56155      0.00139         0.013497     -0.015749      0.008234
     -1.57395      6.40758      0.01311         0.005497     -0.003957     -0.000625
     -1.57385      7.83068      0.01438        -0.004756      0.003704      0.000031
      5.82093      2.13784      0.01033         0.016398      0.005092     -0.003006
      5.82114      3.56097      0.01156        -0.006144      0.008422     -0.003722
      0.89092      6.40755      0.00907         0.004378      0.002342     -0.002308
      0.89106      7.83068      0.01235        -0.006908      0.003862      0.000324
      4.58871      4.27293      0.00850        -0.012730     -0.006417     -0.010858
      4.58852      5.69606      0.01149         0.001905     -0.000876     -0.003973
      9.51845      0.00337      0.01490         0.004647     -0.004606      0.000165
      9.51855      1.42644      0.01438        -0.005157      0.005483     -0.000336
      8.28593      2.13803      0.01453         0.006671     -0.003447      0.000579
      8.28613      3.56115      0.01464        -0.004229      0.002157     -0.000065
      7.05356      4.27269      0.01457         0.002861     -0.001083     -0.000658
      7.05362      5.69588      0.01553        -0.002390      0.001539     -0.000098
      5.82112      6.40755      0.01489        -0.002837      0.001651     -0.000082
      5.82102      7.83073      0.01579         0.002653      0.000370     -0.000292
      7.05363      8.54227      0.01631        -0.004613      0.001172      0.001069
     -5.27149      9.96549      0.01495        -0.000057     -0.002109     -0.002146
     -2.80638      8.54234      0.01558         0.003249     -0.001542     -0.001197
     -2.80627      9.96553      0.01362        -0.006601     -0.000224     -0.003818
     -0.34149      8.54239      0.01378         0.005816     -0.004846      0.000221
     -0.34138      9.96550      0.01354        -0.005744     -0.000149     -0.001306
      2.12343      8.54232      0.01336         0.005750     -0.001500      0.000754
      2.12354      9.96544      0.01469        -0.005249      0.003853     -0.001898
      4.58846      8.54235      0.01505         0.003642     -0.002789      0.000982
      4.58853      9.96550      0.01517        -0.002943      0.003384      0.000142
      3.04930      2.68154      6.67420        -0.006407      0.005244      0.034081
      4.02070      2.02068      6.73862        -0.526967      0.358049     -0.050966
      2.07767      3.34267      6.61474         0.533902     -0.363806      0.016455
 -----------------------------------------------------------------------------------
    total drift:                                0.000573     -0.000471      0.000547


--------------------------------------------------------------------------------------------------------



  FREE ENERGIE OF THE ION-ELECTRON SYSTEM (eV)
  ---------------------------------------------------
  free  energy   TOTEN  =      -484.76818169 eV

  energy  without entropy=     -484.76818169  energy(sigma->0) =     -484.76818169
 


--------------------------------------------------------------------------------------------------------


    POTLOK:  cpu time    0.2801: real time    0.2821


--------------------------------------------------------------------------------------------------------


     LOOP+:  cpu time  108.2077: real time  109.7584
    4ORBIT:  cpu time    0.0000: real time    0.0000

 total amount of memory used by VASP MPI-rank0   175916. kBytes
=======================================================================

   base      :      30000. kBytes
   nonl-proj :      46129. kBytes
   fftplans  :      35778. kBytes
   grid      :      52596. kBytes
   one-center:         43. kBytes
   wavefun   :      11370. kBytes
 
  
  
 General timing and accounting informations for this job:
 ========================================================
  
                  Total CPU time used (sec):      145.004
                            User time (sec):      134.099
                          System time (sec):       10.904
                         Elapsed time (sec):      148.072
  
                   Maximum memory used (kb):      509992.
                   Average memory used (kb):          N/A
  
                          Minor page faults:        51038
                          Major page faults:           89
                 Voluntary context switches:         3493
