 vasp.6.2.1 16May21 (build Nov 06 2021 14:46:37) complex                        
  
 executed on             LinuxIFC date 2025.04.16  21:35:34
 running on  112 total cores
 distrk:  each k-point on   56 cores,    2 groups
 distr:  one band on NCORE=   1 cores,   56 groups


--------------------------------------------------------------------------------------------------------


 INCAR:
   ALGO = Conjugate
   KPAR = 2
   NCORE = 32
   ISMEAR = 0
   SIGMA = 0.01
   PREC = Accurate
   EDIFF = 1E-7
   ENCUT = 1000
   ISIF = 0
   METAGGA = SCAN
   LUSE_VDW = .TRUE.
   BPARAM = 15.7
   LASPH = .TRUE.
   SYMPREC = 1E-7
   NELM = 200

 POTCAR:    PAW_PBE C_h 06Feb2004                 
 POTCAR:    PAW_PBE O_h 06Feb2004                 
 -----------------------------------------------------------------------------
|                                                                             |
|           W    W    AA    RRRRR   N    N  II  N    N   GGGG   !!!           |
|           W    W   A  A   R    R  NN   N  II  NN   N  G    G  !!!           |
|           W    W  A    A  R    R  N N  N  II  N N  N  G       !!!           |
|           W WW W  AAAAAA  RRRRR   N  N N  II  N  N N  G  GGG   !            |
|           WW  WW  A    A  R   R   N   NN  II  N   NN  G    G                |
|           W    W  A    A  R    R  N    N  II  N    N   GGGG   !!!           |
|                                                                             |
|     The value NCORE = 32 specified in the INCAR file was overwritten,       |
|     because it was not compatible with the 56 processes available:          |
|     NCORE = 1                                                               |
|     was used instead, please check that this makes sense for your           |
|     machine.                                                                |
|                                                                             |
 -----------------------------------------------------------------------------

 -----------------------------------------------------------------------------
|                                                                             |
|           W    W    AA    RRRRR   N    N  II  N    N   GGGG   !!!           |
|           W    W   A  A   R    R  NN   N  II  NN   N  G    G  !!!           |
|           W    W  A    A  R    R  N N  N  II  N N  N  G       !!!           |
|           W WW W  AAAAAA  RRRRR   N  N N  II  N  N N  G  GGG   !            |
|           WW  WW  A    A  R   R   N   NN  II  N   NN  G    G                |
|           W    W  A    A  R    R  N    N  II  N    N   GGGG   !!!           |
|                                                                             |
|     For optimal performance we recommend to set                             |
|       NCORE = 2 up to number-of-cores-per-socket                            |
|     NCORE specifies how many cores store one orbital (NPAR=cpu/NCORE).      |
|     This setting can greatly improve the performance of VASP for DFT.       |
|     The default, NCORE=1 might be grossly inefficient on modern             |
|     multi-core architectures or massively parallel machines. Do your        |
|     own testing! More info at https://www.vasp.at/wiki/index.php/NCORE      |
|     Unfortunately you need to use the default for GW and RPA                |
|     calculations (for HF NCORE is supported but not extensively tested      |
|     yet).                                                                   |
|                                                                             |
 -----------------------------------------------------------------------------

 -----------------------------------------------------------------------------
|                                                                             |
|               ----> ADVICE to this user running VASP <----                  |
|                                                                             |
|     You have switched on vdW-DFT.                                           |
|     This routine was written and supplied by Jiri Klimes. We recommend      |
|     that you carefully read and cite the following publications:            |
|       J. Klimes, D.R. Bowler, A. Michelides                                 |
|          J. Phys.: Cond Matt. 22 022201 (2010)                              |
|       J. Klimes, D.R. Bowler, A. Michelides                                 |
|          Phys. Rev. B. 83, 195131 (2011)                                    |
|     and references therein.                                                 |
|                                                                             |
 -----------------------------------------------------------------------------

 POTCAR:    PAW_PBE C_h 06Feb2004                 
   VRHFIN =C: s2p2                                                                                  
   LEXCH  = PE                                                                                      
   EATOM  =   147.1560 eV,   10.8157 Ry                                                             
                                                                                                    
   TITEL  = PAW_PBE C_h 06Feb2004                                                                   
   LULTRA =        F    use ultrasoft PP ?                                                          
   IUNSCR =        1    unscreen: 0-lin 1-nonlin 2-no                                               
   RPACOR =    0.800    partial core radius                                                         
   POMASS =   12.011; ZVAL   =    4.000    mass and valenz                                          
   RCORE  =    1.100    outmost cutoff radius                                                       
   RWIGS  =    1.630; RWIGS  =    0.863    wigner-seitz radius (au A)                               
   ENMAX  =  700.000; ENMIN  =  500.000 eV                                                          
   ICORE  =        2    local potential                                                             
   LCOR   =        T    correct aug charges                                                         
   LPAW   =        T    paw PP                                                                      
   EAUG   =  946.768                                                                                
   DEXC   =    0.000                                                                                
   RMAX   =    1.128    core radius for proj-oper                                                   
   RAUG   =    1.300    factor for augmentation sphere                                              
   RDEP   =    1.162    radius for radial grids                                                     
   RDEPT  =    1.088    core radius for aug-charge                                                  
                                                                                                    
   Atomic configuration                                                                             
    4 entries                                                                                       
     n  l   j            E        occ.                                                              
     1  0  0.50      -273.3789   2.0000                                                             
     2  0  0.50       -13.7508   2.0000                                                             
     2  1  0.50        -5.2854   2.0000                                                             
     3  2  1.50        -5.4423   0.0000                                                             
   Description                                                                                      
     l       E           TYP  RCUT    TYP  RCUT                                                     
     0    -13.7508458     23  1.100                                                                 
     0     -8.2022199     23  1.100                                                                 
     1     -5.2854383     23  1.100                                                                 
     1      1.1560700     23  1.100                                                                 
     2     -5.4423304      7  1.100                                                                 
  local pseudopotential read in
  partial core-charges read in
  partial kinetic energy density read in
  atomic valenz-charges read in
  non local Contribution for L=           0  read in
    real space projection operators read in
  non local Contribution for L=           0  read in
    real space projection operators read in
  non local Contribution for L=           1  read in
    real space projection operators read in
  non local Contribution for L=           1  read in
    real space projection operators read in
    PAW grid and wavefunctions read in
 
   number of l-projection  operators is LMAX  =           4
   number of lm-projection operators is LMMAX =           8
 
 POTCAR:    PAW_PBE O_h 06Feb2004                 
   VRHFIN =O: s2p4                                                                                  
   LEXCH  = PE                                                                                      
   EATOM  =   432.3788 eV,   31.7789 Ry                                                             
                                                                                                    
   TITEL  = PAW_PBE O_h 06Feb2004                                                                   
   LULTRA =        F    use ultrasoft PP ?                                                          
   IUNSCR =        1    unscreen: 0-lin 1-nonlin 2-no                                               
   RPACOR =    0.800    partial core radius                                                         
   POMASS =   16.000; ZVAL   =    6.000    mass and valenz                                          
   RCORE  =    1.100    outmost cutoff radius                                                       
   RWIGS  =    1.400; RWIGS  =    0.741    wigner-seitz radius (au A)                               
   ENMAX  =  700.000; ENMIN  =  500.000 eV                                                          
   ICORE  =        2    local potential                                                             
   LCOR   =        T    correct aug charges                                                         
   LPAW   =        T    paw PP                                                                      
   EAUG   =  888.804                                                                                
   DEXC   =    0.000                                                                                
   RMAX   =    1.128    core radius for proj-oper                                                   
   RAUG   =    1.300    factor for augmentation sphere                                              
   RDEP   =    1.125    radius for radial grids                                                     
   RDEPT  =    1.088    core radius for aug-charge                                                  
                                                                                                    
   Atomic configuration                                                                             
    4 entries                                                                                       
     n  l   j            E        occ.                                                              
     1  0  0.50      -514.6923   2.0000                                                             
     2  0  0.50       -23.9615   2.0000                                                             
     2  1  0.50        -9.0305   4.0000                                                             
     3  2  1.50        -9.5241   0.0000                                                             
   Description                                                                                      
     l       E           TYP  RCUT    TYP  RCUT                                                     
     0    -23.9615319     23  1.100                                                                 
     0    -25.3221145     23  1.100                                                                 
     1     -9.0304911     23  1.100                                                                 
     1     -5.4802209     23  1.100                                                                 
     2     -9.5240782      7  1.100                                                                 
  local pseudopotential read in
  partial core-charges read in
  partial kinetic energy density read in
  atomic valenz-charges read in
  non local Contribution for L=           0  read in
    real space projection operators read in
  non local Contribution for L=           0  read in
    real space projection operators read in
  non local Contribution for L=           1  read in
    real space projection operators read in
  non local Contribution for L=           1  read in
    real space projection operators read in
    PAW grid and wavefunctions read in
 
   number of l-projection  operators is LMAX  =           4
   number of lm-projection operators is LMMAX =           8
 
 -----------------------------------------------------------------------------
|                                                                             |
|               ----> ADVICE to this user running VASP <----                  |
|                                                                             |
|     You have a (more or less) 'large supercell' and for larger cells it     |
|     might be more efficient to use real-space projection operators.         |
|     Therefore, try LREAL= Auto in the INCAR file.                           |
|     Mind: For very accurate calculation, you might also keep the            |
|     reciprocal projection scheme (i.e. LREAL=.FALSE.).                      |
|                                                                             |
 -----------------------------------------------------------------------------

  PAW_PBE C_h 06Feb2004                 :
 energy of atom  1       EATOM= -147.1560
 kinetic energy error for atom=    0.0031 (will be added to EATOM!!)
  PAW_PBE O_h 06Feb2004                 :
 energy of atom  2       EATOM= -432.3788
 kinetic energy error for atom=    0.0171 (will be added to EATOM!!)
 
 
 POSCAR:  C  O
  positions in cartesian coordinates
  No initial velocities read in

 METAGGA = SCAN     LMAXTAU =  6    LMIXTAU =  F

 exchange correlation table for  LEXCH =        8
   RHO(1)=    0.500       N(1)  =     2000
   RHO(2)=  100.500       N(2)  =     4000
 


--------------------------------------------------------------------------------------------------------


 ion  position               nearest neighbor table
   1  0.972  0.000  0.001-  50 1.42   2 1.42  42 1.42
   2  0.039  0.134  0.000-   5 1.42   7 1.42   1 1.42
   3  0.172  0.000  0.000-  42 1.42  44 1.42   4 1.42
   4  0.239  0.134  0.000-   7 1.42   3 1.42  23 1.42
   5  0.972  0.200  0.000-   6 1.42   2 1.42  34 1.42
   6  0.039  0.334  0.000-   5 1.42  21 1.42  11 1.42
   7  0.172  0.200  0.000-   8 1.42   2 1.42   4 1.42
   8  0.239  0.334  0.000-  13 1.42   7 1.42  21 1.42
   9  0.372  0.000  0.000-  10 1.42  44 1.42  46 1.42
  10  0.439  0.134  0.000-  27 1.42   9 1.42  23 1.42
  11  0.972  0.400  0.001-  12 1.42  36 1.42   6 1.42
  12  0.039  0.534  0.001-  25 1.42  11 1.42  17 1.42
  13  0.372  0.400  0.000-   8 1.42  14 1.42  24 1.42
  14  0.439  0.534  0.000-  13 1.42  29 1.42  19 1.42
  15  0.572  0.000  0.001-  46 1.42  16 1.42  48 1.42
  16  0.639  0.134  0.001-  15 1.42  35 1.42  27 1.42
  17  0.972  0.600  0.001-  38 1.42  18 1.42  12 1.42
  18  0.039  0.734  0.001-  43 1.42  41 1.42  17 1.42
  19  0.572  0.600  0.000-  14 1.42  20 1.42  32 1.42
  20  0.639  0.734  0.001-  49 1.42  19 1.42  47 1.42
  21  0.172  0.400  0.000-  22 1.42   8 1.42   6 1.42
  22  0.239  0.534  0.000-  21 1.42  29 1.42  25 1.42
  23  0.372  0.200  0.000-  10 1.42   4 1.42  24 1.42
  24  0.439  0.334  0.000-  13 1.42  31 1.42  23 1.42
  25  0.172  0.600  0.001-  26 1.42  12 1.42  22 1.42
  26  0.239  0.734  0.001-  25 1.42  45 1.42  43 1.42
  27  0.572  0.200  0.000-  10 1.42  28 1.42  16 1.42
  28  0.639  0.334  0.000-  27 1.42  37 1.42  31 1.42
  29  0.372  0.600  0.000-  22 1.42  14 1.42  30 1.42
  30  0.439  0.734  0.000-  47 1.42  29 1.42  45 1.42
  31  0.572  0.400  0.000-  32 1.42  28 1.42  24 1.42
  32  0.639  0.534  0.000-  31 1.42  39 1.42  19 1.42
  33  0.772  0.000  0.001-  34 1.42  48 1.42  50 1.42
  34  0.839  0.134  0.001-  33 1.42   5 1.42  35 1.42
  35  0.772  0.200  0.001-  36 1.42  16 1.42  34 1.42
  36  0.839  0.334  0.001-  35 1.42  11 1.42  37 1.42
  37  0.772  0.400  0.001-  28 1.42  38 1.42  36 1.42
  38  0.839  0.534  0.001-  17 1.42  37 1.42  39 1.42
  39  0.772  0.600  0.001-  40 1.42  38 1.42  32 1.42
  40  0.839  0.734  0.001-  39 1.42  49 1.42  41 1.42
  41  0.972  0.800  0.001-  18 1.42  42 1.42  40 1.42
  42  0.039  0.934  0.001-   3 1.42  41 1.42   1 1.42
  43  0.172  0.800  0.001-  18 1.42  44 1.42  26 1.42
  44  0.239  0.934  0.001-   9 1.42  43 1.42   3 1.42
  45  0.372  0.800  0.001-  26 1.42  46 1.42  30 1.42
  46  0.439  0.934  0.001-  15 1.42  45 1.42   9 1.42
  47  0.572  0.800  0.001-  30 1.42  48 1.42  20 1.42
  48  0.639  0.934  0.001-  47 1.42  33 1.42  15 1.42
  49  0.772  0.800  0.001-  50 1.42  20 1.42  40 1.42
  50  0.839  0.934  0.001-  49 1.42   1 1.42  33 1.42
  51  0.373  0.251  0.178-  52 1.18  53 1.18
  52  0.421  0.189  0.181-  51 1.18
  53  0.325  0.313  0.176-  51 1.18
 
  LATTYP: Found a hexagonal cell.
 ALAT       =    12.3250000000
 C/A-ratio  =     2.0283975659
  
  Lattice vectors:
  
 A1 = (  12.3250000000,   0.0000000000,   0.0000000000)
 A2 = (  -6.1625000000,  10.6737631016,   0.0000000000)
 A3 = (   0.0000000000,   0.0000000000,  25.0000000000)


Analysis of symmetry for initial positions (statically):
=====================================================================
 Subroutine PRICEL returns:
 Original cell was already a primitive cell.
 

 Routine SETGRP: Setting up the symmetry group for a 
 hexagonal supercell.


 Subroutine GETGRP returns: Found  1 space group operations
 (whereof  1 operations were pure point group operations)
 out of a pool of 24 trial point group operations.


The static configuration has the point symmetry C_1 .


Analysis of symmetry for dynamics (positions and initial velocities):
=====================================================================
 Subroutine PRICEL returns:
 Original cell was already a primitive cell.
 

 Routine SETGRP: Setting up the symmetry group for a 
 hexagonal supercell.


 Subroutine GETGRP returns: Found  1 space group operations
 (whereof  1 operations were pure point group operations)
 out of a pool of 24 trial point group operations.


The dynamic configuration has the point symmetry C_1 .


 Subroutine INISYM returns: Found  1 space group operations
 (whereof  1 operations are pure point group operations),
 and found     1 'primitive' translations


----------------------------------------------------------------------------------------

                                     Primitive cell                                     

  volume of cell :    3288.8533

  direct lattice vectors                    reciprocal lattice vectors
    12.325000000  0.000000000  0.000000000     0.081135903  0.046843835  0.000000000
    -6.162500000 10.673763102  0.000000000     0.000000000  0.093687670  0.000000000
     0.000000000  0.000000000 25.000000000     0.000000000  0.000000000  0.040000000

  length of vectors
    12.325000000 12.325000000 25.000000000     0.093687670  0.093687670  0.040000000

  position of ions in fractional coordinates (direct lattice)
     0.972450841  0.000320818  0.000566711
     0.039118382  0.133659505  0.000440173
     0.172443627  0.000295449  0.000499628
     0.239096278  0.133647917  0.000256468
     0.972452058  0.200322012  0.000485219
     0.039128360  0.333643771  0.000444150
     0.172451764  0.200354552  0.000219167
     0.239124359  0.333665720  0.000072260
     0.372465565  0.000324403  0.000453913
     0.439137473  0.133619939  0.000258338
     0.972449824  0.400309362  0.000547611
     0.039124981  0.533636789  0.000573410
     0.372416176  0.400329481  0.000000000
     0.439099602  0.533638981  0.000232414
     0.572443676  0.000312125  0.000559580
     0.639110207  0.133631751  0.000547275
     0.972452703  0.600305653  0.000640289
     0.039124495  0.733640359  0.000654513
     0.572433471  0.600306242  0.000402895
     0.639111888  0.733641879  0.000527905
     0.172454630  0.400318228  0.000289045
     0.239120185  0.533636548  0.000378509
     0.372459750  0.200295993  0.000088997
     0.439107096  0.333673419  0.000055762
     0.172452155  0.600311506  0.000524340
     0.239123371  0.733638574  0.000575129
     0.572431082  0.200289171  0.000413296
     0.639112773  0.333618630  0.000462376
     0.372439808  0.600308022  0.000362844
     0.439116090  0.733637858  0.000494190
     0.572469358  0.400320504  0.000339918
     0.639119408  0.533650873  0.000459610
     0.772445723  0.000315427  0.000596161
     0.839116277  0.133640203  0.000575306
     0.772440513  0.200307432  0.000581033
     0.839120241  0.333635728  0.000585467
     0.772446320  0.400298367  0.000582978
     0.839118980  0.533633964  0.000621100
     0.772456143  0.600308173  0.000595712
     0.839115033  0.733643180  0.000631512
     0.972455313  0.800305582  0.000652233
     0.039114714  0.933643289  0.000598051
     0.172457971  0.800312211  0.000623372
     0.239134551  0.933647193  0.000544850
     0.372451396  0.800316674  0.000551399
     0.439124489  0.933644769  0.000541430
     0.572441101  0.800310054  0.000534535
     0.639115067  0.933638985  0.000587644
     0.772445098  0.800313187  0.000602062
     0.839116614  0.933644338  0.000606830
     0.373021009  0.251226878  0.178179744
     0.420879805  0.189313152  0.180756618
     0.325156981  0.313167186  0.175801549

  ion indices of the primitive-cell ions
   primitive index   ion index
                 1           1
                 2           2
                 3           3
                 4           4
                 5           5
                 6           6
                 7           7
                 8           8
                 9           9
                10          10
                11          11
                12          12
                13          13
                14          14
                15          15
                16          16
                17          17
                18          18
                19          19
                20          20
                21          21
                22          22
                23          23
                24          24
                25          25
                26          26
                27          27
                28          28
                29          29
                30          30
                31          31
                32          32
                33          33
                34          34
                35          35
                36          36
                37          37
                38          38
                39          39
                40          40
                41          41
                42          42
                43          43
                44          44
                45          45
                46          46
                47          47
                48          48
                49          49
                50          50
                51          51
                52          52
                53          53

----------------------------------------------------------------------------------------

 
 
 KPOINTS: auto                                    

Automatic generation of k-mesh.
 Grid dimensions read from file:
 generate k-points for:    1    1    1

 Generating k-lattice:

  Cartesian coordinates                     Fractional coordinates (reciprocal lattice)
     0.081135903  0.046843835  0.000000000     1.000000000 -0.000000000  0.000000000
     0.000000000  0.093687670  0.000000000     0.000000000  1.000000000  0.000000000
     0.000000000  0.000000000  0.040000000     0.000000000  0.000000000  1.000000000

  Length of vectors
     0.093687670  0.093687670  0.040000000

  Shift w.r.t. Gamma in fractional coordinates (k-lattice)
     0.000000000  0.000000000  0.000000000

 
 Subroutine IBZKPT returns following result:
 ===========================================
 
 Found      1 irreducible k-points:
 
 Following reciprocal coordinates:
            Coordinates               Weight
  0.000000  0.000000  0.000000      1.000000
 
 Following cartesian coordinates:
            Coordinates               Weight
  0.000000  0.000000  0.000000      1.000000
 


--------------------------------------------------------------------------------------------------------




 Dimension of arrays:
   k-points           NKPTS =      1   k-points in BZ     NKDIM =      1   number of bands    NBANDS=    168
   number of dos      NEDOS =    301   number of ions     NIONS =     53
   non local maximal  LDIM  =      4   non local SUM 2l+1 LMDIM =      8
   total plane-waves  NPLWV = ******
   max r-space proj   IRMAX =      1   max aug-charges    IRDMAX=  10008
   dimension x,y,z NGX =   128 NGY =  128 NGZ =  270
   dimension x,y,z NGXF=   256 NGYF=  256 NGZF=  540
   support grid    NGXF=   256 NGYF=  256 NGZF=  540
   ions per type =              51   2
   NGX,Y,Z   is equivalent  to a cutoff of  17.27, 17.27, 17.95 a.u.
   NGXF,Y,Z  is equivalent  to a cutoff of  34.53, 34.53, 35.91 a.u.

 SYSTEM =  unknown system                          
 POSCAR =   C  O                                   

 Startparameter for this run:
   NWRITE =      2    write-flag & timer
   PREC   = accura    normal or accurate (medium, high low for compatibility)
   ISTART =      0    job   : 0-new  1-cont  2-samecut
   ICHARG =      2    charge: 1-file 2-atom 10-const
   ISPIN  =      1    spin polarized calculation?
   LNONCOLLINEAR =      F non collinear calculations
   LSORBIT =      F    spin-orbit coupling
   INIWAV =      1    electr: 0-lowe 1-rand  2-diag
   LASPH  =      T    aspherical Exc in radial PAW
 Electronic Relaxation 1
   ENCUT  = 1000.0 eV  73.50 Ry    8.57 a.u.  31.78 31.78 64.46*2*pi/ulx,y,z
   ENINI  = 1000.0     initial cutoff
   ENAUG  =  946.8 eV  augmentation charge cutoff
   NELM   =    200;   NELMIN=  2; NELMDL= -5     # of ELM steps 
   EDIFF  = 0.1E-06   stopping-criterion for ELM
   LREAL  =      F    real-space projection
   NLSPLINE    = F    spline interpolate recip. space projectors
   LCOMPAT=      F    compatible to vasp.4.4
   GGA_COMPAT  = T    GGA compatible to vasp.4.4-vasp.4.6
   LMAXPAW     = -100 max onsite density
   LMAXMIX     =    2 max onsite mixed and CHGCAR
   VOSKOWN=      0    Vosko Wilk Nusair interpolation
   ROPT   =    0.00000   0.00000
 Ionic relaxation
   EDIFFG = 0.1E-05   stopping-criterion for IOM
   NSW    =      0    number of steps for IOM
   NBLOCK =      1;   KBLOCK =      1    inner block; outer block 
   IBRION =     -1    ionic relax: 0-MD 1-quasi-New 2-CG
   NFREE  =      0    steps in history (QN), initial steepest desc. (CG)
   ISIF   =      0    stress and relaxation
   IWAVPR =     10    prediction:  0-non 1-charg 2-wave 3-comb
   ISYM   =      2    0-nonsym 1-usesym 2-fastsym
   LCORR  =      T    Harris-Foulkes like correction to forces

   POTIM  = 0.5000    time-step for ionic-motion
   TEIN   =    0.0    initial temperature
   TEBEG  =    0.0;   TEEND  =   0.0 temperature during run
   SMASS  =  -3.00    Nose mass-parameter (am)
   estimated Nose-frequenzy (Omega)   =  0.10E-29 period in steps = 0.13E+47 mass=  -0.347E-26a.u.
   SCALEE = 1.0000    scale energy and forces
   NPACO  =    256;   APACO  = 16.0  distance and # of slots for P.C.
   PSTRESS=    0.0 pullay stress

  Mass of Ions in am
   POMASS =  12.01 16.00
  Ionic Valenz
   ZVAL   =   4.00  6.00
  Atomic Wigner-Seitz radii
   RWIGS  =  -1.00 -1.00
  virtual crystal weights 
   VCA    =   1.00  1.00
   NELECT =     216.0000    total number of electrons
   NUPDOWN=      -1.0000    fix difference up-down

 DOS related values:
   EMIN   =  10.00;   EMAX   =-10.00  energy-range for DOS
   EFERMI =   0.00
   ISMEAR =     0;   SIGMA  =   0.01  broadening in eV -4-tet -1-fermi 0-gaus

 Electronic relaxation 2 (details)
   IALGO  =     58    algorithm
   LDIAG  =      T    sub-space diagonalisation (order eigenvalues)
   LSUBROT=      F    optimize rotation matrix (better conditioning)
   TURBO    =      0    0=normal 1=particle mesh
   IRESTART =      0    0=no restart 2=restart with 2 vectors
   NREBOOT  =      0    no. of reboots
   NMIN     =      0    reboot dimension
   EREF     =   0.00    reference energy to select bands
   IMIX   =      4    mixing-type and parameters
     AMIX     =   0.40;   BMIX     =  1.00
     AMIX_MAG =   1.60;   BMIX_MAG =  1.00
     AMIN     =   0.10
     WC   =   100.;   INIMIX=   1;  MIXPRE=   1;  MAXMIX= -45

 Intra band minimization:
   WEIMIN = 0.0000     energy-eigenvalue tresh-hold
   EBREAK =  0.15E-09  absolut break condition
   DEPER  =   0.30     relativ break condition  

   TIME   =   0.40     timestep for ELM

  volume/ion in A,a.u.               =      62.05       418.76
  Fermi-wavevector in a.u.,A,eV,Ry     =   0.660508  1.248179  5.935820  0.436270
  Thomas-Fermi vector in A             =   1.732977
 
 Write flags
   LWAVE        =      T    write WAVECAR
   LDOWNSAMPLE  =      F    k-point downsampling of WAVECAR
   LCHARG       =      T    write CHGCAR
   LVTOT        =      F    write LOCPOT, total local potential
   LVHAR        =      F    write LOCPOT, Hartree potential only
   LELF         =      F    write electronic localiz. function (ELF)
   LORBIT       =      0    0 simple, 1 ext, 2 COOP (PROOUT), +10 PAW based schemes


 Dipole corrections
   LMONO  =      F    monopole corrections only (constant potential shift)
   LDIPOL =      F    correct potential (dipole corrections)
   IDIPOL =      0    1-x, 2-y, 3-z, 4-all directions 
   EPSILON=  1.0000000 bulk dielectric constant

 Exchange correlation treatment:
   GGA     =    --    GGA type
   LEXCH   =     8    internal setting for exchange type
   VOSKOWN=      0    Vosko Wilk Nusair interpolation
   LHFCALC =     F    Hartree Fock is set to
   LHFONE  =     F    Hartree Fock one center treatment
   AEXX    =    0.0000 exact exchange contribution

 vdW DFT:
   LUSE_VDW   =     T    switch on vdW DFT
   Zab_VDW    =-.8491    correlation parameter
   PARAM1     =0.1234
   PARAM2     =1.0000
   PARAM3     =0.0000
   -- rVV10 --
   BPARAM     =15.7000
   CPARAM     = 0.0093

 Linear response parameters
   LEPSILON=     F    determine dielectric tensor
   LRPA    =     F    only Hartree local field effects (RPA)
   LNABLA  =     F    use nabla operator in PAW spheres
   LVEL    =     F    velocity operator in full k-point grid
   LINTERFAST=   F  fast interpolation
   KINTER  =     0    interpolate to denser k-point grid
   CSHIFT  =0.1000    complex shift for real part using Kramers Kronig
   OMEGAMAX=  -1.0    maximum frequency
   DEG_THRESHOLD= 0.2000000E-02 threshold for treating states as degnerate
   RTIME   =   -0.100 relaxation time in fs
  (WPLASMAI=    0.000 imaginary part of plasma frequency in eV, 0.658/RTIME)
   DFIELD  = 0.0000000 0.0000000 0.0000000 field for delta impulse in time
 
 Orbital magnetization related:
   ORBITALMAG=     F  switch on orbital magnetization
   LCHIMAG   =     F  perturbation theory with respect to B field
   DQ        =  0.001000  dq finite difference perturbation B field
   LLRAUG    =     F  two centre corrections for induced B field



--------------------------------------------------------------------------------------------------------


 Static calculation
 charge density and potential will be updated during run
 non-spin polarized calculation
 Conjugate gradient for all bands (Freysoldt, et al. PRB 79, 241103 (2009))
 preconditioned conjugated gradient                                        
 perform sub-space diagonalisation
    before iterative eigenvector-optimisation
 modified Broyden-mixing scheme, WC =      100.0
 initial mixing is a Kerker type mixing with AMIX =  0.4000 and BMIX =      1.0000
 Hartree-type preconditioning will be used
 using additional bands           60
 reciprocal scheme for non local part
 use partial core corrections
 no Harris-corrections to forces 
 use gradient corrections 
 use of overlap-Matrix (Vanderbilt PP)
 Gauss-broadening in eV      SIGMA  =   0.01


--------------------------------------------------------------------------------------------------------


  energy-cutoff  :     1000.00
  volume of cell :     3288.85
      direct lattice vectors                 reciprocal lattice vectors
    12.325000000  0.000000000  0.000000000     0.081135903  0.046843835  0.000000000
    -6.162500000 10.673763102  0.000000000     0.000000000  0.093687670  0.000000000
     0.000000000  0.000000000 25.000000000     0.000000000  0.000000000  0.040000000

  length of vectors
    12.325000000 12.325000000 25.000000000     0.093687670  0.093687670  0.040000000


 
 k-points in units of 2pi/SCALE and weight: auto                                    
   0.00000000  0.00000000  0.00000000       1.000
 
 k-points in reciprocal lattice and weights: auto                                    
   0.00000000  0.00000000  0.00000000       1.000
 
 position of ions in fractional coordinates (direct lattice) 
   0.97245084  0.00032082  0.00056671
   0.03911838  0.13365950  0.00044017
   0.17244363  0.00029545  0.00049963
   0.23909628  0.13364792  0.00025647
   0.97245206  0.20032201  0.00048522
   0.03912836  0.33364377  0.00044415
   0.17245176  0.20035455  0.00021917
   0.23912436  0.33366572  0.00007226
   0.37246557  0.00032440  0.00045391
   0.43913747  0.13361994  0.00025834
   0.97244982  0.40030936  0.00054761
   0.03912498  0.53363679  0.00057341
   0.37241618  0.40032948  0.00000000
   0.43909960  0.53363898  0.00023241
   0.57244368  0.00031213  0.00055958
   0.63911021  0.13363175  0.00054727
   0.97245270  0.60030565  0.00064029
   0.03912449  0.73364036  0.00065451
   0.57243347  0.60030624  0.00040289
   0.63911189  0.73364188  0.00052791
   0.17245463  0.40031823  0.00028904
   0.23912018  0.53363655  0.00037851
   0.37245975  0.20029599  0.00008900
   0.43910710  0.33367342  0.00005576
   0.17245216  0.60031151  0.00052434
   0.23912337  0.73363857  0.00057513
   0.57243108  0.20028917  0.00041330
   0.63911277  0.33361863  0.00046238
   0.37243981  0.60030802  0.00036284
   0.43911609  0.73363786  0.00049419
   0.57246936  0.40032050  0.00033992
   0.63911941  0.53365087  0.00045961
   0.77244572  0.00031543  0.00059616
   0.83911628  0.13364020  0.00057531
   0.77244051  0.20030743  0.00058103
   0.83912024  0.33363573  0.00058547
   0.77244632  0.40029837  0.00058298
   0.83911898  0.53363396  0.00062110
   0.77245614  0.60030817  0.00059571
   0.83911503  0.73364318  0.00063151
   0.97245531  0.80030558  0.00065223
   0.03911471  0.93364329  0.00059805
   0.17245797  0.80031221  0.00062337
   0.23913455  0.93364719  0.00054485
   0.37245140  0.80031667  0.00055140
   0.43912449  0.93364477  0.00054143
   0.57244110  0.80031005  0.00053453
   0.63911507  0.93363899  0.00058764
   0.77244510  0.80031319  0.00060206
   0.83911661  0.93364434  0.00060683
   0.37302101  0.25122688  0.17817974
   0.42087980  0.18931315  0.18075662
   0.32515698  0.31316719  0.17580155
 
 position of ions in cartesian coordinates  (Angst):
  11.98347958  0.00342433  0.01416777
  -0.34154264  1.42664989  0.01100432
   2.12354700  0.00315355  0.01249070
   2.12325634  1.42652621  0.00641170
  10.75098721  2.13818970  0.01213047
  -1.57382270  3.56123457  0.01110375
   0.89078307  2.13853702  0.00547917
   0.89099273  3.56146885  0.00180651
   4.58863896  0.00346260  0.01134782
   4.58893648  1.42622757  0.00645846
   9.51853763  4.27280730  0.01369027
  -2.80632132  5.69591267  0.01433526
   2.12299894  4.27302204  0.00000000
   2.12335237  5.69593607  0.00581036
   7.05344483  0.00333155  0.01398950
   7.05352764  1.42635365  0.01368187
   8.28609598  6.40752033  0.01600723
  -4.03884931  7.83070339  0.01636283
   3.35585531  6.40752662  0.01007237
   3.35598594  7.83071962  0.01319763
  -0.34145776  4.27290193  0.00722612
  -0.34137895  5.69591010  0.00946273
   3.35624236  2.13791198  0.00222492
   3.35573251  3.56155103  0.00139405
  -1.57394684  6.40758280  0.01310850
  -1.57385216  7.83068434  0.01437823
   5.82093107  2.13783916  0.01033241
   5.82114012  3.56096622  0.01155939
   0.89092245  6.40754561  0.00907111
   0.89106251  7.83067670  0.01235474
   4.58870974  4.27292622  0.00849795
   4.58852320  5.69606300  0.01149026
   9.51844972  0.00336679  0.01490402
   9.51855036  1.42644387  0.01438264
   8.28593477  2.13803408  0.01452582
   8.28612680  3.56114872  0.01463668
   7.05356221  4.27268994  0.01457444
   7.05362213  5.69588251  0.01552751
   5.82112285  6.40754723  0.01489279
   5.82101669  7.83073350  0.01578780
   7.05362858  8.54227219  0.01630582
  -5.27148792  9.96548729  0.01495127
  -2.80637951  8.54234295  0.01558431
  -2.80626749  9.96552896  0.01362126
  -0.34148805  8.54239058  0.01378498
  -0.34137657  9.96550309  0.01353576
   2.12342586  8.54231992  0.01336337
   2.12354296  9.96544135  0.01469111
   4.58845581  8.54235337  0.01505154
   4.58852904  9.96549848  0.01517076
   3.04929830  2.68153618  4.45449359
   4.02070129  2.02068374  4.51891545
   2.07766701  3.34267235  4.39503872
 


--------------------------------------------------------------------------------------------------------


 k-point   1 :   0.0000 0.0000 0.0000  plane waves:  236157

 maximum and minimum number of plane-waves per node :    236157   236157

 maximum number of plane-waves:    236157
 maximum index in each direction: 
   IXMAX=   31   IYMAX=   31   IZMAX=   64
   IXMIN=  -31   IYMIN=  -31   IZMIN=  -64


 serial   3D FFT for wavefunctions
 parallel 3D FFT for charge:
    minimum data exchange during FFTs selected (reduces bandwidth)


 total amount of memory used by VASP MPI-rank0   698619. kBytes
=======================================================================

   base      :      30000. kBytes
   nonl-proj :     230539. kBytes
   fftplans  :      40716. kBytes
   grid      :     363125. kBytes
   one-center:        162. kBytes
   wavefun   :      34077. kBytes
 
     INWAV:  cpu time    0.0000: real time    0.0000
 Broyden mixing: mesh for mixing (old mesh)
   NGX = 63   NGY = 63   NGZ =129
  (NGX  =256   NGY  =256   NGZ  =540)
  gives a total of 512001 points

 initial charge density was supplied:
 charge density of overlapping atoms calculated
 number of electron     216.0000000 magnetization 
 keeping initial charge density in first step


--------------------------------------------------------------------------------------------------------


 Maximum index for augmentation-charges          471 (set IRDMAX)


--------------------------------------------------------------------------------------------------------


 First call to EWALD:  gamma=   0.119
 Maximum number of real-space cells 4x 4x 2
 Maximum number of reciprocal cells 2x 2x 4

    FEWALD:  cpu time    0.0023: real time    0.0023


--------------------------------------- Iteration      1(   1)  ---------------------------------------


    POTLOK:  cpu time    8.4750: real time    8.5307
    SETDIJ:  cpu time    0.0030: real time    0.0031
    TRIAL :  cpu time   31.5562: real time   31.8478
    CORREC:  cpu time    0.0006: real time    0.0008
    --------------------------------------------
      LOOP:  cpu time   40.0469: real time   40.4071

 eigenvalue-minimisations  :   336
 total energy-change (2. order) : 0.2534152E+04  (-0.1080324E+05)
 number of electron     216.0000000 magnetization 
 augmentation part      216.0000000 magnetization 

 Free energy of the ion-electron system (eV)
  ---------------------------------------------------
  alpha Z        PSCENC =        47.94900195
  Ewald energy   TEWEN  =     45539.65285635
  -Hartree energ DENC   =    -51608.79285844
  -exchange      EXHF   =         0.00000000
  -V(xc)+E(xc)   XCENC  =       604.28825132
  PAW double counting   =      6339.73130699    -6197.22120962
  entropy T*S    EENTRO =        -0.00103626
  eigenvalues    EBANDS =      -560.97756900
  atomic energy  EATOM  =      8369.52358910
  ---------------------------------------------------
  free energy    TOTEN  =      2534.15233239 eV

  energy without entropy =     2534.15336865  energy(sigma->0) =     2534.15285052


--------------------------------------------------------------------------------------------------------




--------------------------------------- Iteration      1(   2)  ---------------------------------------


    TRIAL :  cpu time   51.5127: real time   51.9818
    CORREC:  cpu time    0.0001: real time    0.0003
    --------------------------------------------
      LOOP:  cpu time   51.5266: real time   51.9975

 eigenvalue-minimisations  :   672
 total energy-change (2. order) :-0.2526984E+04  (-0.2402693E+04)
 number of electron     216.0000000 magnetization 
 augmentation part      216.0000000 magnetization 

 Free energy of the ion-electron system (eV)
  ---------------------------------------------------
  alpha Z        PSCENC =        47.94900195
  Ewald energy   TEWEN  =     45539.65285635
  -Hartree energ DENC   =    -51608.79285844
  -exchange      EXHF   =         0.00000000
  -V(xc)+E(xc)   XCENC  =       604.28825132
  PAW double counting   =      6339.73130699    -6197.22120962
  entropy T*S    EENTRO =        -0.00000000
  eigenvalues    EBANDS =     -3087.96275220
  atomic energy  EATOM  =      8369.52358910
  ---------------------------------------------------
  free energy    TOTEN  =         7.16818545 eV

  energy without entropy =        7.16818545  energy(sigma->0) =        7.16818545


--------------------------------------------------------------------------------------------------------




--------------------------------------- Iteration      1(   3)  ---------------------------------------


    TRIAL :  cpu time   34.8537: real time   35.1219
    CORREC:  cpu time    0.0001: real time    0.0003
    --------------------------------------------
      LOOP:  cpu time   34.9279: real time   35.1981

 eigenvalue-minimisations  :   392
 total energy-change (2. order) :-0.5913007E+03  (-0.5883899E+03)
 number of electron     216.0000000 magnetization 
 augmentation part      216.0000000 magnetization 

 Free energy of the ion-electron system (eV)
  ---------------------------------------------------
  alpha Z        PSCENC =        47.94900195
  Ewald energy   TEWEN  =     45539.65285635
  -Hartree energ DENC   =    -51608.79285844
  -exchange      EXHF   =         0.00000000
  -V(xc)+E(xc)   XCENC  =       604.28825132
  PAW double counting   =      6339.73130699    -6197.22120962
  entropy T*S    EENTRO =        -0.00000000
  eigenvalues    EBANDS =     -3679.26341698
  atomic energy  EATOM  =      8369.52358910
  ---------------------------------------------------
  free energy    TOTEN  =      -584.13247933 eV

  energy without entropy =     -584.13247933  energy(sigma->0) =     -584.13247933


--------------------------------------------------------------------------------------------------------




--------------------------------------- Iteration      1(   4)  ---------------------------------------


    TRIAL :  cpu time   38.2211: real time   38.5146
    CORREC:  cpu time    0.0001: real time    0.0001
    --------------------------------------------
      LOOP:  cpu time   38.2512: real time   38.5515

 eigenvalue-minimisations  :   448
 total energy-change (2. order) :-0.3016744E+02  (-0.2993173E+02)
 number of electron     216.0000000 magnetization 
 augmentation part      216.0000000 magnetization 

 Free energy of the ion-electron system (eV)
  ---------------------------------------------------
  alpha Z        PSCENC =        47.94900195
  Ewald energy   TEWEN  =     45539.65285635
  -Hartree energ DENC   =    -51608.79285844
  -exchange      EXHF   =         0.00000000
  -V(xc)+E(xc)   XCENC  =       604.28825132
  PAW double counting   =      6339.73130699    -6197.22120962
  entropy T*S    EENTRO =        -0.00000000
  eigenvalues    EBANDS =     -3709.43085450
  atomic energy  EATOM  =      8369.52358910
  ---------------------------------------------------
  free energy    TOTEN  =      -614.29991685 eV

  energy without entropy =     -614.29991685  energy(sigma->0) =     -614.29991685


--------------------------------------------------------------------------------------------------------




--------------------------------------- Iteration      1(   5)  ---------------------------------------


    TRIAL :  cpu time   34.8163: real time   35.1472
    CORREC:  cpu time    0.0001: real time    0.0001
    CHARGE:  cpu time    3.2425: real time    3.2895
    --------------------------------------------
      LOOP:  cpu time   38.0905: real time   38.4709

 eigenvalue-minimisations  :   392
 total energy-change (2. order) :-0.1034982E+01  (-0.1033240E+01)
 number of electron     216.0000000 magnetization 
 augmentation part       -0.4321761 magnetization 

 Free energy of the ion-electron system (eV)
  ---------------------------------------------------
  alpha Z        PSCENC =        47.94900195
  Ewald energy   TEWEN  =     45539.65285635
  -Hartree energ DENC   =    -51608.79285844
  -exchange      EXHF   =         0.00000000
  -V(xc)+E(xc)   XCENC  =       604.28825132
  PAW double counting   =      6339.73130699    -6197.22120962
  entropy T*S    EENTRO =        -0.00000000
  eigenvalues    EBANDS =     -3710.46583603
  atomic energy  EATOM  =      8369.52358910
  ---------------------------------------------------
  free energy    TOTEN  =      -615.33489838 eV

  energy without entropy =     -615.33489838  energy(sigma->0) =     -615.33489838


--------------------------------------------------------------------------------------------------------




--------------------------------------- Iteration      1(   6)  ---------------------------------------


    POTLOK:  cpu time    8.3761: real time    8.4309
    SETDIJ:  cpu time    0.0126: real time    0.0126
    TRIAL :  cpu time   22.3802: real time   22.5523
    CORREC:  cpu time   16.0830: real time   16.2433
    CHARGE:  cpu time    3.2492: real time    3.2726
    --------------------------------------------
      LOOP:  cpu time   50.1257: real time   50.5453

 eigenvalue-minimisations  :     0
 total energy-change (2. order) : 0.1038984E+03  (-0.1203100E+02)
 number of electron     216.0000000 magnetization 
 augmentation part       -0.4918285 magnetization 

 Free energy of the ion-electron system (eV)
  ---------------------------------------------------
  alpha Z        PSCENC =        47.94900195
  Ewald energy   TEWEN  =     45539.65285635
  -Hartree energ DENC   =    -52965.30763600
  -exchange      EXHF   =         0.00000000
  -V(xc)+E(xc)   XCENC  =       671.02256707
  PAW double counting   =    113926.70769788  -113789.91241197
  entropy T*S    EENTRO =        -0.00000000
  eigenvalues    EBANDS =     -2311.07214797
  atomic energy  EATOM  =      8369.52358910
  ---------------------------------------------------
  free energy    TOTEN  =      -511.43648358 eV

  energy without entropy =     -511.43648358  energy(sigma->0) =     -511.43648358


--------------------------------------------------------------------------------------------------------




--------------------------------------- Iteration      1(   7)  ---------------------------------------


    POTLOK:  cpu time    8.3498: real time    8.4139
    SETDIJ:  cpu time    0.0019: real time    0.0019
    TRIAL :  cpu time   22.3815: real time   22.5526
    CORREC:  cpu time   16.1525: real time   16.2717
    CHARGE:  cpu time    3.2482: real time    3.2726
    --------------------------------------------
      LOOP:  cpu time   50.1701: real time   50.5510

 eigenvalue-minimisations  :     0
 total energy-change (2. order) :-0.1204511E+02  (-0.1579253E+01)
 number of electron     216.0000000 magnetization 
 augmentation part       -0.5223337 magnetization 

 Free energy of the ion-electron system (eV)
  ---------------------------------------------------
  alpha Z        PSCENC =        47.94900195
  Ewald energy   TEWEN  =     45539.65285635
  -Hartree energ DENC   =    -52537.23626041
  -exchange      EXHF   =         0.00000000
  -V(xc)+E(xc)   XCENC  =       651.21852599
  PAW double counting   =    131968.50049062  -131828.96832956
  entropy T*S    EENTRO =        -0.00000000
  eigenvalues    EBANDS =     -2734.12146617
  atomic energy  EATOM  =      8369.52358910
  ---------------------------------------------------
  free energy    TOTEN  =      -523.48159212 eV

  energy without entropy =     -523.48159212  energy(sigma->0) =     -523.48159212


--------------------------------------------------------------------------------------------------------




--------------------------------------- Iteration      1(   8)  ---------------------------------------


    POTLOK:  cpu time    8.3560: real time    8.4090
    SETDIJ:  cpu time    0.0019: real time    0.0019
    TRIAL :  cpu time   22.3808: real time   22.5607
    CORREC:  cpu time   16.1378: real time   16.2525
    CHARGE:  cpu time    3.2518: real time    3.2762
    --------------------------------------------
      LOOP:  cpu time   50.1563: real time   50.5318

 eigenvalue-minimisations  :     0
 total energy-change (2. order) :-0.1579660E+01  (-0.5171494E+00)
 number of electron     216.0000000 magnetization 
 augmentation part       -0.5202464 magnetization 

 Free energy of the ion-electron system (eV)
  ---------------------------------------------------
  alpha Z        PSCENC =        47.94900195
  Ewald energy   TEWEN  =     45539.65285635
  -Hartree energ DENC   =    -52507.33048007
  -exchange      EXHF   =         0.00000000
  -V(xc)+E(xc)   XCENC  =       649.58262288
  PAW double counting   =    140088.66544984  -139948.64704923
  entropy T*S    EENTRO =        -0.00000000
  eigenvalues    EBANDS =     -2764.45724288
  atomic energy  EATOM  =      8369.52358910
  ---------------------------------------------------
  free energy    TOTEN  =      -525.06125206 eV

  energy without entropy =     -525.06125206  energy(sigma->0) =     -525.06125206


--------------------------------------------------------------------------------------------------------




--------------------------------------- Iteration      1(   9)  ---------------------------------------


    POTLOK:  cpu time    8.3483: real time    8.4068
    SETDIJ:  cpu time    0.0205: real time    0.0206
    TRIAL :  cpu time   22.3389: real time   22.5464
    CORREC:  cpu time   16.1365: real time   16.2546
    CHARGE:  cpu time    3.2411: real time    3.2657
    --------------------------------------------
      LOOP:  cpu time   50.0898: real time   50.5126

 eigenvalue-minimisations  :     0
 total energy-change (2. order) :-0.5168865E+00  (-0.2024524E+00)
 number of electron     216.0000000 magnetization 
 augmentation part       -0.5146230 magnetization 

 Free energy of the ion-electron system (eV)
  ---------------------------------------------------
  alpha Z        PSCENC =        47.94900195
  Ewald energy   TEWEN  =     45539.65285635
  -Hartree energ DENC   =    -52515.32118040
  -exchange      EXHF   =         0.00000000
  -V(xc)+E(xc)   XCENC  =       649.31997816
  PAW double counting   =    146370.35416303  -146230.13525852
  entropy T*S    EENTRO =        -0.00000000
  eigenvalues    EBANDS =     -2756.92128826
  atomic energy  EATOM  =      8369.52358910
  ---------------------------------------------------
  free energy    TOTEN  =      -525.57813858 eV

  energy without entropy =     -525.57813858  energy(sigma->0) =     -525.57813858


--------------------------------------------------------------------------------------------------------




--------------------------------------- Iteration      1(  10)  ---------------------------------------


    POTLOK:  cpu time    8.3619: real time    8.4311
    SETDIJ:  cpu time    0.0018: real time    0.0018
    TRIAL :  cpu time   22.3672: real time   22.5588
    CORREC:  cpu time   16.1220: real time   16.2659
    CHARGE:  cpu time    3.2665: real time    3.2908
    --------------------------------------------
      LOOP:  cpu time   50.1327: real time   50.5866

 eigenvalue-minimisations  :     0
 total energy-change (2. order) :-0.2022150E+00  (-0.8588530E-01)
 number of electron     216.0000000 magnetization 
 augmentation part       -0.5081145 magnetization 

 Free energy of the ion-electron system (eV)
  ---------------------------------------------------
  alpha Z        PSCENC =        47.94900195
  Ewald energy   TEWEN  =     45539.65285635
  -Hartree energ DENC   =    -52515.16874571
  -exchange      EXHF   =         0.00000000
  -V(xc)+E(xc)   XCENC  =       649.10719091
  PAW double counting   =    148796.88910853  -148656.57200218
  entropy T*S    EENTRO =        -0.00000000
  eigenvalues    EBANDS =     -2757.16135255
  atomic energy  EATOM  =      8369.52358910
  ---------------------------------------------------
  free energy    TOTEN  =      -525.78035360 eV

  energy without entropy =     -525.78035360  energy(sigma->0) =     -525.78035360


--------------------------------------------------------------------------------------------------------




--------------------------------------- Iteration      1(  11)  ---------------------------------------


    POTLOK:  cpu time    8.3675: real time    8.4230
    SETDIJ:  cpu time    0.0226: real time    0.0227
    TRIAL :  cpu time   22.3603: real time   22.5667
    CORREC:  cpu time   16.1380: real time   16.2687
    CHARGE:  cpu time    3.2498: real time    3.2751
    --------------------------------------------
      LOOP:  cpu time   50.1807: real time   50.6037

 eigenvalue-minimisations  :     0
 total energy-change (2. order) :-0.8567141E-01  (-0.3414977E-01)
 number of electron     216.0000000 magnetization 
 augmentation part       -0.5042694 magnetization 

 Free energy of the ion-electron system (eV)
  ---------------------------------------------------
  alpha Z        PSCENC =        47.94900195
  Ewald energy   TEWEN  =     45539.65285635
  -Hartree energ DENC   =    -52509.45529427
  -exchange      EXHF   =         0.00000000
  -V(xc)+E(xc)   XCENC  =       648.96704986
  PAW double counting   =    148657.89206132  -148517.57434789
  entropy T*S    EENTRO =        -0.00000000
  eigenvalues    EBANDS =     -2762.82094143
  atomic energy  EATOM  =      8369.52358910
  ---------------------------------------------------
  free energy    TOTEN  =      -525.86602501 eV

  energy without entropy =     -525.86602501  energy(sigma->0) =     -525.86602501


--------------------------------------------------------------------------------------------------------




--------------------------------------- Iteration      1(  12)  ---------------------------------------


    POTLOK:  cpu time    8.3523: real time    8.4225
    SETDIJ:  cpu time    0.0155: real time    0.0156
    TRIAL :  cpu time   22.3683: real time   22.5542
    CORREC:  cpu time   16.1496: real time   16.2644
    CHARGE:  cpu time    3.2525: real time    3.2759
    --------------------------------------------
      LOOP:  cpu time   50.1510: real time   50.5493

 eigenvalue-minimisations  :     0
 total energy-change (2. order) :-0.3406922E-01  (-0.1091614E-01)
 number of electron     216.0000000 magnetization 
 augmentation part       -0.5042789 magnetization 

 Free energy of the ion-electron system (eV)
  ---------------------------------------------------
  alpha Z        PSCENC =        47.94900195
  Ewald energy   TEWEN  =     45539.65285635
  -Hartree energ DENC   =    -52504.78449765
  -exchange      EXHF   =         0.00000000
  -V(xc)+E(xc)   XCENC  =       648.87004384
  PAW double counting   =    147916.99551125  -147776.70521005
  entropy T*S    EENTRO =        -0.00000000
  eigenvalues    EBANDS =     -2767.40138903
  atomic energy  EATOM  =      8369.52358910
  ---------------------------------------------------
  free energy    TOTEN  =      -525.90009422 eV

  energy without entropy =     -525.90009422  energy(sigma->0) =     -525.90009422


--------------------------------------------------------------------------------------------------------




--------------------------------------- Iteration      1(  13)  ---------------------------------------


    POTLOK:  cpu time    8.3865: real time    8.4435
    SETDIJ:  cpu time    0.0019: real time    0.0019
    TRIAL :  cpu time   22.3696: real time   22.5366
    CORREC:  cpu time   16.1099: real time   16.2443
    CHARGE:  cpu time    3.2605: real time    3.2866
    --------------------------------------------
      LOOP:  cpu time   50.1323: real time   50.5478

 eigenvalue-minimisations  :     0
 total energy-change (2. order) :-0.1090779E-01  (-0.3047527E-02)
 number of electron     216.0000000 magnetization 
 augmentation part       -0.5049733 magnetization 

 Free energy of the ion-electron system (eV)
  ---------------------------------------------------
  alpha Z        PSCENC =        47.94900195
  Ewald energy   TEWEN  =     45539.65285635
  -Hartree energ DENC   =    -52503.28510212
  -exchange      EXHF   =         0.00000000
  -V(xc)+E(xc)   XCENC  =       648.82068382
  PAW double counting   =    147362.29413421  -147222.01719304
  entropy T*S    EENTRO =        -0.00000000
  eigenvalues    EBANDS =     -2768.84897227
  atomic energy  EATOM  =      8369.52358910
  ---------------------------------------------------
  free energy    TOTEN  =      -525.91100201 eV

  energy without entropy =     -525.91100201  energy(sigma->0) =     -525.91100201


--------------------------------------------------------------------------------------------------------




--------------------------------------- Iteration      1(  14)  ---------------------------------------


    POTLOK:  cpu time    8.3582: real time    8.4380
    SETDIJ:  cpu time    0.0018: real time    0.0018
    TRIAL :  cpu time   22.3120: real time   22.5510
    CORREC:  cpu time   16.1527: real time   16.2697
    CHARGE:  cpu time    3.2484: real time    3.2738
    --------------------------------------------
      LOOP:  cpu time   50.1054: real time   50.5719

 eigenvalue-minimisations  :     0
 total energy-change (2. order) :-0.3051423E-02  (-0.8073497E-03)
 number of electron     216.0000000 magnetization 
 augmentation part       -0.5052819 magnetization 

 Free energy of the ion-electron system (eV)
  ---------------------------------------------------
  alpha Z        PSCENC =        47.94900195
  Ewald energy   TEWEN  =     45539.65285635
  -Hartree energ DENC   =    -52503.32076287
  -exchange      EXHF   =         0.00000000
  -V(xc)+E(xc)   XCENC  =       648.81830393
  PAW double counting   =    147109.43733151  -146969.16615573
  entropy T*S    EENTRO =        -0.00000000
  eigenvalues    EBANDS =     -2768.80821769
  atomic energy  EATOM  =      8369.52358910
  ---------------------------------------------------
  free energy    TOTEN  =      -525.91405343 eV

  energy without entropy =     -525.91405343  energy(sigma->0) =     -525.91405343


--------------------------------------------------------------------------------------------------------




--------------------------------------- Iteration      1(  15)  ---------------------------------------


    POTLOK:  cpu time    8.3664: real time    8.4216
    SETDIJ:  cpu time    0.0131: real time    0.0131
    TRIAL :  cpu time   22.3453: real time   22.5579
    CORREC:  cpu time   16.1425: real time   16.2579
    CHARGE:  cpu time    3.2519: real time    3.2773
    --------------------------------------------
      LOOP:  cpu time   50.1248: real time   50.5635

 eigenvalue-minimisations  :     0
 total energy-change (2. order) :-0.8126740E-03  (-0.2240887E-03)
 number of electron     216.0000000 magnetization 
 augmentation part       -0.5054240 magnetization 

 Free energy of the ion-electron system (eV)
  ---------------------------------------------------
  alpha Z        PSCENC =        47.94900195
  Ewald energy   TEWEN  =     45539.65285635
  -Hartree energ DENC   =    -52503.26370489
  -exchange      EXHF   =         0.00000000
  -V(xc)+E(xc)   XCENC  =       648.82005038
  PAW double counting   =    147009.42866404  -146869.15997550
  entropy T*S    EENTRO =        -0.00000000
  eigenvalues    EBANDS =     -2768.86534754
  atomic energy  EATOM  =      8369.52358910
  ---------------------------------------------------
  free energy    TOTEN  =      -525.91486611 eV

  energy without entropy =     -525.91486611  energy(sigma->0) =     -525.91486611


--------------------------------------------------------------------------------------------------------




--------------------------------------- Iteration      1(  16)  ---------------------------------------


    POTLOK:  cpu time    8.3727: real time    8.4280
    SETDIJ:  cpu time    0.0018: real time    0.0018
    TRIAL :  cpu time   22.3912: real time   22.5713
    CORREC:  cpu time   16.1838: real time   16.2996
    CHARGE:  cpu time    3.2642: real time    3.2886
    --------------------------------------------
      LOOP:  cpu time   50.2520: real time   50.6305

 eigenvalue-minimisations  :     0
 total energy-change (2. order) :-0.2275544E-03  (-0.9102595E-04)
 number of electron     216.0000000 magnetization 
 augmentation part       -0.5054729 magnetization 

 Free energy of the ion-electron system (eV)
  ---------------------------------------------------
  alpha Z        PSCENC =        47.94900195
  Ewald energy   TEWEN  =     45539.65285635
  -Hartree energ DENC   =    -52503.17033224
  -exchange      EXHF   =         0.00000000
  -V(xc)+E(xc)   XCENC  =       648.81877228
  PAW double counting   =    146952.64807845  -146812.37983513
  entropy T*S    EENTRO =        -0.00000000
  eigenvalues    EBANDS =     -2768.95722442
  atomic energy  EATOM  =      8369.52358910
  ---------------------------------------------------
  free energy    TOTEN  =      -525.91509366 eV

  energy without entropy =     -525.91509366  energy(sigma->0) =     -525.91509366


--------------------------------------------------------------------------------------------------------




--------------------------------------- Iteration      1(  17)  ---------------------------------------


    POTLOK:  cpu time    8.3730: real time    8.4245
    SETDIJ:  cpu time    0.0020: real time    0.0020
    TRIAL :  cpu time   22.3536: real time   22.5434
    CORREC:  cpu time   16.1368: real time   16.2493
    CHARGE:  cpu time    3.2528: real time    3.2770
    --------------------------------------------
      LOOP:  cpu time   50.1503: real time   50.5307

 eigenvalue-minimisations  :     0
 total energy-change (2. order) :-0.8828181E-04  (-0.3945546E-04)
 number of electron     216.0000000 magnetization 
 augmentation part       -0.5055055 magnetization 

 Free energy of the ion-electron system (eV)
  ---------------------------------------------------
  alpha Z        PSCENC =        47.94900195
  Ewald energy   TEWEN  =     45539.65285635
  -Hartree energ DENC   =    -52503.31528264
  -exchange      EXHF   =         0.00000000
  -V(xc)+E(xc)   XCENC  =       648.82711659
  PAW double counting   =    146905.41006152  -146765.14261501
  entropy T*S    EENTRO =        -0.00000000
  eigenvalues    EBANDS =     -2768.81990982
  atomic energy  EATOM  =      8369.52358910
  ---------------------------------------------------
  free energy    TOTEN  =      -525.91518194 eV

  energy without entropy =     -525.91518194  energy(sigma->0) =     -525.91518194


--------------------------------------------------------------------------------------------------------




--------------------------------------- Iteration      1(  18)  ---------------------------------------


    POTLOK:  cpu time    8.3626: real time    8.4203
    SETDIJ:  cpu time    0.0155: real time    0.0155
    TRIAL :  cpu time   22.3911: real time   22.5683
    CORREC:  cpu time   16.1217: real time   16.2569
    CHARGE:  cpu time    3.2527: real time    3.2781
    --------------------------------------------
      LOOP:  cpu time   50.2129: real time   50.6130

 eigenvalue-minimisations  :     0
 total energy-change (2. order) :-0.3817084E-04  (-0.1558296E-04)
 number of electron     216.0000000 magnetization 
 augmentation part       -0.5055437 magnetization 

 Free energy of the ion-electron system (eV)
  ---------------------------------------------------
  alpha Z        PSCENC =        47.94900195
  Ewald energy   TEWEN  =     45539.65285635
  -Hartree energ DENC   =    -52503.41619288
  -exchange      EXHF   =         0.00000000
  -V(xc)+E(xc)   XCENC  =       648.83160763
  PAW double counting   =    146886.52848335  -146746.26092666
  entropy T*S    EENTRO =        -0.00000000
  eigenvalues    EBANDS =     -2768.72363896
  atomic energy  EATOM  =      8369.52358910
  ---------------------------------------------------
  free energy    TOTEN  =      -525.91522011 eV

  energy without entropy =     -525.91522011  energy(sigma->0) =     -525.91522011


--------------------------------------------------------------------------------------------------------




--------------------------------------- Iteration      1(  19)  ---------------------------------------


    POTLOK:  cpu time    8.3422: real time    8.4248
    SETDIJ:  cpu time    0.0134: real time    0.0135
    TRIAL :  cpu time   22.3415: real time   22.5292
    CORREC:  cpu time   16.1643: real time   16.2878
    CHARGE:  cpu time    3.2508: real time    3.2741
    --------------------------------------------
      LOOP:  cpu time   50.1484: real time   50.5683

 eigenvalue-minimisations  :     0
 total energy-change (2. order) :-0.1581214E-04  (-0.1225200E-04)
 number of electron     216.0000000 magnetization 
 augmentation part       -0.5055550 magnetization 

 Free energy of the ion-electron system (eV)
  ---------------------------------------------------
  alpha Z        PSCENC =        47.94900195
  Ewald energy   TEWEN  =     45539.65285635
  -Hartree energ DENC   =    -52503.41246046
  -exchange      EXHF   =         0.00000000
  -V(xc)+E(xc)   XCENC  =       648.83056988
  PAW double counting   =    146893.54608222  -146753.27785666
  entropy T*S    EENTRO =        -0.00000000
  eigenvalues    EBANDS =     -2768.72701832
  atomic energy  EATOM  =      8369.52358910
  ---------------------------------------------------
  free energy    TOTEN  =      -525.91523593 eV

  energy without entropy =     -525.91523593  energy(sigma->0) =     -525.91523593


--------------------------------------------------------------------------------------------------------




--------------------------------------- Iteration      1(  20)  ---------------------------------------


    POTLOK:  cpu time    8.4022: real time    8.4602
    SETDIJ:  cpu time    0.0018: real time    0.0018
    TRIAL :  cpu time   22.3607: real time   22.5518
    CORREC:  cpu time   16.1224: real time   16.2446
    CHARGE:  cpu time    3.2475: real time    3.2725
    --------------------------------------------
      LOOP:  cpu time   50.1369: real time   50.5707

 eigenvalue-minimisations  :     0
 total energy-change (2. order) :-0.5601818E-05  (-0.5270875E-05)
 number of electron     216.0000000 magnetization 
 augmentation part       -0.5055543 magnetization 

 Free energy of the ion-electron system (eV)
  ---------------------------------------------------
  alpha Z        PSCENC =        47.94900195
  Ewald energy   TEWEN  =     45539.65285635
  -Hartree energ DENC   =    -52503.45140383
  -exchange      EXHF   =         0.00000000
  -V(xc)+E(xc)   XCENC  =       648.83143043
  PAW double counting   =    146916.32804609  -146776.05951752
  entropy T*S    EENTRO =        -0.00000000
  eigenvalues    EBANDS =     -2768.68924411
  atomic energy  EATOM  =      8369.52358910
  ---------------------------------------------------
  free energy    TOTEN  =      -525.91524153 eV

  energy without entropy =     -525.91524153  energy(sigma->0) =     -525.91524153


--------------------------------------------------------------------------------------------------------




--------------------------------------- Iteration      1(  21)  ---------------------------------------


    POTLOK:  cpu time    8.3636: real time    8.4200
    SETDIJ:  cpu time    0.0019: real time    0.0020
    TRIAL :  cpu time   22.3386: real time   22.5418
    CORREC:  cpu time   16.1166: real time   16.2436
    CHARGE:  cpu time    3.2599: real time    3.2934
    --------------------------------------------
      LOOP:  cpu time   50.1270: real time   50.5613

 eigenvalue-minimisations  :     0
 total energy-change (2. order) :-0.4981266E-05  (-0.9390160E-06)
 number of electron     216.0000000 magnetization 
 augmentation part       -0.5055404 magnetization 

 Free energy of the ion-electron system (eV)
  ---------------------------------------------------
  alpha Z        PSCENC =        47.94900195
  Ewald energy   TEWEN  =     45539.65285635
  -Hartree energ DENC   =    -52503.43294921
  -exchange      EXHF   =         0.00000000
  -V(xc)+E(xc)   XCENC  =       648.83031242
  PAW double counting   =    146915.18596195  -146774.91739908
  entropy T*S    EENTRO =        -0.00000000
  eigenvalues    EBANDS =     -2768.70662000
  atomic energy  EATOM  =      8369.52358910
  ---------------------------------------------------
  free energy    TOTEN  =      -525.91524651 eV

  energy without entropy =     -525.91524651  energy(sigma->0) =     -525.91524651


--------------------------------------------------------------------------------------------------------




--------------------------------------- Iteration      1(  22)  ---------------------------------------


    POTLOK:  cpu time    8.3420: real time    8.4262
    SETDIJ:  cpu time    0.0018: real time    0.0019
    TRIAL :  cpu time   22.3286: real time   22.5465
    CORREC:  cpu time   16.1176: real time   16.2694
    CHARGE:  cpu time    3.2408: real time    3.2640
    --------------------------------------------
      LOOP:  cpu time   50.0456: real time   50.5357

 eigenvalue-minimisations  :     0
 total energy-change (2. order) :-0.9196519E-06  (-0.2139932E-06)
 number of electron     216.0000000 magnetization 
 augmentation part       -0.5055340 magnetization 

 Free energy of the ion-electron system (eV)
  ---------------------------------------------------
  alpha Z        PSCENC =        47.94900195
  Ewald energy   TEWEN  =     45539.65285635
  -Hartree energ DENC   =    -52503.43212636
  -exchange      EXHF   =         0.00000000
  -V(xc)+E(xc)   XCENC  =       648.83040844
  PAW double counting   =    146914.35588530  -146774.08746883
  entropy T*S    EENTRO =        -0.00000000
  eigenvalues    EBANDS =     -2768.70739337
  atomic energy  EATOM  =      8369.52358910
  ---------------------------------------------------
  free energy    TOTEN  =      -525.91524743 eV

  energy without entropy =     -525.91524743  energy(sigma->0) =     -525.91524743


--------------------------------------------------------------------------------------------------------




--------------------------------------- Iteration      1(  23)  ---------------------------------------


    POTLOK:  cpu time    8.4001: real time    8.4539
    SETDIJ:  cpu time    0.0019: real time    0.0020
    TRIAL :  cpu time   22.3709: real time   22.5438
    CORREC:  cpu time   16.1299: real time   16.2521
    CHARGE:  cpu time    3.2270: real time    3.2642
    --------------------------------------------
      LOOP:  cpu time   50.1807: real time   50.5773

 eigenvalue-minimisations  :     0
 total energy-change (2. order) :-0.1551525E-06  (-0.5276435E-07)
 number of electron     216.0000000 magnetization 
 augmentation part       -0.5055336 magnetization 

 Free energy of the ion-electron system (eV)
  ---------------------------------------------------
  alpha Z        PSCENC =        47.94900195
  Ewald energy   TEWEN  =     45539.65285635
  -Hartree energ DENC   =    -52503.42900132
  -exchange      EXHF   =         0.00000000
  -V(xc)+E(xc)   XCENC  =       648.83033768
  PAW double counting   =    146914.37605135  -146774.10769807
  entropy T*S    EENTRO =        -0.00000000
  eigenvalues    EBANDS =     -2768.71038464
  atomic energy  EATOM  =      8369.52358910
  ---------------------------------------------------
  free energy    TOTEN  =      -525.91524758 eV

  energy without entropy =     -525.91524758  energy(sigma->0) =     -525.91524758


--------------------------------------------------------------------------------------------------------




--------------------------------------- Iteration      1(  24)  ---------------------------------------


    POTLOK:  cpu time    8.3656: real time    8.4186
    SETDIJ:  cpu time    0.0019: real time    0.0019
    TRIAL :  cpu time   22.3018: real time   22.5488
    CORREC:  cpu time   16.1116: real time   16.2658
    EDDIAG:  cpu time    4.6179: real time    4.6547
    CHARGE:  cpu time    3.2544: real time    3.2809
    --------------------------------------------
      LOOP:  cpu time   54.6572: real time   55.1922

 eigenvalue-minimisations  :     0
 total energy-change (2. order) : 0.4685717E-08  (-0.3805837E-07)
 number of electron     216.0000000 magnetization 
 augmentation part       -0.5055327 magnetization 

 Free energy of the ion-electron system (eV)
  ---------------------------------------------------
  alpha Z        PSCENC =        47.94900195
  Ewald energy   TEWEN  =     45539.65285635
  -Hartree energ DENC   =    -52503.42679775
  -exchange      EXHF   =         0.00000000
  -V(xc)+E(xc)   XCENC  =       648.83024120
  PAW double counting   =    146914.63654757  -146774.36819567
  entropy T*S    EENTRO =        -0.00000000
  eigenvalues    EBANDS =     -2768.71249034
  atomic energy  EATOM  =      8369.52358910
  ---------------------------------------------------
  free energy    TOTEN  =      -525.91524758 eV

  energy without entropy =     -525.91524758  energy(sigma->0) =     -525.91524758


--------------------------------------------------------------------------------------------------------


  average scaling for gradient   0.9784


 average (electrostatic) potential at core
  the test charge radii are     0.5770  0.5955
  (the norm of the test charge is              1.0000)
       1 -88.0738       2 -88.0708       3 -88.0763       4 -88.0794       5 -88.0664
       6 -88.0635       7 -88.0745       8 -88.0674       9 -88.0680      10 -88.0732
      11 -88.0630      12 -88.0656      13 -88.0720      14 -88.0640      15 -88.0622
      16 -88.0655      17 -88.0676      18 -88.0712      19 -88.0701      20 -88.0668
      21 -88.0643      22 -88.0602      23 -88.0794      24 -88.0772      25 -88.0646
      26 -88.0650      27 -88.0651      28 -88.0722      29 -88.0654      30 -88.0613
      31 -88.0726      32 -88.0708      33 -88.0675      34 -88.0662      35 -88.0619
      36 -88.0666      37 -88.0649      38 -88.0703      39 -88.0702      40 -88.0714
      41 -88.0725      42 -88.0743      43 -88.0691      44 -88.0727      45 -88.0645
      46 -88.0641      47 -88.0664      48 -88.0644      49 -88.0712      50 -88.0700
      51 -92.1348      52-124.2607      53-124.2663
 
 
 
 E-fermi :  -4.4154     XC(G=0):  -1.8745     alpha+bet : -1.6890

 Fermi energy:        -4.4153967903

 k-point     1 :       0.0000    0.0000    0.0000
  band No.  band energies     occupation 
      1     -29.1943      2.00000
      2     -28.1681      2.00000
      3     -23.5786      2.00000
      4     -22.5951      2.00000
      5     -22.5939      2.00000
      6     -22.5918      2.00000
      7     -22.5909      2.00000
      8     -22.5892      2.00000
      9     -22.5889      2.00000
     10     -20.6599      2.00000
     11     -20.6598      2.00000
     12     -20.6597      2.00000
     13     -20.6591      2.00000
     14     -20.6590      2.00000
     15     -20.6587      2.00000
     16     -19.7243      2.00000
     17     -19.7241      2.00000
     18     -19.7237      2.00000
     19     -19.7235      2.00000
     20     -19.7233      2.00000
     21     -19.7229      2.00000
     22     -17.5035      2.00000
     23     -17.5034      2.00000
     24     -17.5026      2.00000
     25     -17.5020      2.00000
     26     -17.5001      2.00000
     27     -17.4999      2.00000
     28     -16.3446      2.00000
     29     -16.3444      2.00000
     30     -16.3440      2.00000
     31     -16.3439      2.00000
     32     -16.3431      2.00000
     33     -16.3430      2.00000
     34     -14.9518      2.00000
     35     -14.9517      2.00000
     36     -14.9514      2.00000
     37     -14.9508      2.00000
     38     -14.9507      2.00000
     39     -14.9496      2.00000
     40     -13.1478      2.00000
     41     -12.4924      2.00000
     42     -12.4922      2.00000
     43     -12.4918      2.00000
     44     -12.4917      2.00000
     45     -12.4909      2.00000
     46     -12.4907      2.00000
     47     -12.2757      2.00000
     48     -12.2757      2.00000
     49     -12.2743      2.00000
     50     -12.2742      2.00000
     51     -12.2725      2.00000
     52     -12.2721      2.00000
     53     -11.8710      2.00000
     54     -11.6161      2.00000
     55     -11.6144      2.00000
     56     -10.9436      2.00000
     57     -10.8289      2.00000
     58     -10.8287      2.00000
     59     -10.8275      2.00000
     60     -10.8272      2.00000
     61     -10.8269      2.00000
     62     -10.8268      2.00000
     63      -9.7760      2.00000
     64      -9.7732      2.00000
     65      -9.7688      2.00000
     66      -9.7685      2.00000
     67      -9.7657      2.00000
     68      -9.7655      2.00000
     69      -9.5279      2.00000
     70      -9.5273      2.00000
     71      -9.5271      2.00000
     72      -9.5269      2.00000
     73      -9.5265      2.00000
     74      -9.5260      2.00000
     75      -9.5253      2.00000
     76      -9.5251      2.00000
     77      -9.5249      2.00000
     78      -9.5237      2.00000
     79      -9.5234      2.00000
     80      -9.5233      2.00000
     81      -8.0202      2.00000
     82      -8.0192      2.00000
     83      -7.8216      2.00000
     84      -7.8206      2.00000
     85      -7.8197      2.00000
     86      -7.8191      2.00000
     87      -7.8163      2.00000
     88      -7.8158      2.00000
     89      -7.5294      2.00000
     90      -7.5291      2.00000
     91      -7.5266      2.00000
     92      -7.5264      2.00000
     93      -7.5257      2.00000
     94      -7.5255      2.00000
     95      -6.5848      2.00000
     96      -6.5830      2.00000
     97      -6.5826      2.00000
     98      -6.5811      2.00000
     99      -6.5806      2.00000
    100      -6.5796      2.00000
    101      -6.3035      2.00000
    102      -6.3012      2.00000
    103      -4.4853      2.00000
    104      -4.4848      2.00000
    105      -4.4840      2.00000
    106      -4.4835      2.00000
    107      -4.4804      2.00000
    108      -4.4803      2.00000
    109      -1.5105      0.00000
    110      -1.5103      0.00000
    111      -1.5076      0.00000
    112      -1.5074      0.00000
    113      -1.5068      0.00000
    114      -1.5065      0.00000
    115       0.4543      0.00000
    116       0.4674      0.00000
    117       0.4692      0.00000
    118       0.4699      0.00000
    119       0.4717      0.00000
    120       0.4725      0.00000
    121       0.4754      0.00000
    122       1.0519      0.00000
    123       1.2423      0.00000
    124       1.2529      0.00000
    125       1.5175      0.00000
    126       1.6386      0.00000
    127       1.8487      0.00000
    128       1.9293      0.00000
    129       1.9329      0.00000
    130       1.9404      0.00000
    131       1.9513      0.00000
    132       2.0831      0.00000
    133       2.2028      0.00000
    134       2.3492      0.00000
    135       2.3497      0.00000
    136       2.3520      0.00000
    137       2.3528      0.00000
    138       2.3529      0.00000
    139       2.3532      0.00000
    140       2.4314      0.00000
    141       2.5812      0.00000
    142       2.6818      0.00000
    143       2.6865      0.00000
    144       2.6959      0.00000
    145       2.7165      0.00000
    146       2.8160      0.00000
    147       2.8210      0.00000
    148       2.8382      0.00000
    149       2.8503      0.00000
    150       2.8535      0.00000
    151       2.8561      0.00000
    152       3.3895      0.00000
    153       3.6721      0.00000
    154       3.8084      0.00000
    155       3.9940      0.00000
    156       4.0863      0.00000
    157       4.1166      0.00000
    158       4.3852      0.00000
    159       4.5508      0.00000
    160       4.5665      0.00000
    161       4.5862      0.00000
    162       4.7910      0.00000
    163       4.9115      0.00000
    164       4.9322      0.00000
    165       4.9493      0.00000
    166       4.9531      0.00000
    167       4.9545      0.00000
    168       4.9552      0.00000


--------------------------------------------------------------------------------------------------------


 soft charge-density along one line, spin component           1
         0         1         2         3         4         5         6         7         8         9
 total charge-density along one line
 
 pseudopotential strength for first ion, spin component:           1
 12.643  21.273  -0.000   0.000   0.000  -0.000   0.000   0.000
 21.273  35.793  -0.000   0.000   0.000  -0.000   0.000   0.000
 -0.000  -0.000  -3.239   0.000   0.000  -5.804   0.000   0.000
  0.000   0.000   0.000  -3.243   0.000   0.000  -5.810   0.000
  0.000   0.000   0.000   0.000  -3.239   0.000   0.000  -5.804
 -0.000  -0.000  -5.804   0.000   0.000 -10.375   0.000   0.000
  0.000   0.000   0.000  -5.810   0.000   0.000 -10.385   0.000
  0.000   0.000   0.000   0.000  -5.804   0.000   0.000 -10.376
 total augmentation occupancy for first ion, spin component:           1
  9.643  -3.599   0.000  -0.002  -0.000  -0.000   0.001   0.000
 -3.599   1.374  -0.000   0.001   0.000   0.000  -0.000  -0.000
  0.000  -0.000   8.197  -0.009   0.001  -2.895   0.003  -0.000
 -0.002   0.001  -0.009   3.782  -0.000   0.003  -1.107   0.000
 -0.000   0.000   0.001  -0.000   8.195  -0.000   0.000  -2.895
 -0.000   0.000  -2.895   0.003  -0.000   1.036  -0.001   0.000
  0.001  -0.000   0.003  -1.107   0.000  -0.001   0.329  -0.000
  0.000  -0.000  -0.000   0.000  -2.895   0.000  -0.000   1.035


------------------------ aborting loop because EDIFF is reached ----------------------------------------


    FORLOC:  cpu time    0.1401: real time    0.1409
    FORNL :  cpu time    4.1625: real time    4.1949
    FORCOR:  cpu time    8.2893: real time    8.3438
    OFIELD:  cpu time    0.0031: real time    0.0032

 VOLUME and BASIS-vectors are now :
 -----------------------------------------------------------------------------
  energy-cutoff  :     1000.00
  volume of cell :     3288.85
      direct lattice vectors                 reciprocal lattice vectors
    12.325000000  0.000000000  0.000000000     0.081135903  0.046843835  0.000000000
    -6.162500000 10.673763102  0.000000000     0.000000000  0.093687670  0.000000000
     0.000000000  0.000000000 25.000000000     0.000000000  0.000000000  0.040000000

  length of vectors
    12.325000000 12.325000000 25.000000000     0.093687670  0.093687670  0.040000000


 FORCES acting on ions:
    Electron-Ion                     Ewald-Force                    Non-Local-Force
 -----------------------------------------------------------------------------------------------
   0.592E+01 0.514E+01 0.250E+02   -.592E+01 -.515E+01 -.250E+02   0.203E-02 0.521E-02 0.109E-01
   0.893E+01 0.434E+01 0.296E+02   -.894E+01 -.434E+01 -.296E+02   0.699E-02 0.962E-02 -.561E-02
   0.398E+01 0.105E+02 0.333E+02   -.399E+01 -.106E+02 -.334E+02   0.881E-02 0.317E-01 0.127E-01
   0.554E+01 0.804E+01 0.441E+02   -.556E+01 -.805E+01 -.441E+02   0.319E-01 0.229E-01 0.168E-01
   0.634E+01 0.148E+01 0.252E+02   -.634E+01 -.149E+01 -.252E+02   -.756E-02 0.369E-02 -.151E-02
   0.654E+01 -.123E+01 0.255E+02   -.654E+01 0.123E+01 -.255E+02   -.129E-01 0.119E-01 -.132E-01
   0.102E+02 0.379E+01 0.406E+02   -.102E+02 -.379E+01 -.405E+02   0.293E-01 -.917E-02 0.296E-02
   0.989E+01 -.352E+01 0.421E+02   -.991E+01 0.352E+01 -.421E+02   0.787E-02 0.188E-02 -.112E-01
   -.468E+01 0.951E+01 0.336E+02   0.468E+01 -.953E+01 -.335E+02   0.730E-02 0.522E-03 -.117E-01
   -.744E+01 0.626E+01 0.428E+02   0.746E+01 -.628E+01 -.428E+02   -.312E-01 0.367E-01 0.934E-02
   0.162E+01 -.154E+01 0.220E+02   -.161E+01 0.154E+01 -.220E+02   -.138E-02 -.270E-02 -.621E-02
   0.135E+01 -.112E+01 0.210E+02   -.135E+01 0.112E+01 -.210E+02   -.408E-02 -.433E-02 0.182E-02
   0.395E+01 -.862E+01 0.457E+02   -.398E+01 0.863E+01 -.457E+02   0.492E-01 -.101E-01 0.740E-02
   0.211E+01 -.106E+02 0.343E+02   -.213E+01 0.106E+02 -.343E+02   0.114E-01 -.103E-02 -.218E-01
   -.568E+01 0.352E+01 0.246E+02   0.568E+01 -.353E+01 -.246E+02   0.772E-02 -.117E-02 -.222E-02
   -.797E+01 0.233E+01 0.269E+02   0.798E+01 -.234E+01 -.269E+02   -.700E-02 0.115E-01 -.208E-01
   -.959E+00 -.370E+00 0.203E+02   0.964E+00 0.379E+00 -.203E+02   0.858E-03 -.149E-01 0.158E-02
   0.465E+00 0.340E+01 0.212E+02   -.467E+00 -.339E+01 -.212E+02   0.284E-02 -.857E-02 0.113E-01
   -.157E+01 -.955E+01 0.289E+02   0.156E+01 0.957E+01 -.289E+02   0.537E-02 -.158E-01 -.166E-02
   -.768E+00 -.513E+01 0.228E+02   0.770E+00 0.515E+01 -.228E+02   -.107E-01 -.133E-01 -.680E-03
   0.898E+01 -.396E+01 0.311E+02   -.898E+01 0.396E+01 -.310E+02   0.440E-03 0.327E-02 -.356E-01
   0.578E+01 -.487E+01 0.268E+02   -.578E+01 0.487E+01 -.267E+02   -.483E-02 0.802E-02 -.115E-01
   -.192E+01 0.376E+01 0.508E+02   0.192E+01 -.378E+01 -.508E+02   -.750E-02 0.341E-01 0.482E-01
   -.273E+01 -.594E+01 0.495E+02   0.272E+01 0.595E+01 -.495E+02   0.234E-01 -.169E-01 0.309E-01
   0.292E+01 -.120E+01 0.221E+02   -.292E+01 0.121E+01 -.221E+02   0.632E-02 -.857E-02 -.122E-01
   0.604E+00 0.259E+01 0.222E+02   -.610E+00 -.259E+01 -.222E+02   0.506E-02 -.205E-02 0.249E-02
   -.107E+02 0.144E+01 0.356E+02   0.108E+02 -.145E+01 -.356E+02   0.677E-02 0.192E-01 -.586E-02
   -.102E+02 -.413E+01 0.337E+02   0.102E+02 0.412E+01 -.337E+02   -.215E-01 0.134E-01 0.476E-03
   0.347E+01 -.698E+01 0.276E+02   -.347E+01 0.698E+01 -.276E+02   0.106E-01 0.554E-03 -.225E-01
   0.313E+00 -.282E+01 0.231E+02   -.318E+00 0.283E+01 -.231E+02   -.292E-02 0.357E-03 -.660E-02
   -.775E+01 -.817E+01 0.387E+02   0.776E+01 0.818E+01 -.387E+02   -.232E-01 -.170E-01 0.528E-02
   -.499E+01 -.918E+01 0.301E+02   0.500E+01 0.920E+01 -.301E+02   -.711E-02 -.228E-01 0.798E-02
   0.385E+00 0.148E+01 0.209E+02   -.377E+00 -.148E+01 -.209E+02   -.790E-02 -.178E-02 0.592E-02
   0.997E+00 0.146E+01 0.219E+02   -.994E+00 -.147E+01 -.219E+02   -.126E-01 0.105E-01 -.661E-02
   -.398E+01 0.577E+00 0.232E+02   0.399E+01 -.584E+00 -.232E+02   -.326E-02 0.374E-02 0.259E-02
   -.350E+01 -.144E+01 0.228E+02   0.350E+01 0.144E+01 -.228E+02   -.953E-02 0.440E-02 -.461E-02
   -.690E+01 -.357E+01 0.253E+02   0.691E+01 0.358E+01 -.253E+02   -.950E-02 -.739E-02 0.429E-02
   -.424E+01 -.340E+01 0.225E+02   0.425E+01 0.340E+01 -.225E+02   -.819E-02 -.128E-01 0.969E-02
   -.391E+01 -.505E+01 0.236E+02   0.391E+01 0.507E+01 -.236E+02   -.125E-01 -.201E-01 0.864E-02
   -.583E+00 -.126E+01 0.212E+02   0.589E+00 0.127E+01 -.213E+02   -.540E-02 -.136E-01 0.107E-01
   0.147E+01 0.361E+01 0.218E+02   -.147E+01 -.361E+01 -.218E+02   -.399E-02 -.409E-02 0.106E-01
   0.465E+01 0.728E+01 0.260E+02   -.465E+01 -.729E+01 -.260E+02   0.547E-02 0.537E-02 0.145E-01
   0.386E+00 0.620E+01 0.233E+02   -.387E+00 -.620E+01 -.233E+02   0.956E-02 -.912E-03 0.137E-02
   -.901E-01 0.103E+02 0.302E+02   0.915E-01 -.103E+02 -.302E+02   -.839E-03 0.964E-02 0.748E-02
   -.118E+01 0.228E+01 0.230E+02   0.117E+01 -.228E+01 -.230E+02   0.119E-01 -.450E-02 -.785E-02
   -.469E+01 0.583E+01 0.263E+02   0.468E+01 -.583E+01 -.263E+02   -.310E-03 0.142E-02 -.137E-01
   -.933E+00 -.252E+01 0.219E+02   0.936E+00 0.252E+01 -.219E+02   0.137E-03 -.445E-02 0.636E-04
   -.229E+01 0.898E+00 0.211E+02   0.229E+01 -.894E+00 -.211E+02   -.116E-01 0.920E-03 -.939E-02
   0.227E+00 -.157E+01 0.210E+02   -.221E+00 0.158E+01 -.210E+02   -.713E-02 -.118E-01 0.817E-02
   0.250E+01 0.180E+01 0.211E+02   -.249E+01 -.180E+01 -.211E+02   -.106E-01 0.125E-02 0.489E-02
   0.468E-01 -.301E-01 -.353E+03   -.429E-01 0.235E-01 0.353E+03   -.170E-01 0.156E-01 -.173E-01
   -.228E+03 0.155E+03 -.543E+03   0.279E+03 -.190E+03 0.546E+03   -.527E+02 0.358E+02 -.355E+01
   0.228E+03 -.155E+03 -.521E+03   -.279E+03 0.190E+03 0.518E+03   0.527E+02 -.359E+02 0.316E+01
 -----------------------------------------------------------------------------------------------
   -.150E-01 0.180E-02 0.381E+00   0.114E-12 -.114E-12 -.227E-12   -.229E-01 0.213E-01 -.383E+00
 
 
 POSITION                                       TOTAL-FORCE (eV/Angst)
 -----------------------------------------------------------------------------------
     11.98348      0.00342      0.01417        -0.006460      0.007062     -0.000217
     -0.34154      1.42665      0.01100        -0.014797      0.018365     -0.001248
      2.12355      0.00315      0.01249         0.011175      0.013359     -0.004054
      2.12326      1.42653      0.00641         0.023667      0.017766     -0.000647
     10.75099      2.13819      0.01213        -0.006994      0.017382      0.000948
     -1.57382      3.56123      0.01110        -0.023898      0.014536     -0.001875
      0.89078      2.13854      0.00548         0.006847      0.015303      0.006870
      0.89099      3.56147      0.00181        -0.012081      0.013487      0.016904
      4.58864      0.00346      0.01135         0.027667     -0.019088     -0.001309
      4.58894      1.42623      0.00646         0.010738      0.024693      0.018672
      9.51854      4.27281      0.01369         0.017326      0.000320     -0.000642
     -2.80632      5.69591      0.01434        -0.005422     -0.017118      0.000246
      2.12300      4.27302      0.00000         0.017113      0.019384      0.027401
      2.12335      5.69594      0.00581         0.003369      0.006170      0.001047
      7.05344      0.00333      0.01399         0.007811     -0.014548     -0.000990
      7.05353      1.42635      0.01368        -0.002538      0.013400     -0.005641
      8.28610      6.40752      0.01601         0.018795     -0.020991     -0.000163
     -4.03885      7.83070      0.01636         0.008240     -0.018343      0.000565
      3.35586      6.40753      0.01007        -0.016358     -0.011529     -0.002462
      3.35599      7.83072      0.01320        -0.017752     -0.007432      0.000839
     -0.34146      4.27290      0.00723         0.001075      0.020335     -0.004174
     -0.34138      5.69591      0.00946        -0.011204      0.002207      0.001021
      3.35624      2.13791      0.00222        -0.000816      0.029935      0.028025
      3.35573      3.56155      0.00139         0.030656     -0.002963      0.019103
     -1.57395      6.40758      0.01311         0.027109     -0.015039     -0.001900
     -1.57385      7.83068      0.01438         0.010484     -0.002691      0.001044
      5.82093      2.13784      0.01033         0.022073      0.006014      0.000542
      5.82114      3.56097      0.01156         0.004006     -0.000723     -0.005353
      0.89092      6.40755      0.00907         0.004109     -0.000584     -0.003693
      0.89106      7.83068      0.01235        -0.007340      0.007632      0.001817
      4.58871      4.27293      0.00850        -0.018418     -0.000911     -0.007889
      4.58852      5.69606      0.01149         0.001363     -0.021361     -0.003993
      9.51845      0.00337      0.01490        -0.016765     -0.005973      0.000772
      9.51855      1.42644      0.01438        -0.029760      0.021034     -0.000584
      8.28593      2.13803      0.01453         0.001663     -0.000544      0.001918
      8.28613      3.56115      0.01464        -0.012150     -0.004288     -0.002083
      7.05356      4.27269      0.01457         0.005414     -0.007957      0.000976
      7.05362      5.69588      0.01553        -0.001380     -0.029201     -0.000574
      5.82112      6.40755      0.01489        -0.014069     -0.017608      0.000614
      5.82102      7.83073      0.01579        -0.004774     -0.019454      0.000706
      7.05363      8.54227      0.01631        -0.002581     -0.011545      0.002011
     -5.27149      9.96549      0.01495         0.000886     -0.001721     -0.001415
     -2.80638      8.54234      0.01558         0.029144     -0.015444      0.000039
     -2.80627      9.96553      0.01362         0.019690      0.004127     -0.002763
     -0.34149      8.54239      0.01378         0.023580     -0.015906     -0.001202
     -0.34138      9.96550      0.01354         0.011755      0.011097     -0.001782
      2.12343      8.54232      0.01336        -0.012638     -0.013962     -0.000435
      2.12354      9.96544      0.01469        -0.024217      0.014148     -0.002506
      4.58846      8.54235      0.01505        -0.019429     -0.016438      0.002146
      4.58853      9.96550      0.01517        -0.024644      0.006969      0.001475
      3.04930      2.68154      4.45449        -0.027726      0.016861      0.006583
      4.02070      2.02068      4.51892        -1.652927      1.089936     -0.140235
      2.07767      3.34267      4.39504         1.641382     -1.098164      0.057547
 -----------------------------------------------------------------------------------
    total drift:                               -0.037891      0.023068     -0.002342


--------------------------------------------------------------------------------------------------------



  FREE ENERGIE OF THE ION-ELECTRON SYSTEM (eV)
  ---------------------------------------------------
  free  energy   TOTEN  =      -525.91524758 eV

  energy  without entropy=     -525.91524758  energy(sigma->0) =     -525.91524758
 


--------------------------------------------------------------------------------------------------------


    POTLOK:  cpu time    8.4085: real time    8.4768


--------------------------------------------------------------------------------------------------------


 writing wavefunctions
     LOOP+:  cpu time 1211.0489: real time 1221.6330
    4ORBIT:  cpu time    0.0000: real time    0.0000

 total amount of memory used by VASP MPI-rank0   698619. kBytes
=======================================================================

   base      :      30000. kBytes
   nonl-proj :     230539. kBytes
   fftplans  :      40716. kBytes
   grid      :     363125. kBytes
   one-center:        162. kBytes
   wavefun   :      34077. kBytes
 
  
  
 General timing and accounting informations for this job:
 ========================================================
  
                  Total CPU time used (sec):     1255.731
                            User time (sec):     1214.864
                          System time (sec):       40.867
                         Elapsed time (sec):     1267.563
  
                   Maximum memory used (kb):     1478432.
                   Average memory used (kb):          N/A
  
                          Minor page faults:       348464
                          Major page faults:           79
                 Voluntary context switches:         3812
