 vasp.6.2.1 16May21 (build Nov 06 2021 14:46:37) complex                        
  
 executed on             LinuxIFC date 2025.04.16  22:39:13
 running on  112 total cores
 distrk:  each k-point on   56 cores,    2 groups
 distr:  one band on NCORE=   1 cores,   56 groups


--------------------------------------------------------------------------------------------------------


 INCAR:
   ALGO = Conjugate
   KPAR = 2
   NCORE = 32
   ISMEAR = 0
   SIGMA = 0.01
   PREC = Accurate
   EDIFF = 1E-7
   ENCUT = 1000
   ISIF = 0
   METAGGA = SCAN
   LUSE_VDW = .TRUE.
   BPARAM = 15.7
   LASPH = .TRUE.
   SYMPREC = 1E-7
   NELM = 200

 POTCAR:    PAW_PBE C_h 06Feb2004                 
 POTCAR:    PAW_PBE O_h 06Feb2004                 
 -----------------------------------------------------------------------------
|                                                                             |
|           W    W    AA    RRRRR   N    N  II  N    N   GGGG   !!!           |
|           W    W   A  A   R    R  NN   N  II  NN   N  G    G  !!!           |
|           W    W  A    A  R    R  N N  N  II  N N  N  G       !!!           |
|           W WW W  AAAAAA  RRRRR   N  N N  II  N  N N  G  GGG   !            |
|           WW  WW  A    A  R   R   N   NN  II  N   NN  G    G                |
|           W    W  A    A  R    R  N    N  II  N    N   GGGG   !!!           |
|                                                                             |
|     The value NCORE = 32 specified in the INCAR file was overwritten,       |
|     because it was not compatible with the 56 processes available:          |
|     NCORE = 1                                                               |
|     was used instead, please check that this makes sense for your           |
|     machine.                                                                |
|                                                                             |
 -----------------------------------------------------------------------------

 -----------------------------------------------------------------------------
|                                                                             |
|           W    W    AA    RRRRR   N    N  II  N    N   GGGG   !!!           |
|           W    W   A  A   R    R  NN   N  II  NN   N  G    G  !!!           |
|           W    W  A    A  R    R  N N  N  II  N N  N  G       !!!           |
|           W WW W  AAAAAA  RRRRR   N  N N  II  N  N N  G  GGG   !            |
|           WW  WW  A    A  R   R   N   NN  II  N   NN  G    G                |
|           W    W  A    A  R    R  N    N  II  N    N   GGGG   !!!           |
|                                                                             |
|     For optimal performance we recommend to set                             |
|       NCORE = 2 up to number-of-cores-per-socket                            |
|     NCORE specifies how many cores store one orbital (NPAR=cpu/NCORE).      |
|     This setting can greatly improve the performance of VASP for DFT.       |
|     The default, NCORE=1 might be grossly inefficient on modern             |
|     multi-core architectures or massively parallel machines. Do your        |
|     own testing! More info at https://www.vasp.at/wiki/index.php/NCORE      |
|     Unfortunately you need to use the default for GW and RPA                |
|     calculations (for HF NCORE is supported but not extensively tested      |
|     yet).                                                                   |
|                                                                             |
 -----------------------------------------------------------------------------

 -----------------------------------------------------------------------------
|                                                                             |
|               ----> ADVICE to this user running VASP <----                  |
|                                                                             |
|     You have switched on vdW-DFT.                                           |
|     This routine was written and supplied by Jiri Klimes. We recommend      |
|     that you carefully read and cite the following publications:            |
|       J. Klimes, D.R. Bowler, A. Michelides                                 |
|          J. Phys.: Cond Matt. 22 022201 (2010)                              |
|       J. Klimes, D.R. Bowler, A. Michelides                                 |
|          Phys. Rev. B. 83, 195131 (2011)                                    |
|     and references therein.                                                 |
|                                                                             |
 -----------------------------------------------------------------------------

 POTCAR:    PAW_PBE C_h 06Feb2004                 
   VRHFIN =C: s2p2                                                                                  
   LEXCH  = PE                                                                                      
   EATOM  =   147.1560 eV,   10.8157 Ry                                                             
                                                                                                    
   TITEL  = PAW_PBE C_h 06Feb2004                                                                   
   LULTRA =        F    use ultrasoft PP ?                                                          
   IUNSCR =        1    unscreen: 0-lin 1-nonlin 2-no                                               
   RPACOR =    0.800    partial core radius                                                         
   POMASS =   12.011; ZVAL   =    4.000    mass and valenz                                          
   RCORE  =    1.100    outmost cutoff radius                                                       
   RWIGS  =    1.630; RWIGS  =    0.863    wigner-seitz radius (au A)                               
   ENMAX  =  700.000; ENMIN  =  500.000 eV                                                          
   ICORE  =        2    local potential                                                             
   LCOR   =        T    correct aug charges                                                         
   LPAW   =        T    paw PP                                                                      
   EAUG   =  946.768                                                                                
   DEXC   =    0.000                                                                                
   RMAX   =    1.128    core radius for proj-oper                                                   
   RAUG   =    1.300    factor for augmentation sphere                                              
   RDEP   =    1.162    radius for radial grids                                                     
   RDEPT  =    1.088    core radius for aug-charge                                                  
                                                                                                    
   Atomic configuration                                                                             
    4 entries                                                                                       
     n  l   j            E        occ.                                                              
     1  0  0.50      -273.3789   2.0000                                                             
     2  0  0.50       -13.7508   2.0000                                                             
     2  1  0.50        -5.2854   2.0000                                                             
     3  2  1.50        -5.4423   0.0000                                                             
   Description                                                                                      
     l       E           TYP  RCUT    TYP  RCUT                                                     
     0    -13.7508458     23  1.100                                                                 
     0     -8.2022199     23  1.100                                                                 
     1     -5.2854383     23  1.100                                                                 
     1      1.1560700     23  1.100                                                                 
     2     -5.4423304      7  1.100                                                                 
  local pseudopotential read in
  partial core-charges read in
  partial kinetic energy density read in
  atomic valenz-charges read in
  non local Contribution for L=           0  read in
    real space projection operators read in
  non local Contribution for L=           0  read in
    real space projection operators read in
  non local Contribution for L=           1  read in
    real space projection operators read in
  non local Contribution for L=           1  read in
    real space projection operators read in
    PAW grid and wavefunctions read in
 
   number of l-projection  operators is LMAX  =           4
   number of lm-projection operators is LMMAX =           8
 
 POTCAR:    PAW_PBE O_h 06Feb2004                 
   VRHFIN =O: s2p4                                                                                  
   LEXCH  = PE                                                                                      
   EATOM  =   432.3788 eV,   31.7789 Ry                                                             
                                                                                                    
   TITEL  = PAW_PBE O_h 06Feb2004                                                                   
   LULTRA =        F    use ultrasoft PP ?                                                          
   IUNSCR =        1    unscreen: 0-lin 1-nonlin 2-no                                               
   RPACOR =    0.800    partial core radius                                                         
   POMASS =   16.000; ZVAL   =    6.000    mass and valenz                                          
   RCORE  =    1.100    outmost cutoff radius                                                       
   RWIGS  =    1.400; RWIGS  =    0.741    wigner-seitz radius (au A)                               
   ENMAX  =  700.000; ENMIN  =  500.000 eV                                                          
   ICORE  =        2    local potential                                                             
   LCOR   =        T    correct aug charges                                                         
   LPAW   =        T    paw PP                                                                      
   EAUG   =  888.804                                                                                
   DEXC   =    0.000                                                                                
   RMAX   =    1.128    core radius for proj-oper                                                   
   RAUG   =    1.300    factor for augmentation sphere                                              
   RDEP   =    1.125    radius for radial grids                                                     
   RDEPT  =    1.088    core radius for aug-charge                                                  
                                                                                                    
   Atomic configuration                                                                             
    4 entries                                                                                       
     n  l   j            E        occ.                                                              
     1  0  0.50      -514.6923   2.0000                                                             
     2  0  0.50       -23.9615   2.0000                                                             
     2  1  0.50        -9.0305   4.0000                                                             
     3  2  1.50        -9.5241   0.0000                                                             
   Description                                                                                      
     l       E           TYP  RCUT    TYP  RCUT                                                     
     0    -23.9615319     23  1.100                                                                 
     0    -25.3221145     23  1.100                                                                 
     1     -9.0304911     23  1.100                                                                 
     1     -5.4802209     23  1.100                                                                 
     2     -9.5240782      7  1.100                                                                 
  local pseudopotential read in
  partial core-charges read in
  partial kinetic energy density read in
  atomic valenz-charges read in
  non local Contribution for L=           0  read in
    real space projection operators read in
  non local Contribution for L=           0  read in
    real space projection operators read in
  non local Contribution for L=           1  read in
    real space projection operators read in
  non local Contribution for L=           1  read in
    real space projection operators read in
    PAW grid and wavefunctions read in
 
   number of l-projection  operators is LMAX  =           4
   number of lm-projection operators is LMMAX =           8
 
 -----------------------------------------------------------------------------
|                                                                             |
|               ----> ADVICE to this user running VASP <----                  |
|                                                                             |
|     You have a (more or less) 'large supercell' and for larger cells it     |
|     might be more efficient to use real-space projection operators.         |
|     Therefore, try LREAL= Auto in the INCAR file.                           |
|     Mind: For very accurate calculation, you might also keep the            |
|     reciprocal projection scheme (i.e. LREAL=.FALSE.).                      |
|                                                                             |
 -----------------------------------------------------------------------------

  PAW_PBE C_h 06Feb2004                 :
 energy of atom  1       EATOM= -147.1560
 kinetic energy error for atom=    0.0031 (will be added to EATOM!!)
  PAW_PBE O_h 06Feb2004                 :
 energy of atom  2       EATOM= -432.3788
 kinetic energy error for atom=    0.0171 (will be added to EATOM!!)
 
 
 POSCAR:  C  O
  positions in cartesian coordinates
  No initial velocities read in

 METAGGA = SCAN     LMAXTAU =  6    LMIXTAU =  F

 exchange correlation table for  LEXCH =        8
   RHO(1)=    0.500       N(1)  =     2000
   RHO(2)=  100.500       N(2)  =     4000
 


--------------------------------------------------------------------------------------------------------


 ion  position               nearest neighbor table
   1  0.972  0.000  0.001-  50 1.42   2 1.42  42 1.42
   2  0.039  0.134  0.000-   5 1.42   7 1.42   1 1.42
   3  0.172  0.000  0.000-  42 1.42  44 1.42   4 1.42
   4  0.239  0.134  0.000-   7 1.42   3 1.42  23 1.42
   5  0.972  0.200  0.000-   6 1.42   2 1.42  34 1.42
   6  0.039  0.334  0.000-   5 1.42  21 1.42  11 1.42
   7  0.172  0.200  0.000-   8 1.42   2 1.42   4 1.42
   8  0.239  0.334  0.000-  13 1.42   7 1.42  21 1.42
   9  0.372  0.000  0.000-  10 1.42  44 1.42  46 1.42
  10  0.439  0.134  0.000-  27 1.42   9 1.42  23 1.42
  11  0.972  0.400  0.001-  12 1.42  36 1.42   6 1.42
  12  0.039  0.534  0.001-  25 1.42  11 1.42  17 1.42
  13  0.372  0.400  0.000-   8 1.42  14 1.42  24 1.42
  14  0.439  0.534  0.000-  13 1.42  29 1.42  19 1.42
  15  0.572  0.000  0.001-  46 1.42  16 1.42  48 1.42
  16  0.639  0.134  0.001-  15 1.42  35 1.42  27 1.42
  17  0.972  0.600  0.001-  38 1.42  18 1.42  12 1.42
  18  0.039  0.734  0.001-  43 1.42  41 1.42  17 1.42
  19  0.572  0.600  0.000-  14 1.42  20 1.42  32 1.42
  20  0.639  0.734  0.001-  49 1.42  19 1.42  47 1.42
  21  0.172  0.400  0.000-  22 1.42   8 1.42   6 1.42
  22  0.239  0.534  0.000-  21 1.42  29 1.42  25 1.42
  23  0.372  0.200  0.000-  10 1.42   4 1.42  24 1.42
  24  0.439  0.334  0.000-  13 1.42  31 1.42  23 1.42
  25  0.172  0.600  0.001-  26 1.42  12 1.42  22 1.42
  26  0.239  0.734  0.001-  25 1.42  45 1.42  43 1.42
  27  0.572  0.200  0.000-  10 1.42  28 1.42  16 1.42
  28  0.639  0.334  0.000-  27 1.42  37 1.42  31 1.42
  29  0.372  0.600  0.000-  22 1.42  14 1.42  30 1.42
  30  0.439  0.734  0.000-  47 1.42  29 1.42  45 1.42
  31  0.572  0.400  0.000-  32 1.42  28 1.42  24 1.42
  32  0.639  0.534  0.000-  31 1.42  39 1.42  19 1.42
  33  0.772  0.000  0.001-  34 1.42  48 1.42  50 1.42
  34  0.839  0.134  0.001-  33 1.42   5 1.42  35 1.42
  35  0.772  0.200  0.001-  36 1.42  16 1.42  34 1.42
  36  0.839  0.334  0.001-  35 1.42  11 1.42  37 1.42
  37  0.772  0.400  0.001-  28 1.42  38 1.42  36 1.42
  38  0.839  0.534  0.001-  17 1.42  37 1.42  39 1.42
  39  0.772  0.600  0.001-  40 1.42  38 1.42  32 1.42
  40  0.839  0.734  0.001-  39 1.42  49 1.42  41 1.42
  41  0.972  0.800  0.001-  18 1.42  42 1.42  40 1.42
  42  0.039  0.934  0.001-   3 1.42  41 1.42   1 1.42
  43  0.172  0.800  0.001-  18 1.42  44 1.42  26 1.42
  44  0.239  0.934  0.001-   9 1.42  43 1.42   3 1.42
  45  0.372  0.800  0.001-  26 1.42  46 1.42  30 1.42
  46  0.439  0.934  0.001-  15 1.42  45 1.42   9 1.42
  47  0.572  0.800  0.001-  30 1.42  48 1.42  20 1.42
  48  0.639  0.934  0.001-  47 1.42  33 1.42  15 1.42
  49  0.772  0.800  0.001-  50 1.42  20 1.42  40 1.42
  50  0.839  0.934  0.001-  49 1.42   1 1.42  33 1.42
  51  0.373  0.251  0.212-  52 1.18  53 1.18
  52  0.421  0.189  0.214-  51 1.18
  53  0.325  0.313  0.210-  51 1.18
 
  LATTYP: Found a hexagonal cell.
 ALAT       =    12.3250000000
 C/A-ratio  =     2.0283975659
  
  Lattice vectors:
  
 A1 = (  12.3250000000,   0.0000000000,   0.0000000000)
 A2 = (  -6.1625000000,  10.6737631016,   0.0000000000)
 A3 = (   0.0000000000,   0.0000000000,  25.0000000000)


Analysis of symmetry for initial positions (statically):
=====================================================================
 Subroutine PRICEL returns:
 Original cell was already a primitive cell.
 

 Routine SETGRP: Setting up the symmetry group for a 
 hexagonal supercell.


 Subroutine GETGRP returns: Found  1 space group operations
 (whereof  1 operations were pure point group operations)
 out of a pool of 24 trial point group operations.


The static configuration has the point symmetry C_1 .


Analysis of symmetry for dynamics (positions and initial velocities):
=====================================================================
 Subroutine PRICEL returns:
 Original cell was already a primitive cell.
 

 Routine SETGRP: Setting up the symmetry group for a 
 hexagonal supercell.


 Subroutine GETGRP returns: Found  1 space group operations
 (whereof  1 operations were pure point group operations)
 out of a pool of 24 trial point group operations.


The dynamic configuration has the point symmetry C_1 .


 Subroutine INISYM returns: Found  1 space group operations
 (whereof  1 operations are pure point group operations),
 and found     1 'primitive' translations


----------------------------------------------------------------------------------------

                                     Primitive cell                                     

  volume of cell :    3288.8533

  direct lattice vectors                    reciprocal lattice vectors
    12.325000000  0.000000000  0.000000000     0.081135903  0.046843835  0.000000000
    -6.162500000 10.673763102  0.000000000     0.000000000  0.093687670  0.000000000
     0.000000000  0.000000000 25.000000000     0.000000000  0.000000000  0.040000000

  length of vectors
    12.325000000 12.325000000 25.000000000     0.093687670  0.093687670  0.040000000

  position of ions in fractional coordinates (direct lattice)
     0.972450841  0.000320818  0.000566711
     0.039118382  0.133659505  0.000440173
     0.172443627  0.000295449  0.000499628
     0.239096278  0.133647917  0.000256468
     0.972452058  0.200322012  0.000485219
     0.039128360  0.333643771  0.000444150
     0.172451764  0.200354552  0.000219167
     0.239124359  0.333665720  0.000072260
     0.372465565  0.000324403  0.000453913
     0.439137473  0.133619939  0.000258338
     0.972449824  0.400309362  0.000547611
     0.039124981  0.533636789  0.000573410
     0.372416176  0.400329481  0.000000000
     0.439099602  0.533638981  0.000232414
     0.572443676  0.000312125  0.000559580
     0.639110207  0.133631751  0.000547275
     0.972452703  0.600305653  0.000640289
     0.039124495  0.733640359  0.000654513
     0.572433471  0.600306242  0.000402895
     0.639111888  0.733641879  0.000527905
     0.172454630  0.400318228  0.000289045
     0.239120185  0.533636548  0.000378509
     0.372459750  0.200295993  0.000088997
     0.439107096  0.333673419  0.000055762
     0.172452155  0.600311506  0.000524340
     0.239123371  0.733638574  0.000575129
     0.572431082  0.200289171  0.000413296
     0.639112773  0.333618630  0.000462376
     0.372439808  0.600308022  0.000362844
     0.439116090  0.733637858  0.000494190
     0.572469358  0.400320504  0.000339918
     0.639119408  0.533650873  0.000459610
     0.772445723  0.000315427  0.000596161
     0.839116277  0.133640203  0.000575306
     0.772440513  0.200307432  0.000581033
     0.839120241  0.333635728  0.000585467
     0.772446320  0.400298367  0.000582978
     0.839118980  0.533633964  0.000621100
     0.772456143  0.600308173  0.000595712
     0.839115033  0.733643180  0.000631512
     0.972455313  0.800305582  0.000652233
     0.039114714  0.933643289  0.000598051
     0.172457971  0.800312211  0.000623372
     0.239134551  0.933647193  0.000544850
     0.372451396  0.800316674  0.000551399
     0.439124489  0.933644769  0.000541430
     0.572441101  0.800310054  0.000534535
     0.639115067  0.933638985  0.000587644
     0.772445098  0.800313187  0.000602062
     0.839116614  0.933644338  0.000606830
     0.373021009  0.251226878  0.211892619
     0.420879805  0.189313152  0.214469493
     0.325156981  0.313167186  0.209514424

  ion indices of the primitive-cell ions
   primitive index   ion index
                 1           1
                 2           2
                 3           3
                 4           4
                 5           5
                 6           6
                 7           7
                 8           8
                 9           9
                10          10
                11          11
                12          12
                13          13
                14          14
                15          15
                16          16
                17          17
                18          18
                19          19
                20          20
                21          21
                22          22
                23          23
                24          24
                25          25
                26          26
                27          27
                28          28
                29          29
                30          30
                31          31
                32          32
                33          33
                34          34
                35          35
                36          36
                37          37
                38          38
                39          39
                40          40
                41          41
                42          42
                43          43
                44          44
                45          45
                46          46
                47          47
                48          48
                49          49
                50          50
                51          51
                52          52
                53          53

----------------------------------------------------------------------------------------

 
 
 KPOINTS: auto                                    

Automatic generation of k-mesh.
 Grid dimensions read from file:
 generate k-points for:    1    1    1

 Generating k-lattice:

  Cartesian coordinates                     Fractional coordinates (reciprocal lattice)
     0.081135903  0.046843835  0.000000000     1.000000000 -0.000000000  0.000000000
     0.000000000  0.093687670  0.000000000     0.000000000  1.000000000  0.000000000
     0.000000000  0.000000000  0.040000000     0.000000000  0.000000000  1.000000000

  Length of vectors
     0.093687670  0.093687670  0.040000000

  Shift w.r.t. Gamma in fractional coordinates (k-lattice)
     0.000000000  0.000000000  0.000000000

 
 Subroutine IBZKPT returns following result:
 ===========================================
 
 Found      1 irreducible k-points:
 
 Following reciprocal coordinates:
            Coordinates               Weight
  0.000000  0.000000  0.000000      1.000000
 
 Following cartesian coordinates:
            Coordinates               Weight
  0.000000  0.000000  0.000000      1.000000
 


--------------------------------------------------------------------------------------------------------




 Dimension of arrays:
   k-points           NKPTS =      1   k-points in BZ     NKDIM =      1   number of bands    NBANDS=    168
   number of dos      NEDOS =    301   number of ions     NIONS =     53
   non local maximal  LDIM  =      4   non local SUM 2l+1 LMDIM =      8
   total plane-waves  NPLWV = ******
   max r-space proj   IRMAX =      1   max aug-charges    IRDMAX=  10008
   dimension x,y,z NGX =   128 NGY =  128 NGZ =  270
   dimension x,y,z NGXF=   256 NGYF=  256 NGZF=  540
   support grid    NGXF=   256 NGYF=  256 NGZF=  540
   ions per type =              51   2
   NGX,Y,Z   is equivalent  to a cutoff of  17.27, 17.27, 17.95 a.u.
   NGXF,Y,Z  is equivalent  to a cutoff of  34.53, 34.53, 35.91 a.u.

 SYSTEM =  unknown system                          
 POSCAR =   C  O                                   

 Startparameter for this run:
   NWRITE =      2    write-flag & timer
   PREC   = accura    normal or accurate (medium, high low for compatibility)
   ISTART =      0    job   : 0-new  1-cont  2-samecut
   ICHARG =      2    charge: 1-file 2-atom 10-const
   ISPIN  =      1    spin polarized calculation?
   LNONCOLLINEAR =      F non collinear calculations
   LSORBIT =      F    spin-orbit coupling
   INIWAV =      1    electr: 0-lowe 1-rand  2-diag
   LASPH  =      T    aspherical Exc in radial PAW
 Electronic Relaxation 1
   ENCUT  = 1000.0 eV  73.50 Ry    8.57 a.u.  31.78 31.78 64.46*2*pi/ulx,y,z
   ENINI  = 1000.0     initial cutoff
   ENAUG  =  946.8 eV  augmentation charge cutoff
   NELM   =    200;   NELMIN=  2; NELMDL= -5     # of ELM steps 
   EDIFF  = 0.1E-06   stopping-criterion for ELM
   LREAL  =      F    real-space projection
   NLSPLINE    = F    spline interpolate recip. space projectors
   LCOMPAT=      F    compatible to vasp.4.4
   GGA_COMPAT  = T    GGA compatible to vasp.4.4-vasp.4.6
   LMAXPAW     = -100 max onsite density
   LMAXMIX     =    2 max onsite mixed and CHGCAR
   VOSKOWN=      0    Vosko Wilk Nusair interpolation
   ROPT   =    0.00000   0.00000
 Ionic relaxation
   EDIFFG = 0.1E-05   stopping-criterion for IOM
   NSW    =      0    number of steps for IOM
   NBLOCK =      1;   KBLOCK =      1    inner block; outer block 
   IBRION =     -1    ionic relax: 0-MD 1-quasi-New 2-CG
   NFREE  =      0    steps in history (QN), initial steepest desc. (CG)
   ISIF   =      0    stress and relaxation
   IWAVPR =     10    prediction:  0-non 1-charg 2-wave 3-comb
   ISYM   =      2    0-nonsym 1-usesym 2-fastsym
   LCORR  =      T    Harris-Foulkes like correction to forces

   POTIM  = 0.5000    time-step for ionic-motion
   TEIN   =    0.0    initial temperature
   TEBEG  =    0.0;   TEEND  =   0.0 temperature during run
   SMASS  =  -3.00    Nose mass-parameter (am)
   estimated Nose-frequenzy (Omega)   =  0.10E-29 period in steps = 0.13E+47 mass=  -0.347E-26a.u.
   SCALEE = 1.0000    scale energy and forces
   NPACO  =    256;   APACO  = 16.0  distance and # of slots for P.C.
   PSTRESS=    0.0 pullay stress

  Mass of Ions in am
   POMASS =  12.01 16.00
  Ionic Valenz
   ZVAL   =   4.00  6.00
  Atomic Wigner-Seitz radii
   RWIGS  =  -1.00 -1.00
  virtual crystal weights 
   VCA    =   1.00  1.00
   NELECT =     216.0000    total number of electrons
   NUPDOWN=      -1.0000    fix difference up-down

 DOS related values:
   EMIN   =  10.00;   EMAX   =-10.00  energy-range for DOS
   EFERMI =   0.00
   ISMEAR =     0;   SIGMA  =   0.01  broadening in eV -4-tet -1-fermi 0-gaus

 Electronic relaxation 2 (details)
   IALGO  =     58    algorithm
   LDIAG  =      T    sub-space diagonalisation (order eigenvalues)
   LSUBROT=      F    optimize rotation matrix (better conditioning)
   TURBO    =      0    0=normal 1=particle mesh
   IRESTART =      0    0=no restart 2=restart with 2 vectors
   NREBOOT  =      0    no. of reboots
   NMIN     =      0    reboot dimension
   EREF     =   0.00    reference energy to select bands
   IMIX   =      4    mixing-type and parameters
     AMIX     =   0.40;   BMIX     =  1.00
     AMIX_MAG =   1.60;   BMIX_MAG =  1.00
     AMIN     =   0.10
     WC   =   100.;   INIMIX=   1;  MIXPRE=   1;  MAXMIX= -45

 Intra band minimization:
   WEIMIN = 0.0000     energy-eigenvalue tresh-hold
   EBREAK =  0.15E-09  absolut break condition
   DEPER  =   0.30     relativ break condition  

   TIME   =   0.40     timestep for ELM

  volume/ion in A,a.u.               =      62.05       418.76
  Fermi-wavevector in a.u.,A,eV,Ry     =   0.660508  1.248179  5.935820  0.436270
  Thomas-Fermi vector in A             =   1.732977
 
 Write flags
   LWAVE        =      T    write WAVECAR
   LDOWNSAMPLE  =      F    k-point downsampling of WAVECAR
   LCHARG       =      T    write CHGCAR
   LVTOT        =      F    write LOCPOT, total local potential
   LVHAR        =      F    write LOCPOT, Hartree potential only
   LELF         =      F    write electronic localiz. function (ELF)
   LORBIT       =      0    0 simple, 1 ext, 2 COOP (PROOUT), +10 PAW based schemes


 Dipole corrections
   LMONO  =      F    monopole corrections only (constant potential shift)
   LDIPOL =      F    correct potential (dipole corrections)
   IDIPOL =      0    1-x, 2-y, 3-z, 4-all directions 
   EPSILON=  1.0000000 bulk dielectric constant

 Exchange correlation treatment:
   GGA     =    --    GGA type
   LEXCH   =     8    internal setting for exchange type
   VOSKOWN=      0    Vosko Wilk Nusair interpolation
   LHFCALC =     F    Hartree Fock is set to
   LHFONE  =     F    Hartree Fock one center treatment
   AEXX    =    0.0000 exact exchange contribution

 vdW DFT:
   LUSE_VDW   =     T    switch on vdW DFT
   Zab_VDW    =-.8491    correlation parameter
   PARAM1     =0.1234
   PARAM2     =1.0000
   PARAM3     =0.0000
   -- rVV10 --
   BPARAM     =15.7000
   CPARAM     = 0.0093

 Linear response parameters
   LEPSILON=     F    determine dielectric tensor
   LRPA    =     F    only Hartree local field effects (RPA)
   LNABLA  =     F    use nabla operator in PAW spheres
   LVEL    =     F    velocity operator in full k-point grid
   LINTERFAST=   F  fast interpolation
   KINTER  =     0    interpolate to denser k-point grid
   CSHIFT  =0.1000    complex shift for real part using Kramers Kronig
   OMEGAMAX=  -1.0    maximum frequency
   DEG_THRESHOLD= 0.2000000E-02 threshold for treating states as degnerate
   RTIME   =   -0.100 relaxation time in fs
  (WPLASMAI=    0.000 imaginary part of plasma frequency in eV, 0.658/RTIME)
   DFIELD  = 0.0000000 0.0000000 0.0000000 field for delta impulse in time
 
 Orbital magnetization related:
   ORBITALMAG=     F  switch on orbital magnetization
   LCHIMAG   =     F  perturbation theory with respect to B field
   DQ        =  0.001000  dq finite difference perturbation B field
   LLRAUG    =     F  two centre corrections for induced B field



--------------------------------------------------------------------------------------------------------


 Static calculation
 charge density and potential will be updated during run
 non-spin polarized calculation
 Conjugate gradient for all bands (Freysoldt, et al. PRB 79, 241103 (2009))
 preconditioned conjugated gradient                                        
 perform sub-space diagonalisation
    before iterative eigenvector-optimisation
 modified Broyden-mixing scheme, WC =      100.0
 initial mixing is a Kerker type mixing with AMIX =  0.4000 and BMIX =      1.0000
 Hartree-type preconditioning will be used
 using additional bands           60
 reciprocal scheme for non local part
 use partial core corrections
 no Harris-corrections to forces 
 use gradient corrections 
 use of overlap-Matrix (Vanderbilt PP)
 Gauss-broadening in eV      SIGMA  =   0.01


--------------------------------------------------------------------------------------------------------


  energy-cutoff  :     1000.00
  volume of cell :     3288.85
      direct lattice vectors                 reciprocal lattice vectors
    12.325000000  0.000000000  0.000000000     0.081135903  0.046843835  0.000000000
    -6.162500000 10.673763102  0.000000000     0.000000000  0.093687670  0.000000000
     0.000000000  0.000000000 25.000000000     0.000000000  0.000000000  0.040000000

  length of vectors
    12.325000000 12.325000000 25.000000000     0.093687670  0.093687670  0.040000000


 
 k-points in units of 2pi/SCALE and weight: auto                                    
   0.00000000  0.00000000  0.00000000       1.000
 
 k-points in reciprocal lattice and weights: auto                                    
   0.00000000  0.00000000  0.00000000       1.000
 
 position of ions in fractional coordinates (direct lattice) 
   0.97245084  0.00032082  0.00056671
   0.03911838  0.13365950  0.00044017
   0.17244363  0.00029545  0.00049963
   0.23909628  0.13364792  0.00025647
   0.97245206  0.20032201  0.00048522
   0.03912836  0.33364377  0.00044415
   0.17245176  0.20035455  0.00021917
   0.23912436  0.33366572  0.00007226
   0.37246557  0.00032440  0.00045391
   0.43913747  0.13361994  0.00025834
   0.97244982  0.40030936  0.00054761
   0.03912498  0.53363679  0.00057341
   0.37241618  0.40032948  0.00000000
   0.43909960  0.53363898  0.00023241
   0.57244368  0.00031213  0.00055958
   0.63911021  0.13363175  0.00054727
   0.97245270  0.60030565  0.00064029
   0.03912449  0.73364036  0.00065451
   0.57243347  0.60030624  0.00040289
   0.63911189  0.73364188  0.00052791
   0.17245463  0.40031823  0.00028904
   0.23912018  0.53363655  0.00037851
   0.37245975  0.20029599  0.00008900
   0.43910710  0.33367342  0.00005576
   0.17245216  0.60031151  0.00052434
   0.23912337  0.73363857  0.00057513
   0.57243108  0.20028917  0.00041330
   0.63911277  0.33361863  0.00046238
   0.37243981  0.60030802  0.00036284
   0.43911609  0.73363786  0.00049419
   0.57246936  0.40032050  0.00033992
   0.63911941  0.53365087  0.00045961
   0.77244572  0.00031543  0.00059616
   0.83911628  0.13364020  0.00057531
   0.77244051  0.20030743  0.00058103
   0.83912024  0.33363573  0.00058547
   0.77244632  0.40029837  0.00058298
   0.83911898  0.53363396  0.00062110
   0.77245614  0.60030817  0.00059571
   0.83911503  0.73364318  0.00063151
   0.97245531  0.80030558  0.00065223
   0.03911471  0.93364329  0.00059805
   0.17245797  0.80031221  0.00062337
   0.23913455  0.93364719  0.00054485
   0.37245140  0.80031667  0.00055140
   0.43912449  0.93364477  0.00054143
   0.57244110  0.80031005  0.00053453
   0.63911507  0.93363899  0.00058764
   0.77244510  0.80031319  0.00060206
   0.83911661  0.93364434  0.00060683
   0.37302101  0.25122688  0.21189262
   0.42087980  0.18931315  0.21446949
   0.32515698  0.31316719  0.20951442
 
 position of ions in cartesian coordinates  (Angst):
  11.98347958  0.00342433  0.01416777
  -0.34154264  1.42664989  0.01100432
   2.12354700  0.00315355  0.01249070
   2.12325634  1.42652621  0.00641170
  10.75098721  2.13818970  0.01213047
  -1.57382270  3.56123457  0.01110375
   0.89078307  2.13853702  0.00547917
   0.89099273  3.56146885  0.00180651
   4.58863896  0.00346260  0.01134782
   4.58893648  1.42622757  0.00645846
   9.51853763  4.27280730  0.01369027
  -2.80632132  5.69591267  0.01433526
   2.12299894  4.27302204  0.00000000
   2.12335237  5.69593607  0.00581036
   7.05344483  0.00333155  0.01398950
   7.05352764  1.42635365  0.01368187
   8.28609598  6.40752033  0.01600723
  -4.03884931  7.83070339  0.01636283
   3.35585531  6.40752662  0.01007237
   3.35598594  7.83071962  0.01319763
  -0.34145776  4.27290193  0.00722612
  -0.34137895  5.69591010  0.00946273
   3.35624236  2.13791198  0.00222492
   3.35573251  3.56155103  0.00139405
  -1.57394684  6.40758280  0.01310850
  -1.57385216  7.83068434  0.01437823
   5.82093107  2.13783916  0.01033241
   5.82114012  3.56096622  0.01155939
   0.89092245  6.40754561  0.00907111
   0.89106251  7.83067670  0.01235474
   4.58870974  4.27292622  0.00849795
   4.58852320  5.69606300  0.01149026
   9.51844972  0.00336679  0.01490402
   9.51855036  1.42644387  0.01438264
   8.28593477  2.13803408  0.01452582
   8.28612680  3.56114872  0.01463668
   7.05356221  4.27268994  0.01457444
   7.05362213  5.69588251  0.01552751
   5.82112285  6.40754723  0.01489279
   5.82101669  7.83073350  0.01578780
   7.05362858  8.54227219  0.01630582
  -5.27148792  9.96548729  0.01495127
  -2.80637951  8.54234295  0.01558431
  -2.80626749  9.96552896  0.01362126
  -0.34148805  8.54239058  0.01378498
  -0.34137657  9.96550309  0.01353576
   2.12342586  8.54231992  0.01336337
   2.12354296  9.96544135  0.01469111
   4.58845581  8.54235337  0.01505154
   4.58852904  9.96549848  0.01517076
   3.04929830  2.68153618  5.29731547
   4.02070129  2.02068374  5.36173733
   2.07766701  3.34267235  5.23786060
 


--------------------------------------------------------------------------------------------------------


 k-point   1 :   0.0000 0.0000 0.0000  plane waves:  236157

 maximum and minimum number of plane-waves per node :    236157   236157

 maximum number of plane-waves:    236157
 maximum index in each direction: 
   IXMAX=   31   IYMAX=   31   IZMAX=   64
   IXMIN=  -31   IYMIN=  -31   IZMIN=  -64


 serial   3D FFT for wavefunctions
 parallel 3D FFT for charge:
    minimum data exchange during FFTs selected (reduces bandwidth)


 total amount of memory used by VASP MPI-rank0   698619. kBytes
=======================================================================

   base      :      30000. kBytes
   nonl-proj :     230539. kBytes
   fftplans  :      40716. kBytes
   grid      :     363125. kBytes
   one-center:        162. kBytes
   wavefun   :      34077. kBytes
 
     INWAV:  cpu time    0.0000: real time    0.0000
 Broyden mixing: mesh for mixing (old mesh)
   NGX = 63   NGY = 63   NGZ =129
  (NGX  =256   NGY  =256   NGZ  =540)
  gives a total of 512001 points

 initial charge density was supplied:
 charge density of overlapping atoms calculated
 number of electron     216.0000000 magnetization 
 keeping initial charge density in first step


--------------------------------------------------------------------------------------------------------


 Maximum index for augmentation-charges          471 (set IRDMAX)


--------------------------------------------------------------------------------------------------------


 First call to EWALD:  gamma=   0.119
 Maximum number of real-space cells 4x 4x 2
 Maximum number of reciprocal cells 2x 2x 4

    FEWALD:  cpu time    0.0025: real time    0.0026


--------------------------------------- Iteration      1(   1)  ---------------------------------------


    POTLOK:  cpu time    8.4986: real time    8.5557
    SETDIJ:  cpu time    0.0030: real time    0.0031
    TRIAL :  cpu time   31.5780: real time   31.8637
    CORREC:  cpu time    0.0008: real time    0.0010
    --------------------------------------------
      LOOP:  cpu time   40.0969: real time   40.4444

 eigenvalue-minimisations  :   336
 total energy-change (2. order) : 0.2530592E+04  (-0.1080064E+05)
 number of electron     216.0000000 magnetization 
 augmentation part      216.0000000 magnetization 

 Free energy of the ion-electron system (eV)
  ---------------------------------------------------
  alpha Z        PSCENC =        47.94900195
  Ewald energy   TEWEN  =     44407.38298792
  -Hartree energ DENC   =    -50476.55488451
  -exchange      EXHF   =         0.00000000
  -V(xc)+E(xc)   XCENC  =       604.26225514
  PAW double counting   =      6339.73130699    -6197.22120962
  entropy T*S    EENTRO =        -0.00002084
  eigenvalues    EBANDS =      -564.48151069
  atomic energy  EATOM  =      8369.52358910
  ---------------------------------------------------
  free energy    TOTEN  =      2530.59151544 eV

  energy without entropy =     2530.59153629  energy(sigma->0) =     2530.59152587


--------------------------------------------------------------------------------------------------------




--------------------------------------- Iteration      1(   2)  ---------------------------------------


    TRIAL :  cpu time   51.5309: real time   52.0025
    CORREC:  cpu time    0.0001: real time    0.0001
    --------------------------------------------
      LOOP:  cpu time   51.5657: real time   52.0454

 eigenvalue-minimisations  :   672
 total energy-change (2. order) :-0.2528636E+04  (-0.2405751E+04)
 number of electron     216.0000000 magnetization 
 augmentation part      216.0000000 magnetization 

 Free energy of the ion-electron system (eV)
  ---------------------------------------------------
  alpha Z        PSCENC =        47.94900195
  Ewald energy   TEWEN  =     44407.38298792
  -Hartree energ DENC   =    -50476.55488451
  -exchange      EXHF   =         0.00000000
  -V(xc)+E(xc)   XCENC  =       604.26225514
  PAW double counting   =      6339.73130699    -6197.22120962
  entropy T*S    EENTRO =        -0.00000000
  eigenvalues    EBANDS =     -3093.11749885
  atomic energy  EATOM  =      8369.52358910
  ---------------------------------------------------
  free energy    TOTEN  =         1.95554813 eV

  energy without entropy =        1.95554813  energy(sigma->0) =        1.95554813


--------------------------------------------------------------------------------------------------------




--------------------------------------- Iteration      1(   3)  ---------------------------------------


    TRIAL :  cpu time   34.8645: real time   35.1602
    CORREC:  cpu time    0.0001: real time    0.0001
    --------------------------------------------
      LOOP:  cpu time   34.8886: real time   35.2054

 eigenvalue-minimisations  :   392
 total energy-change (2. order) :-0.5863971E+03  (-0.5837247E+03)
 number of electron     216.0000000 magnetization 
 augmentation part      216.0000000 magnetization 

 Free energy of the ion-electron system (eV)
  ---------------------------------------------------
  alpha Z        PSCENC =        47.94900195
  Ewald energy   TEWEN  =     44407.38298792
  -Hartree energ DENC   =    -50476.55488451
  -exchange      EXHF   =         0.00000000
  -V(xc)+E(xc)   XCENC  =       604.26225514
  PAW double counting   =      6339.73130699    -6197.22120962
  entropy T*S    EENTRO =        -0.00000000
  eigenvalues    EBANDS =     -3679.51459950
  atomic energy  EATOM  =      8369.52358910
  ---------------------------------------------------
  free energy    TOTEN  =      -584.44155252 eV

  energy without entropy =     -584.44155252  energy(sigma->0) =     -584.44155252


--------------------------------------------------------------------------------------------------------




--------------------------------------- Iteration      1(   4)  ---------------------------------------


    TRIAL :  cpu time   38.2196: real time   38.5285
    CORREC:  cpu time    0.0001: real time    0.0001
    --------------------------------------------
      LOOP:  cpu time   38.2665: real time   38.5805

 eigenvalue-minimisations  :   448
 total energy-change (2. order) :-0.2985367E+02  (-0.2961063E+02)
 number of electron     216.0000000 magnetization 
 augmentation part      216.0000000 magnetization 

 Free energy of the ion-electron system (eV)
  ---------------------------------------------------
  alpha Z        PSCENC =        47.94900195
  Ewald energy   TEWEN  =     44407.38298792
  -Hartree energ DENC   =    -50476.55488451
  -exchange      EXHF   =         0.00000000
  -V(xc)+E(xc)   XCENC  =       604.26225514
  PAW double counting   =      6339.73130699    -6197.22120962
  entropy T*S    EENTRO =        -0.00000000
  eigenvalues    EBANDS =     -3709.36826570
  atomic energy  EATOM  =      8369.52358910
  ---------------------------------------------------
  free energy    TOTEN  =      -614.29521872 eV

  energy without entropy =     -614.29521872  energy(sigma->0) =     -614.29521872


--------------------------------------------------------------------------------------------------------




--------------------------------------- Iteration      1(   5)  ---------------------------------------


    TRIAL :  cpu time   38.2171: real time   38.5344
    CORREC:  cpu time    0.0001: real time    0.0001
    CHARGE:  cpu time    3.2523: real time    3.2767
    --------------------------------------------
      LOOP:  cpu time   41.5540: real time   41.8963

 eigenvalue-minimisations  :   448
 total energy-change (2. order) :-0.1031884E+01  (-0.1027308E+01)
 number of electron     216.0000000 magnetization 
 augmentation part       -0.4316806 magnetization 

 Free energy of the ion-electron system (eV)
  ---------------------------------------------------
  alpha Z        PSCENC =        47.94900195
  Ewald energy   TEWEN  =     44407.38298792
  -Hartree energ DENC   =    -50476.55488451
  -exchange      EXHF   =         0.00000000
  -V(xc)+E(xc)   XCENC  =       604.26225514
  PAW double counting   =      6339.73130699    -6197.22120962
  entropy T*S    EENTRO =        -0.00000000
  eigenvalues    EBANDS =     -3710.40014995
  atomic energy  EATOM  =      8369.52358910
  ---------------------------------------------------
  free energy    TOTEN  =      -615.32710297 eV

  energy without entropy =     -615.32710297  energy(sigma->0) =     -615.32710297


--------------------------------------------------------------------------------------------------------




--------------------------------------- Iteration      1(   6)  ---------------------------------------


    POTLOK:  cpu time    8.4065: real time    8.4617
    SETDIJ:  cpu time    0.0018: real time    0.0018
    TRIAL :  cpu time   22.3727: real time   22.5650
    CORREC:  cpu time   16.1602: real time   16.2830
    CHARGE:  cpu time    3.2477: real time    3.2716
    --------------------------------------------
      LOOP:  cpu time   50.3070: real time   50.7058

 eigenvalue-minimisations  :     0
 total energy-change (2. order) : 0.1039268E+03  (-0.1208959E+02)
 number of electron     216.0000000 magnetization 
 augmentation part       -0.4887094 magnetization 

 Free energy of the ion-electron system (eV)
  ---------------------------------------------------
  alpha Z        PSCENC =        47.94900195
  Ewald energy   TEWEN  =     44407.38298792
  -Hartree energ DENC   =    -51833.08800836
  -exchange      EXHF   =         0.00000000
  -V(xc)+E(xc)   XCENC  =       671.02900999
  PAW double counting   =    113921.20631575  -113784.41325527
  entropy T*S    EENTRO =        -0.00000000
  eigenvalues    EBANDS =     -2310.98992034
  atomic energy  EATOM  =      8369.52358910
  ---------------------------------------------------
  free energy    TOTEN  =      -511.40027926 eV

  energy without entropy =     -511.40027926  energy(sigma->0) =     -511.40027926


--------------------------------------------------------------------------------------------------------




--------------------------------------- Iteration      1(   7)  ---------------------------------------


    POTLOK:  cpu time    8.4057: real time    8.4622
    SETDIJ:  cpu time    0.0018: real time    0.0018
    TRIAL :  cpu time   22.3984: real time   22.5745
    CORREC:  cpu time   16.1791: real time   16.2899
    CHARGE:  cpu time    3.2569: real time    3.2804
    --------------------------------------------
      LOOP:  cpu time   50.2783: real time   50.6478

 eigenvalue-minimisations  :     0
 total energy-change (2. order) :-0.1210543E+02  (-0.1567193E+01)
 number of electron     216.0000000 magnetization 
 augmentation part       -0.5190259 magnetization 

 Free energy of the ion-electron system (eV)
  ---------------------------------------------------
  alpha Z        PSCENC =        47.94900195
  Ewald energy   TEWEN  =     44407.38298792
  -Hartree energ DENC   =    -51403.25501813
  -exchange      EXHF   =         0.00000000
  -V(xc)+E(xc)   XCENC  =       651.11021401
  PAW double counting   =    131847.29031149  -131707.75186476
  entropy T*S    EENTRO =        -0.00000000
  eigenvalues    EBANDS =     -2735.75493062
  atomic energy  EATOM  =      8369.52358910
  ---------------------------------------------------
  free energy    TOTEN  =      -523.50570904 eV

  energy without entropy =     -523.50570904  energy(sigma->0) =     -523.50570904


--------------------------------------------------------------------------------------------------------




--------------------------------------- Iteration      1(   8)  ---------------------------------------


    POTLOK:  cpu time    8.3926: real time    8.4539
    SETDIJ:  cpu time    0.0018: real time    0.0018
    TRIAL :  cpu time   22.3478: real time   22.5502
    CORREC:  cpu time   16.1420: real time   16.2891
    CHARGE:  cpu time    3.2461: real time    3.2733
    --------------------------------------------
      LOOP:  cpu time   50.1621: real time   50.6004

 eigenvalue-minimisations  :     0
 total energy-change (2. order) :-0.1567316E+01  (-0.4990002E+00)
 number of electron     216.0000000 magnetization 
 augmentation part       -0.5180760 magnetization 

 Free energy of the ion-electron system (eV)
  ---------------------------------------------------
  alpha Z        PSCENC =        47.94900195
  Ewald energy   TEWEN  =     44407.38298792
  -Hartree energ DENC   =    -51373.90490196
  -exchange      EXHF   =         0.00000000
  -V(xc)+E(xc)   XCENC  =       649.53378242
  PAW double counting   =    139893.93705531  -139753.91870624
  entropy T*S    EENTRO =        -0.00000000
  eigenvalues    EBANDS =     -2765.57583320
  atomic energy  EATOM  =      8369.52358910
  ---------------------------------------------------
  free energy    TOTEN  =      -525.07302468 eV

  energy without entropy =     -525.07302468  energy(sigma->0) =     -525.07302468


--------------------------------------------------------------------------------------------------------




--------------------------------------- Iteration      1(   9)  ---------------------------------------


    POTLOK:  cpu time    8.4222: real time    8.4745
    SETDIJ:  cpu time    0.0018: real time    0.0018
    TRIAL :  cpu time   22.4062: real time   22.5709
    CORREC:  cpu time   16.1778: real time   16.2916
    CHARGE:  cpu time    3.2451: real time    3.2694
    --------------------------------------------
      LOOP:  cpu time   50.3128: real time   50.6699

 eigenvalue-minimisations  :     0
 total energy-change (2. order) :-0.4988835E+00  (-0.1904546E+00)
 number of electron     216.0000000 magnetization 
 augmentation part       -0.5136997 magnetization 

 Free energy of the ion-electron system (eV)
  ---------------------------------------------------
  alpha Z        PSCENC =        47.94900195
  Ewald energy   TEWEN  =     44407.38298792
  -Hartree energ DENC   =    -51382.38884006
  -exchange      EXHF   =         0.00000000
  -V(xc)+E(xc)   XCENC  =       649.30732434
  PAW double counting   =    146053.59865164  -145913.38599193
  entropy T*S    EENTRO =        -0.00000000
  eigenvalues    EBANDS =     -2757.55863116
  atomic energy  EATOM  =      8369.52358910
  ---------------------------------------------------
  free energy    TOTEN  =      -525.57190820 eV

  energy without entropy =     -525.57190820  energy(sigma->0) =     -525.57190820


--------------------------------------------------------------------------------------------------------




--------------------------------------- Iteration      1(  10)  ---------------------------------------


    POTLOK:  cpu time    8.4136: real time    8.4684
    SETDIJ:  cpu time    0.0019: real time    0.0019
    TRIAL :  cpu time   22.3674: real time   22.5565
    CORREC:  cpu time   16.1761: real time   16.2873
    CHARGE:  cpu time    3.2521: real time    3.2757
    --------------------------------------------
      LOOP:  cpu time   50.2441: real time   50.6457

 eigenvalue-minimisations  :     0
 total energy-change (2. order) :-0.1902810E+00  (-0.7923640E-01)
 number of electron     216.0000000 magnetization 
 augmentation part       -0.5078643 magnetization 

 Free energy of the ion-electron system (eV)
  ---------------------------------------------------
  alpha Z        PSCENC =        47.94900195
  Ewald energy   TEWEN  =     44407.38298792
  -Hartree energ DENC   =    -51382.64974893
  -exchange      EXHF   =         0.00000000
  -V(xc)+E(xc)   XCENC  =       649.11421981
  PAW double counting   =    148491.81896515  -148351.50986446
  entropy T*S    EENTRO =        -0.00000000
  eigenvalues    EBANDS =     -2757.39133970
  atomic energy  EATOM  =      8369.52358910
  ---------------------------------------------------
  free energy    TOTEN  =      -525.76218916 eV

  energy without entropy =     -525.76218916  energy(sigma->0) =     -525.76218916


--------------------------------------------------------------------------------------------------------




--------------------------------------- Iteration      1(  11)  ---------------------------------------


    POTLOK:  cpu time    8.4095: real time    8.4697
    SETDIJ:  cpu time    0.0018: real time    0.0018
    TRIAL :  cpu time   22.4186: real time   22.5911
    CORREC:  cpu time   16.1935: real time   16.3117
    CHARGE:  cpu time    3.2502: real time    3.2737
    --------------------------------------------
      LOOP:  cpu time   50.3092: real time   50.6975

 eigenvalue-minimisations  :     0
 total energy-change (2. order) :-0.7903489E-01  (-0.3154743E-01)
 number of electron     216.0000000 magnetization 
 augmentation part       -0.5043032 magnetization 

 Free energy of the ion-electron system (eV)
  ---------------------------------------------------
  alpha Z        PSCENC =        47.94900195
  Ewald energy   TEWEN  =     44407.38298792
  -Hartree energ DENC   =    -51377.24723494
  -exchange      EXHF   =         0.00000000
  -V(xc)+E(xc)   XCENC  =       648.97962673
  PAW double counting   =    148485.86580658  -148345.55346771
  entropy T*S    EENTRO =        -0.00000000
  eigenvalues    EBANDS =     -2762.74153369
  atomic energy  EATOM  =      8369.52358910
  ---------------------------------------------------
  free energy    TOTEN  =      -525.84122405 eV

  energy without entropy =     -525.84122405  energy(sigma->0) =     -525.84122405


--------------------------------------------------------------------------------------------------------




--------------------------------------- Iteration      1(  12)  ---------------------------------------


    POTLOK:  cpu time    8.4019: real time    8.4552
    SETDIJ:  cpu time    0.0018: real time    0.0019
    TRIAL :  cpu time   22.4317: real time   22.6057
    CORREC:  cpu time   16.2008: real time   16.3164
    CHARGE:  cpu time    3.2567: real time    3.2803
    --------------------------------------------
      LOOP:  cpu time   50.3561: real time   50.7341

 eigenvalue-minimisations  :     0
 total energy-change (2. order) :-0.3146987E-01  (-0.1048645E-01)
 number of electron     216.0000000 magnetization 
 augmentation part       -0.5043081 magnetization 

 Free energy of the ion-electron system (eV)
  ---------------------------------------------------
  alpha Z        PSCENC =        47.94900195
  Ewald energy   TEWEN  =     44407.38298792
  -Hartree energ DENC   =    -51372.77920033
  -exchange      EXHF   =         0.00000000
  -V(xc)+E(xc)   XCENC  =       648.88330386
  PAW double counting   =    147869.53837200  -147729.25004913
  entropy T*S    EENTRO =        -0.00000000
  eigenvalues    EBANDS =     -2767.12069930
  atomic energy  EATOM  =      8369.52358910
  ---------------------------------------------------
  free energy    TOTEN  =      -525.87269392 eV

  energy without entropy =     -525.87269392  energy(sigma->0) =     -525.87269392


--------------------------------------------------------------------------------------------------------




--------------------------------------- Iteration      1(  13)  ---------------------------------------


    POTLOK:  cpu time    8.4139: real time    8.4687
    SETDIJ:  cpu time    0.0019: real time    0.0019
    TRIAL :  cpu time   22.4071: real time   22.5896
    CORREC:  cpu time   16.1839: real time   16.3040
    CHARGE:  cpu time    3.2467: real time    3.2747
    --------------------------------------------
      LOOP:  cpu time   50.3052: real time   50.6987

 eigenvalue-minimisations  :     0
 total energy-change (2. order) :-0.1047357E-01  (-0.2921355E-02)
 number of electron     216.0000000 magnetization 
 augmentation part       -0.5049544 magnetization 

 Free energy of the ion-electron system (eV)
  ---------------------------------------------------
  alpha Z        PSCENC =        47.94900195
  Ewald energy   TEWEN  =     44407.38298792
  -Hartree energ DENC   =    -51371.23232999
  -exchange      EXHF   =         0.00000000
  -V(xc)+E(xc)   XCENC  =       648.83127663
  PAW double counting   =    147355.03310403  -147214.75728065
  entropy T*S    EENTRO =        -0.00000000
  eigenvalues    EBANDS =     -2768.61351649
  atomic energy  EATOM  =      8369.52358910
  ---------------------------------------------------
  free energy    TOTEN  =      -525.88316749 eV

  energy without entropy =     -525.88316749  energy(sigma->0) =     -525.88316749


--------------------------------------------------------------------------------------------------------




--------------------------------------- Iteration      1(  14)  ---------------------------------------


    POTLOK:  cpu time    8.4050: real time    8.4603
    SETDIJ:  cpu time    0.0019: real time    0.0019
    TRIAL :  cpu time   22.4241: real time   22.5854
    CORREC:  cpu time   16.1767: real time   16.3117
    CHARGE:  cpu time    3.2513: real time    3.2788
    --------------------------------------------
      LOOP:  cpu time   50.3098: real time   50.7260

 eigenvalue-minimisations  :     0
 total energy-change (2. order) :-0.2924472E-02  (-0.7579442E-03)
 number of electron     216.0000000 magnetization 
 augmentation part       -0.5052232 magnetization 

 Free energy of the ion-electron system (eV)
  ---------------------------------------------------
  alpha Z        PSCENC =        47.94900195
  Ewald energy   TEWEN  =     44407.38298792
  -Hartree energ DENC   =    -51371.20115047
  -exchange      EXHF   =         0.00000000
  -V(xc)+E(xc)   XCENC  =       648.82570331
  PAW double counting   =    147115.57807432  -146975.30771964
  entropy T*S    EENTRO =        -0.00000000
  eigenvalues    EBANDS =     -2768.63657847
  atomic energy  EATOM  =      8369.52358910
  ---------------------------------------------------
  free energy    TOTEN  =      -525.88609196 eV

  energy without entropy =     -525.88609196  energy(sigma->0) =     -525.88609196


--------------------------------------------------------------------------------------------------------




--------------------------------------- Iteration      1(  15)  ---------------------------------------


    POTLOK:  cpu time    8.4226: real time    8.4752
    SETDIJ:  cpu time    0.0019: real time    0.0019
    TRIAL :  cpu time   22.4026: real time   22.5791
    CORREC:  cpu time   16.1722: real time   16.3119
    CHARGE:  cpu time    3.2502: real time    3.2733
    --------------------------------------------
      LOOP:  cpu time   50.3067: real time   50.7033

 eigenvalue-minimisations  :     0
 total energy-change (2. order) :-0.7629661E-03  (-0.1996075E-03)
 number of electron     216.0000000 magnetization 
 augmentation part       -0.5053497 magnetization 

 Free energy of the ion-electron system (eV)
  ---------------------------------------------------
  alpha Z        PSCENC =        47.94900195
  Ewald energy   TEWEN  =     44407.38298792
  -Hartree energ DENC   =    -51371.12188263
  -exchange      EXHF   =         0.00000000
  -V(xc)+E(xc)   XCENC  =       648.82684901
  PAW double counting   =    147021.41435474  -146881.14647702
  entropy T*S    EENTRO =        -0.00000000
  eigenvalues    EBANDS =     -2768.71527801
  atomic energy  EATOM  =      8369.52358910
  ---------------------------------------------------
  free energy    TOTEN  =      -525.88685493 eV

  energy without entropy =     -525.88685493  energy(sigma->0) =     -525.88685493


--------------------------------------------------------------------------------------------------------




--------------------------------------- Iteration      1(  16)  ---------------------------------------


    POTLOK:  cpu time    8.4029: real time    8.4582
    SETDIJ:  cpu time    0.0024: real time    0.0024
    TRIAL :  cpu time   22.3950: real time   22.5811
    CORREC:  cpu time   16.1645: real time   16.2810
    CHARGE:  cpu time    3.2499: real time    3.2741
    --------------------------------------------
      LOOP:  cpu time   50.2440: real time   50.6285

 eigenvalue-minimisations  :     0
 total energy-change (2. order) :-0.2027672E-03  (-0.7033438E-04)
 number of electron     216.0000000 magnetization 
 augmentation part       -0.5053916 magnetization 

 Free energy of the ion-electron system (eV)
  ---------------------------------------------------
  alpha Z        PSCENC =        47.94900195
  Ewald energy   TEWEN  =     44407.38298792
  -Hartree energ DENC   =    -51371.02723796
  -exchange      EXHF   =         0.00000000
  -V(xc)+E(xc)   XCENC  =       648.82552127
  PAW double counting   =    146967.14084725  -146826.87344414
  entropy T*S    EENTRO =        -0.00000000
  eigenvalues    EBANDS =     -2768.80832310
  atomic energy  EATOM  =      8369.52358910
  ---------------------------------------------------
  free energy    TOTEN  =      -525.88705770 eV

  energy without entropy =     -525.88705770  energy(sigma->0) =     -525.88705770


--------------------------------------------------------------------------------------------------------




--------------------------------------- Iteration      1(  17)  ---------------------------------------


    POTLOK:  cpu time    8.4190: real time    8.4768
    SETDIJ:  cpu time    0.0018: real time    0.0018
    TRIAL :  cpu time   22.4003: real time   22.5738
    CORREC:  cpu time   16.1840: real time   16.3008
    CHARGE:  cpu time    3.2444: real time    3.2678
    --------------------------------------------
      LOOP:  cpu time   50.2869: real time   50.6654

 eigenvalue-minimisations  :     0
 total energy-change (2. order) :-0.6923737E-04  (-0.2608053E-04)
 number of electron     216.0000000 magnetization 
 augmentation part       -0.5054013 magnetization 

 Free energy of the ion-electron system (eV)
  ---------------------------------------------------
  alpha Z        PSCENC =        47.94900195
  Ewald energy   TEWEN  =     44407.38298792
  -Hartree energ DENC   =    -51371.14129351
  -exchange      EXHF   =         0.00000000
  -V(xc)+E(xc)   XCENC  =       648.83214242
  PAW double counting   =    146923.54493145  -146783.27819797
  entropy T*S    EENTRO =        -0.00000000
  eigenvalues    EBANDS =     -2768.70028830
  atomic energy  EATOM  =      8369.52358910
  ---------------------------------------------------
  free energy    TOTEN  =      -525.88712694 eV

  energy without entropy =     -525.88712694  energy(sigma->0) =     -525.88712694


--------------------------------------------------------------------------------------------------------




--------------------------------------- Iteration      1(  18)  ---------------------------------------


    POTLOK:  cpu time    8.4173: real time    8.4743
    SETDIJ:  cpu time    0.0019: real time    0.0019
    TRIAL :  cpu time   22.3878: real time   22.5813
    CORREC:  cpu time   16.1610: real time   16.3114
    CHARGE:  cpu time    3.2596: real time    3.2857
    --------------------------------------------
      LOOP:  cpu time   50.3231: real time   50.7554

 eigenvalue-minimisations  :     0
 total energy-change (2. order) :-0.2531131E-04  (-0.9514214E-05)
 number of electron     216.0000000 magnetization 
 augmentation part       -0.5054269 magnetization 

 Free energy of the ion-electron system (eV)
  ---------------------------------------------------
  alpha Z        PSCENC =        47.94900195
  Ewald energy   TEWEN  =     44407.38298792
  -Hartree energ DENC   =    -51371.22478624
  -exchange      EXHF   =         0.00000000
  -V(xc)+E(xc)   XCENC  =       648.83593513
  PAW double counting   =    146904.32838190  -146764.06165542
  entropy T*S    EENTRO =        -0.00000000
  eigenvalues    EBANDS =     -2768.62060659
  atomic energy  EATOM  =      8369.52358910
  ---------------------------------------------------
  free energy    TOTEN  =      -525.88715225 eV

  energy without entropy =     -525.88715225  energy(sigma->0) =     -525.88715225


--------------------------------------------------------------------------------------------------------




--------------------------------------- Iteration      1(  19)  ---------------------------------------


    POTLOK:  cpu time    8.4173: real time    8.4720
    SETDIJ:  cpu time    0.0019: real time    0.0019
    TRIAL :  cpu time   22.4034: real time   22.5755
    CORREC:  cpu time   16.1813: real time   16.2954
    CHARGE:  cpu time    3.2619: real time    3.2861
    --------------------------------------------
      LOOP:  cpu time   50.3333: real time   50.7004

 eigenvalue-minimisations  :     0
 total energy-change (2. order) :-0.9588694E-05  (-0.1046105E-04)
 number of electron     216.0000000 magnetization 
 augmentation part       -0.5054587 magnetization 

 Free energy of the ion-electron system (eV)
  ---------------------------------------------------
  alpha Z        PSCENC =        47.94900195
  Ewald energy   TEWEN  =     44407.38298792
  -Hartree energ DENC   =    -51371.22957311
  -exchange      EXHF   =         0.00000000
  -V(xc)+E(xc)   XCENC  =       648.83544588
  PAW double counting   =    146906.05467312  -146765.78744853
  entropy T*S    EENTRO =        -0.00000000
  eigenvalues    EBANDS =     -2768.61583817
  atomic energy  EATOM  =      8369.52358910
  ---------------------------------------------------
  free energy    TOTEN  =      -525.88716184 eV

  energy without entropy =     -525.88716184  energy(sigma->0) =     -525.88716184


--------------------------------------------------------------------------------------------------------




--------------------------------------- Iteration      1(  20)  ---------------------------------------


    POTLOK:  cpu time    8.4090: real time    8.4621
    SETDIJ:  cpu time    0.0019: real time    0.0019
    TRIAL :  cpu time   22.5493: real time   22.7226
    CORREC:  cpu time   16.1931: real time   16.3074
    CHARGE:  cpu time    3.2516: real time    3.2751
    --------------------------------------------
      LOOP:  cpu time   50.4383: real time   50.8062

 eigenvalue-minimisations  :     0
 total energy-change (2. order) : 0.3211200E-05  (-0.9065837E-05)
 number of electron     216.0000000 magnetization 
 augmentation part       -0.5054552 magnetization 

 Free energy of the ion-electron system (eV)
  ---------------------------------------------------
  alpha Z        PSCENC =        47.94900195
  Ewald energy   TEWEN  =     44407.38298792
  -Hartree energ DENC   =    -51371.28968045
  -exchange      EXHF   =         0.00000000
  -V(xc)+E(xc)   XCENC  =       648.83723896
  PAW double counting   =    146927.84052966  -146787.57285484
  entropy T*S    EENTRO =        -0.00000000
  eigenvalues    EBANDS =     -2768.55797093
  atomic energy  EATOM  =      8369.52358910
  ---------------------------------------------------
  free energy    TOTEN  =      -525.88715862 eV

  energy without entropy =     -525.88715862  energy(sigma->0) =     -525.88715862


--------------------------------------------------------------------------------------------------------




--------------------------------------- Iteration      1(  21)  ---------------------------------------


    POTLOK:  cpu time    8.4167: real time    8.4725
    SETDIJ:  cpu time    0.0019: real time    0.0019
    TRIAL :  cpu time   22.3993: real time   22.5737
    CORREC:  cpu time   16.1659: real time   16.2995
    CHARGE:  cpu time    3.2417: real time    3.2671
    --------------------------------------------
      LOOP:  cpu time   50.2621: real time   50.6606

 eigenvalue-minimisations  :     0
 total energy-change (2. order) :-0.8659990E-05  (-0.1434283E-05)
 number of electron     216.0000000 magnetization 
 augmentation part       -0.5054374 magnetization 

 Free energy of the ion-electron system (eV)
  ---------------------------------------------------
  alpha Z        PSCENC =        47.94900195
  Ewald energy   TEWEN  =     44407.38298792
  -Hartree energ DENC   =    -51371.26275577
  -exchange      EXHF   =         0.00000000
  -V(xc)+E(xc)   XCENC  =       648.83562558
  PAW double counting   =    146925.13722827  -146784.86949795
  entropy T*S    EENTRO =        -0.00000000
  eigenvalues    EBANDS =     -2768.58334640
  atomic energy  EATOM  =      8369.52358910
  ---------------------------------------------------
  free energy    TOTEN  =      -525.88716728 eV

  energy without entropy =     -525.88716728  energy(sigma->0) =     -525.88716728


--------------------------------------------------------------------------------------------------------




--------------------------------------- Iteration      1(  22)  ---------------------------------------


    POTLOK:  cpu time    8.4051: real time    8.4595
    SETDIJ:  cpu time    0.0019: real time    0.0019
    TRIAL :  cpu time   22.4210: real time   22.5896
    CORREC:  cpu time   16.1685: real time   16.2913
    CHARGE:  cpu time    3.2346: real time    3.2761
    --------------------------------------------
      LOOP:  cpu time   50.3013: real time   50.6916

 eigenvalue-minimisations  :     0
 total energy-change (2. order) :-0.1424778E-05  (-0.2416174E-06)
 number of electron     216.0000000 magnetization 
 augmentation part       -0.5054337 magnetization 

 Free energy of the ion-electron system (eV)
  ---------------------------------------------------
  alpha Z        PSCENC =        47.94900195
  Ewald energy   TEWEN  =     44407.38298792
  -Hartree energ DENC   =    -51371.26469586
  -exchange      EXHF   =         0.00000000
  -V(xc)+E(xc)   XCENC  =       648.83598620
  PAW double counting   =    146922.54880759  -146782.28129748
  entropy T*S    EENTRO =        -0.00000000
  eigenvalues    EBANDS =     -2768.58154814
  atomic energy  EATOM  =      8369.52358910
  ---------------------------------------------------
  free energy    TOTEN  =      -525.88716871 eV

  energy without entropy =     -525.88716871  energy(sigma->0) =     -525.88716871


--------------------------------------------------------------------------------------------------------




--------------------------------------- Iteration      1(  23)  ---------------------------------------


    POTLOK:  cpu time    8.4070: real time    8.4643
    SETDIJ:  cpu time    0.0018: real time    0.0018
    TRIAL :  cpu time   22.3523: real time   22.5567
    CORREC:  cpu time   16.1869: real time   16.2999
    CHARGE:  cpu time    3.2500: real time    3.2753
    --------------------------------------------
      LOOP:  cpu time   50.2394: real time   50.6526

 eigenvalue-minimisations  :     0
 total energy-change (2. order) :-0.1496228E-06  (-0.7712157E-07)
 number of electron     216.0000000 magnetization 
 augmentation part       -0.5054340 magnetization 

 Free energy of the ion-electron system (eV)
  ---------------------------------------------------
  alpha Z        PSCENC =        47.94900195
  Ewald energy   TEWEN  =     44407.38298792
  -Hartree energ DENC   =    -51371.26071874
  -exchange      EXHF   =         0.00000000
  -V(xc)+E(xc)   XCENC  =       648.83588580
  PAW double counting   =    146921.86284348  -146781.59538908
  entropy T*S    EENTRO =        -0.00000000
  eigenvalues    EBANDS =     -2768.58536929
  atomic energy  EATOM  =      8369.52358910
  ---------------------------------------------------
  free energy    TOTEN  =      -525.88716886 eV

  energy without entropy =     -525.88716886  energy(sigma->0) =     -525.88716886


--------------------------------------------------------------------------------------------------------




--------------------------------------- Iteration      1(  24)  ---------------------------------------


    POTLOK:  cpu time    8.4393: real time    8.5000
    SETDIJ:  cpu time    0.0019: real time    0.0019
    TRIAL :  cpu time   22.4207: real time   22.5948
    CORREC:  cpu time   16.1778: real time   16.2990
    EDDIAG:  cpu time    4.5986: real time    4.6334
    CHARGE:  cpu time    3.2436: real time    3.2667
    --------------------------------------------
      LOOP:  cpu time   54.9197: real time   55.3378

 eigenvalue-minimisations  :     0
 total energy-change (2. order) :-0.1498847E-07  (-0.5372022E-07)
 number of electron     216.0000000 magnetization 
 augmentation part       -0.5054335 magnetization 

 Free energy of the ion-electron system (eV)
  ---------------------------------------------------
  alpha Z        PSCENC =        47.94900195
  Ewald energy   TEWEN  =     44407.38298792
  -Hartree energ DENC   =    -51371.25769404
  -exchange      EXHF   =         0.00000000
  -V(xc)+E(xc)   XCENC  =       648.83576469
  PAW double counting   =    146921.88072568  -146781.61327516
  entropy T*S    EENTRO =        -0.00000000
  eigenvalues    EBANDS =     -2768.58826902
  atomic energy  EATOM  =      8369.52358910
  ---------------------------------------------------
  free energy    TOTEN  =      -525.88716887 eV

  energy without entropy =     -525.88716887  energy(sigma->0) =     -525.88716887


--------------------------------------------------------------------------------------------------------


  average scaling for gradient   0.9688


 average (electrostatic) potential at core
  the test charge radii are     0.5770  0.5955
  (the norm of the test charge is              1.0000)
       1 -88.0727       2 -88.0705       3 -88.0739       4 -88.0749       5 -88.0668
       6 -88.0646       7 -88.0723       8 -88.0671       9 -88.0680      10 -88.0709
      11 -88.0636      12 -88.0655      13 -88.0699      14 -88.0641      15 -88.0633
      16 -88.0665      17 -88.0676      18 -88.0707      19 -88.0692      20 -88.0668
      21 -88.0657      22 -88.0615      23 -88.0737      24 -88.0719      25 -88.0654
      26 -88.0653      27 -88.0647      28 -88.0704      29 -88.0664      30 -88.0621
      31 -88.0692      32 -88.0691      33 -88.0672      34 -88.0667      35 -88.0627
      36 -88.0667      37 -88.0647      38 -88.0696      39 -88.0694      40 -88.0710
      41 -88.0719      42 -88.0732      43 -88.0692      44 -88.0716      45 -88.0654
      46 -88.0651      47 -88.0664      48 -88.0650      49 -88.0706      50 -88.0699
      51 -92.1316      52-124.2601      53-124.2623
 
 
 
 E-fermi :  -4.3735     XC(G=0):  -1.8829     alpha+bet : -1.6890

 Fermi energy:        -4.3735055616

 k-point     1 :       0.0000    0.0000    0.0000
  band No.  band energies     occupation 
      1     -29.1928      2.00000
      2     -28.1663      2.00000
      3     -23.5781      2.00000
      4     -22.5929      2.00000
      5     -22.5925      2.00000
      6     -22.5920      2.00000
      7     -22.5907      2.00000
      8     -22.5898      2.00000
      9     -22.5895      2.00000
     10     -20.6596      2.00000
     11     -20.6593      2.00000
     12     -20.6590      2.00000
     13     -20.6587      2.00000
     14     -20.6586      2.00000
     15     -20.6585      2.00000
     16     -19.7240      2.00000
     17     -19.7238      2.00000
     18     -19.7235      2.00000
     19     -19.7229      2.00000
     20     -19.7227      2.00000
     21     -19.7225      2.00000
     22     -17.5028      2.00000
     23     -17.5026      2.00000
     24     -17.5018      2.00000
     25     -17.5015      2.00000
     26     -17.5002      2.00000
     27     -17.5001      2.00000
     28     -16.3442      2.00000
     29     -16.3441      2.00000
     30     -16.3435      2.00000
     31     -16.3434      2.00000
     32     -16.3427      2.00000
     33     -16.3425      2.00000
     34     -14.9513      2.00000
     35     -14.9512      2.00000
     36     -14.9508      2.00000
     37     -14.9503      2.00000
     38     -14.9502      2.00000
     39     -14.9494      2.00000
     40     -13.1455      2.00000
     41     -12.4920      2.00000
     42     -12.4918      2.00000
     43     -12.4914      2.00000
     44     -12.4913      2.00000
     45     -12.4903      2.00000
     46     -12.4900      2.00000
     47     -12.2749      2.00000
     48     -12.2748      2.00000
     49     -12.2737      2.00000
     50     -12.2737      2.00000
     51     -12.2724      2.00000
     52     -12.2722      2.00000
     53     -11.8683      2.00000
     54     -11.6134      2.00000
     55     -11.6120      2.00000
     56     -10.9436      2.00000
     57     -10.8286      2.00000
     58     -10.8284      2.00000
     59     -10.8269      2.00000
     60     -10.8265      2.00000
     61     -10.8264      2.00000
     62     -10.8263      2.00000
     63      -9.7724      2.00000
     64      -9.7713      2.00000
     65      -9.7694      2.00000
     66      -9.7686      2.00000
     67      -9.7668      2.00000
     68      -9.7667      2.00000
     69      -9.5273      2.00000
     70      -9.5269      2.00000
     71      -9.5266      2.00000
     72      -9.5264      2.00000
     73      -9.5258      2.00000
     74      -9.5250      2.00000
     75      -9.5248      2.00000
     76      -9.5245      2.00000
     77      -9.5241      2.00000
     78      -9.5237      2.00000
     79      -9.5234      2.00000
     80      -9.5233      2.00000
     81      -8.0182      2.00000
     82      -8.0157      2.00000
     83      -7.8210      2.00000
     84      -7.8198      2.00000
     85      -7.8192      2.00000
     86      -7.8185      2.00000
     87      -7.8161      2.00000
     88      -7.8156      2.00000
     89      -7.5273      2.00000
     90      -7.5273      2.00000
     91      -7.5271      2.00000
     92      -7.5266      2.00000
     93      -7.5264      2.00000
     94      -7.5262      2.00000
     95      -6.5833      2.00000
     96      -6.5819      2.00000
     97      -6.5816      2.00000
     98      -6.5813      2.00000
     99      -6.5810      2.00000
    100      -6.5803      2.00000
    101      -6.3030      2.00000
    102      -6.3007      2.00000
    103      -4.4837      2.00000
    104      -4.4836      2.00000
    105      -4.4833      2.00000
    106      -4.4831      2.00000
    107      -4.4811      2.00000
    108      -4.4809      2.00000
    109      -1.5090      0.00000
    110      -1.5087      0.00000
    111      -1.5075      0.00000
    112      -1.5073      0.00000
    113      -1.5067      0.00000
    114      -1.5066      0.00000
    115       0.4692      0.00000
    116       0.4703      0.00000
    117       0.4708      0.00000
    118       0.4715      0.00000
    119       0.4718      0.00000
    120       0.4745      0.00000
    121       0.4963      0.00000
    122       1.0176      0.00000
    123       1.2534      0.00000
    124       1.2593      0.00000
    125       1.5007      0.00000
    126       1.6758      0.00000
    127       1.8630      0.00000
    128       1.9152      0.00000
    129       1.9312      0.00000
    130       1.9385      0.00000
    131       1.9454      0.00000
    132       2.0353      0.00000
    133       2.1426      0.00000
    134       2.3507      0.00000
    135       2.3511      0.00000
    136       2.3520      0.00000
    137       2.3526      0.00000
    138       2.3527      0.00000
    139       2.3531      0.00000
    140       2.4351      0.00000
    141       2.5659      0.00000
    142       2.6670      0.00000
    143       2.6791      0.00000
    144       2.6914      0.00000
    145       2.7111      0.00000
    146       2.7908      0.00000
    147       2.8068      0.00000
    148       2.8314      0.00000
    149       2.8502      0.00000
    150       2.8505      0.00000
    151       2.9466      0.00000
    152       3.2367      0.00000
    153       3.3802      0.00000
    154       3.4602      0.00000
    155       3.5223      0.00000
    156       3.8599      0.00000
    157       3.9210      0.00000
    158       4.1721      0.00000
    159       4.4777      0.00000
    160       4.5836      0.00000
    161       4.8679      0.00000
    162       4.8736      0.00000
    163       4.8968      0.00000
    164       4.9379      0.00000
    165       4.9514      0.00000
    166       4.9556      0.00000
    167       4.9565      0.00000
    168       5.0930      0.00000


--------------------------------------------------------------------------------------------------------


 soft charge-density along one line, spin component           1
         0         1         2         3         4         5         6         7         8         9
 total charge-density along one line
 
 pseudopotential strength for first ion, spin component:           1
 12.643  21.273  -0.000   0.000   0.000  -0.000   0.000   0.000
 21.273  35.792  -0.000   0.000   0.000  -0.000   0.000   0.000
 -0.000  -0.000  -3.239   0.000   0.000  -5.804   0.000   0.000
  0.000   0.000   0.000  -3.243   0.000   0.000  -5.810   0.000
  0.000   0.000   0.000   0.000  -3.239   0.000   0.000  -5.804
 -0.000  -0.000  -5.804   0.000   0.000 -10.375   0.000   0.000
  0.000   0.000   0.000  -5.810   0.000   0.000 -10.385   0.000
  0.000   0.000   0.000   0.000  -5.804   0.000   0.000 -10.375
 total augmentation occupancy for first ion, spin component:           1
  9.643  -3.599   0.000  -0.002  -0.001  -0.000   0.001   0.000
 -3.599   1.374  -0.000   0.001   0.000   0.000  -0.000  -0.000
  0.000  -0.000   8.197  -0.009   0.001  -2.896   0.003  -0.000
 -0.002   0.001  -0.009   3.783  -0.000   0.003  -1.107   0.000
 -0.001   0.000   0.001  -0.000   8.195  -0.000   0.000  -2.895
 -0.000   0.000  -2.896   0.003  -0.000   1.036  -0.001   0.000
  0.001  -0.000   0.003  -1.107   0.000  -0.001   0.329  -0.000
  0.000  -0.000  -0.000   0.000  -2.895   0.000  -0.000   1.035


------------------------ aborting loop because EDIFF is reached ----------------------------------------


    FORLOC:  cpu time    0.1434: real time    0.1443
    FORNL :  cpu time    4.1469: real time    4.1788
    FORCOR:  cpu time    8.3255: real time    8.3812
    OFIELD:  cpu time    0.0032: real time    0.0032

 VOLUME and BASIS-vectors are now :
 -----------------------------------------------------------------------------
  energy-cutoff  :     1000.00
  volume of cell :     3288.85
      direct lattice vectors                 reciprocal lattice vectors
    12.325000000  0.000000000  0.000000000     0.081135903  0.046843835  0.000000000
    -6.162500000 10.673763102  0.000000000     0.000000000  0.093687670  0.000000000
     0.000000000  0.000000000 25.000000000     0.000000000  0.000000000  0.040000000

  length of vectors
    12.325000000 12.325000000 25.000000000     0.093687670  0.093687670  0.040000000


 FORCES acting on ions:
    Electron-Ion                     Ewald-Force                    Non-Local-Force
 -----------------------------------------------------------------------------------------------
   0.377E+01 0.327E+01 0.233E+02   -.377E+01 -.327E+01 -.233E+02   -.368E-03 0.570E-02 0.101E-01
   0.549E+01 0.266E+01 0.264E+02   -.549E+01 -.267E+01 -.264E+02   0.223E-02 0.111E-01 -.456E-02
   0.234E+01 0.629E+01 0.285E+02   -.235E+01 -.631E+01 -.286E+02   0.913E-02 0.245E-01 0.689E-02
   0.311E+01 0.449E+01 0.352E+02   -.312E+01 -.451E+01 -.352E+02   0.251E-01 0.190E-01 -.221E-02
   0.403E+01 0.945E+00 0.235E+02   -.402E+01 -.952E+00 -.235E+02   -.904E-02 0.613E-02 0.126E-02
   0.413E+01 -.822E+00 0.238E+02   -.413E+01 0.816E+00 -.238E+02   -.112E-01 0.131E-01 -.927E-02
   0.589E+01 0.214E+01 0.334E+02   -.590E+01 -.215E+01 -.334E+02   0.205E-01 -.366E-02 -.103E-02
   0.571E+01 -.205E+01 0.347E+02   -.572E+01 0.205E+01 -.347E+02   0.109E-02 0.685E-02 -.512E-02
   -.282E+01 0.568E+01 0.287E+02   0.282E+01 -.569E+01 -.287E+02   0.120E-01 -.339E-02 -.680E-02
   -.424E+01 0.355E+01 0.346E+02   0.425E+01 -.357E+01 -.346E+02   -.207E-01 0.298E-01 0.773E-02
   0.105E+01 -.103E+01 0.212E+02   -.104E+01 0.103E+01 -.212E+02   0.260E-03 -.375E-02 -.459E-02
   0.898E+00 -.751E+00 0.205E+02   -.901E+00 0.756E+00 -.205E+02   -.207E-02 -.506E-02 0.306E-02
   0.226E+01 -.486E+01 0.369E+02   -.227E+01 0.486E+01 -.369E+02   0.385E-01 -.349E-02 0.522E-02
   0.128E+01 -.632E+01 0.297E+02   -.129E+01 0.633E+01 -.297E+02   0.676E-02 0.250E-02 -.179E-01
   -.363E+01 0.223E+01 0.229E+02   0.363E+01 -.224E+01 -.229E+02   0.664E-02 -.716E-03 0.213E-02
   -.495E+01 0.147E+01 0.244E+02   0.496E+01 -.147E+01 -.244E+02   -.564E-02 0.959E-02 -.154E-01
   -.647E+00 -.242E+00 0.199E+02   0.650E+00 0.251E+00 -.199E+02   0.249E-02 -.152E-01 0.191E-02
   0.292E+00 0.225E+01 0.205E+02   -.296E+00 -.224E+01 -.205E+02   0.418E-02 -.915E-02 0.115E-01
   -.957E+00 -.592E+01 0.261E+02   0.956E+00 0.593E+01 -.261E+02   0.186E-02 -.138E-01 -.181E-02
   -.499E+00 -.335E+01 0.218E+02   0.503E+00 0.336E+01 -.218E+02   -.124E-01 -.118E-01 -.197E-03
   0.548E+01 -.243E+01 0.276E+02   -.548E+01 0.242E+01 -.275E+02   -.841E-03 0.508E-02 -.278E-01
   0.366E+01 -.304E+01 0.247E+02   -.366E+01 0.304E+01 -.247E+02   -.408E-02 0.675E-02 -.626E-02
   -.110E+01 0.206E+01 0.394E+02   0.109E+01 -.207E+01 -.394E+02   -.187E-02 0.287E-01 0.212E-01
   -.148E+01 -.325E+01 0.388E+02   0.148E+01 0.325E+01 -.388E+02   0.205E-01 -.950E-02 0.632E-02
   0.192E+01 -.759E+00 0.213E+02   -.192E+01 0.763E+00 -.213E+02   0.872E-02 -.947E-02 -.102E-01
   0.426E+00 0.170E+01 0.213E+02   -.434E+00 -.169E+01 -.213E+02   0.682E-02 -.285E-02 0.427E-02
   -.636E+01 0.871E+00 0.301E+02   0.637E+01 -.881E+00 -.301E+02   0.126E-01 0.158E-01 -.147E-02
   -.609E+01 -.242E+01 0.288E+02   0.610E+01 0.242E+01 -.288E+02   -.150E-01 0.101E-01 -.120E-02
   0.217E+01 -.434E+01 0.253E+02   -.217E+01 0.434E+01 -.253E+02   0.808E-02 0.220E-03 -.175E-01
   0.190E+00 -.183E+01 0.221E+02   -.193E+00 0.183E+01 -.221E+02   -.417E-02 -.485E-03 -.442E-02
   -.449E+01 -.469E+01 0.320E+02   0.450E+01 0.470E+01 -.320E+02   -.166E-01 -.130E-01 -.642E-02
   -.305E+01 -.564E+01 0.267E+02   0.306E+01 0.566E+01 -.267E+02   -.690E-02 -.173E-01 0.481E-02
   0.264E+00 0.100E+01 0.204E+02   -.255E+00 -.100E+01 -.204E+02   -.955E-02 -.101E-02 0.688E-02
   0.661E+00 0.978E+00 0.212E+02   -.657E+00 -.981E+00 -.211E+02   -.133E-01 0.119E-01 -.521E-02
   -.254E+01 0.399E+00 0.220E+02   0.254E+01 -.404E+00 -.220E+02   -.404E-02 0.288E-02 0.514E-02
   -.225E+01 -.951E+00 0.217E+02   0.225E+01 0.949E+00 -.217E+02   -.766E-02 0.303E-02 -.277E-02
   -.437E+01 -.226E+01 0.234E+02   0.438E+01 0.227E+01 -.234E+02   -.580E-02 -.794E-02 0.516E-02
   -.277E+01 -.220E+01 0.215E+02   0.277E+01 0.221E+01 -.215E+02   -.643E-02 -.130E-01 0.952E-02
   -.253E+01 -.324E+01 0.223E+02   0.253E+01 0.326E+01 -.223E+02   -.105E-01 -.184E-01 0.789E-02
   -.378E+00 -.829E+00 0.206E+02   0.384E+00 0.838E+00 -.206E+02   -.559E-02 -.129E-01 0.105E-01
   0.949E+00 0.237E+01 0.210E+02   -.949E+00 -.236E+01 -.210E+02   -.382E-02 -.580E-02 0.103E-01
   0.294E+01 0.459E+01 0.238E+02   -.294E+01 -.460E+01 -.238E+02   0.282E-02 0.266E-02 0.129E-01
   0.255E+00 0.399E+01 0.220E+02   -.258E+00 -.400E+01 -.220E+02   0.115E-01 -.300E-02 0.254E-02
   -.839E-01 0.628E+01 0.265E+02   0.793E-01 -.629E+01 -.265E+02   0.395E-02 0.651E-02 0.800E-02
   -.759E+00 0.145E+01 0.219E+02   0.755E+00 -.145E+01 -.219E+02   0.127E-01 -.385E-02 -.540E-02
   -.294E+01 0.362E+01 0.241E+02   0.293E+01 -.362E+01 -.241E+02   0.165E-02 0.112E-02 -.855E-02
   -.640E+00 -.167E+01 0.212E+02   0.644E+00 0.167E+01 -.212E+02   -.180E-02 -.399E-02 0.139E-02
   -.151E+01 0.575E+00 0.206E+02   0.151E+01 -.572E+00 -.205E+02   -.139E-01 0.166E-02 -.792E-02
   0.166E+00 -.104E+01 0.205E+02   -.159E+00 0.105E+01 -.205E+02   -.804E-02 -.114E-01 0.815E-02
   0.166E+01 0.119E+01 0.206E+02   -.166E+01 -.118E+01 -.206E+02   -.124E-01 0.133E-02 0.505E-02
   0.240E-01 -.747E-02 -.316E+03   -.242E-01 0.233E-02 0.316E+03   -.159E-01 0.165E-01 -.677E-02
   -.228E+03 0.155E+03 -.487E+03   0.279E+03 -.190E+03 0.491E+03   -.527E+02 0.358E+02 -.355E+01
   0.228E+03 -.155E+03 -.465E+03   -.279E+03 0.190E+03 0.462E+03   0.527E+02 -.359E+02 0.318E+01
 -----------------------------------------------------------------------------------------------
   -.186E-01 0.215E-02 0.383E+00   0.171E-12 -.142E-12 -.171E-12   0.144E-03 0.285E-01 -.372E+00
 
 
 POSITION                                       TOTAL-FORCE (eV/Angst)
 -----------------------------------------------------------------------------------
     11.98348      0.00342      0.01417        -0.006714      0.006312     -0.000506
     -0.34154      1.42665      0.01100        -0.014463      0.018405     -0.002108
      2.12355      0.00315      0.01249         0.010265      0.016079     -0.005456
      2.12326      1.42653      0.00641         0.026650      0.018803     -0.005385
     10.75099      2.13819      0.01213        -0.007540      0.016832      0.000411
     -1.57382      3.56123      0.01110        -0.025472      0.014012     -0.002295
      0.89078      2.13854      0.00548         0.008809      0.012354      0.004656
      0.89099      3.56147      0.00181        -0.011886      0.012365      0.014997
      4.58864      0.00346      0.01135         0.026951     -0.019390     -0.002468
      4.58894      1.42623      0.00646         0.005969      0.027041      0.015972
      9.51854      4.27281      0.01369         0.016780      0.000682     -0.000948
     -2.80632      5.69591      0.01434        -0.005681     -0.017250     -0.000097
      2.12300      4.27302      0.00000         0.021299      0.017455      0.024573
      2.12335      5.69594      0.00581         0.003496      0.005879     -0.000203
      7.05344      0.00333      0.01399         0.008239     -0.015250     -0.001430
      7.05353      1.42635      0.01368        -0.002503      0.013533     -0.006304
      8.28610      6.40752      0.01601         0.018294     -0.021130     -0.000488
     -4.03885      7.83070      0.01636         0.007674     -0.018659      0.000294
      3.35586      6.40753      0.01007        -0.015619     -0.011373     -0.002858
      3.35599      7.83072      0.01320        -0.018107     -0.007737      0.000380
     -0.34146      4.27290      0.00723         0.000188      0.020207     -0.005200
     -0.34138      5.69591      0.00946        -0.012255      0.003083      0.000523
      3.35624      2.13791      0.00222        -0.003954      0.032300      0.020917
      3.35573      3.56155      0.00139         0.032175     -0.006543      0.012769
     -1.57395      6.40758      0.01311         0.026029     -0.015049     -0.002178
     -1.57385      7.83068      0.01438         0.010087     -0.002904      0.000643
      5.82093      2.13784      0.01033         0.021635      0.006639     -0.000756
      5.82114      3.56097      0.01156         0.002367      0.000765     -0.006377
      0.89092      6.40755      0.00907         0.003847     -0.000036     -0.004316
      0.89106      7.83068      0.01235        -0.007559      0.008248      0.001484
      4.58871      4.27293      0.00850        -0.022223     -0.002553     -0.010598
      4.58852      5.69606      0.01149         0.001208     -0.023019     -0.004728
      9.51845      0.00337      0.01490        -0.017200     -0.006126      0.000413
      9.51855      1.42644      0.01438        -0.030329      0.020503     -0.000866
      8.28593      2.13803      0.01453         0.002144     -0.000384      0.001573
      8.28613      3.56115      0.01464        -0.012431     -0.004306     -0.002524
      7.05356      4.27269      0.01457         0.004667     -0.008258      0.000446
      7.05362      5.69588      0.01553        -0.001756     -0.028938     -0.000815
      5.82112      6.40755      0.01489        -0.014887     -0.017815      0.000311
      5.82102      7.83073      0.01579        -0.005082     -0.019721      0.000409
      7.05363      8.54227      0.01631        -0.003093     -0.011391      0.001697
     -5.27149      9.96549      0.01495         0.001039     -0.001678     -0.001837
     -2.80638      8.54234      0.01558         0.028786     -0.015550     -0.000431
     -2.80627      9.96553      0.01362         0.018015      0.003813     -0.003255
     -0.34149      8.54239      0.01378         0.023243     -0.016793     -0.001554
     -0.34138      9.96550      0.01354         0.011412      0.010373     -0.002380
      2.12343      8.54232      0.01336        -0.013030     -0.014047     -0.000798
      2.12354      9.96544      0.01469        -0.023989      0.013804     -0.002758
      4.58846      8.54235      0.01505        -0.019639     -0.016469      0.001855
      4.58853      9.96550      0.01517        -0.024817      0.006909      0.001114
      3.04930      2.68154      5.29732        -0.031411      0.019389      0.028694
      4.02070      2.02068      5.36174        -1.647180      1.100145     -0.136927
      2.07767      3.34267      5.23786         1.657555     -1.103562      0.084710
 -----------------------------------------------------------------------------------
    total drift:                               -0.018418      0.030602      0.011347


--------------------------------------------------------------------------------------------------------



  FREE ENERGIE OF THE ION-ELECTRON SYSTEM (eV)
  ---------------------------------------------------
  free  energy   TOTEN  =      -525.88716887 eV

  energy  without entropy=     -525.88716887  energy(sigma->0) =     -525.88716887
 


--------------------------------------------------------------------------------------------------------


    POTLOK:  cpu time    8.4226: real time    8.4803


--------------------------------------------------------------------------------------------------------


 writing wavefunctions
     LOOP+:  cpu time 1217.7020: real time 1227.6071
    4ORBIT:  cpu time    0.0000: real time    0.0000

 total amount of memory used by VASP MPI-rank0   698619. kBytes
=======================================================================

   base      :      30000. kBytes
   nonl-proj :     230539. kBytes
   fftplans  :      40716. kBytes
   grid      :     363125. kBytes
   one-center:        162. kBytes
   wavefun   :      34077. kBytes
 
  
  
 General timing and accounting informations for this job:
 ========================================================
  
                  Total CPU time used (sec):     1260.034
                            User time (sec):     1221.336
                          System time (sec):       38.698
                         Elapsed time (sec):     1271.103
  
                   Maximum memory used (kb):     1472160.
                   Average memory used (kb):          N/A
  
                          Minor page faults:       372470
                          Major page faults:           88
                 Voluntary context switches:         3513
