 vasp.6.2.1 16May21 (build Nov 06 2021 14:46:37) complex                        
  
 executed on             LinuxIFC date 2025.03.03  22:39:17
 running on  112 total cores
 distrk:  each k-point on   56 cores,    2 groups
 distr:  one band on NCORE=   1 cores,   56 groups


--------------------------------------------------------------------------------------------------------


 INCAR:
   ALGO = Conjugate
   KPAR = 2
   NCORE = 32
   ISMEAR = 0
   SIGMA = 0.01
   PREC = Accurate
   EDIFF = 1E-7
   ENCUT = 1000
   ISIF = 0
   METAGGA = SCAN
   LUSE_VDW = .TRUE.
   BPARAM = 15.7
   LASPH = .TRUE.
   SYMPREC = 1E-7
   NELM = 200

 POTCAR:    PAW_PBE C_h 06Feb2004                 
 POTCAR:    PAW_PBE O_h 06Feb2004                 
 -----------------------------------------------------------------------------
|                                                                             |
|           W    W    AA    RRRRR   N    N  II  N    N   GGGG   !!!           |
|           W    W   A  A   R    R  NN   N  II  NN   N  G    G  !!!           |
|           W    W  A    A  R    R  N N  N  II  N N  N  G       !!!           |
|           W WW W  AAAAAA  RRRRR   N  N N  II  N  N N  G  GGG   !            |
|           WW  WW  A    A  R   R   N   NN  II  N   NN  G    G                |
|           W    W  A    A  R    R  N    N  II  N    N   GGGG   !!!           |
|                                                                             |
|     The value NCORE = 32 specified in the INCAR file was overwritten,       |
|     because it was not compatible with the 56 processes available:          |
|     NCORE = 1                                                               |
|     was used instead, please check that this makes sense for your           |
|     machine.                                                                |
|                                                                             |
 -----------------------------------------------------------------------------

 -----------------------------------------------------------------------------
|                                                                             |
|           W    W    AA    RRRRR   N    N  II  N    N   GGGG   !!!           |
|           W    W   A  A   R    R  NN   N  II  NN   N  G    G  !!!           |
|           W    W  A    A  R    R  N N  N  II  N N  N  G       !!!           |
|           W WW W  AAAAAA  RRRRR   N  N N  II  N  N N  G  GGG   !            |
|           WW  WW  A    A  R   R   N   NN  II  N   NN  G    G                |
|           W    W  A    A  R    R  N    N  II  N    N   GGGG   !!!           |
|                                                                             |
|     For optimal performance we recommend to set                             |
|       NCORE = 2 up to number-of-cores-per-socket                            |
|     NCORE specifies how many cores store one orbital (NPAR=cpu/NCORE).      |
|     This setting can greatly improve the performance of VASP for DFT.       |
|     The default, NCORE=1 might be grossly inefficient on modern             |
|     multi-core architectures or massively parallel machines. Do your        |
|     own testing! More info at https://www.vasp.at/wiki/index.php/NCORE      |
|     Unfortunately you need to use the default for GW and RPA                |
|     calculations (for HF NCORE is supported but not extensively tested      |
|     yet).                                                                   |
|                                                                             |
 -----------------------------------------------------------------------------

 -----------------------------------------------------------------------------
|                                                                             |
|               ----> ADVICE to this user running VASP <----                  |
|                                                                             |
|     You have switched on vdW-DFT.                                           |
|     This routine was written and supplied by Jiri Klimes. We recommend      |
|     that you carefully read and cite the following publications:            |
|       J. Klimes, D.R. Bowler, A. Michelides                                 |
|          J. Phys.: Cond Matt. 22 022201 (2010)                              |
|       J. Klimes, D.R. Bowler, A. Michelides                                 |
|          Phys. Rev. B. 83, 195131 (2011)                                    |
|     and references therein.                                                 |
|                                                                             |
 -----------------------------------------------------------------------------

 POTCAR:    PAW_PBE C_h 06Feb2004                 
   VRHFIN =C: s2p2                                                                                  
   LEXCH  = PE                                                                                      
   EATOM  =   147.1560 eV,   10.8157 Ry                                                             
                                                                                                    
   TITEL  = PAW_PBE C_h 06Feb2004                                                                   
   LULTRA =        F    use ultrasoft PP ?                                                          
   IUNSCR =        1    unscreen: 0-lin 1-nonlin 2-no                                               
   RPACOR =    0.800    partial core radius                                                         
   POMASS =   12.011; ZVAL   =    4.000    mass and valenz                                          
   RCORE  =    1.100    outmost cutoff radius                                                       
   RWIGS  =    1.630; RWIGS  =    0.863    wigner-seitz radius (au A)                               
   ENMAX  =  700.000; ENMIN  =  500.000 eV                                                          
   ICORE  =        2    local potential                                                             
   LCOR   =        T    correct aug charges                                                         
   LPAW   =        T    paw PP                                                                      
   EAUG   =  946.768                                                                                
   DEXC   =    0.000                                                                                
   RMAX   =    1.128    core radius for proj-oper                                                   
   RAUG   =    1.300    factor for augmentation sphere                                              
   RDEP   =    1.162    radius for radial grids                                                     
   RDEPT  =    1.088    core radius for aug-charge                                                  
                                                                                                    
   Atomic configuration                                                                             
    4 entries                                                                                       
     n  l   j            E        occ.                                                              
     1  0  0.50      -273.3789   2.0000                                                             
     2  0  0.50       -13.7508   2.0000                                                             
     2  1  0.50        -5.2854   2.0000                                                             
     3  2  1.50        -5.4423   0.0000                                                             
   Description                                                                                      
     l       E           TYP  RCUT    TYP  RCUT                                                     
     0    -13.7508458     23  1.100                                                                 
     0     -8.2022199     23  1.100                                                                 
     1     -5.2854383     23  1.100                                                                 
     1      1.1560700     23  1.100                                                                 
     2     -5.4423304      7  1.100                                                                 
  local pseudopotential read in
  partial core-charges read in
  partial kinetic energy density read in
  atomic valenz-charges read in
  non local Contribution for L=           0  read in
    real space projection operators read in
  non local Contribution for L=           0  read in
    real space projection operators read in
  non local Contribution for L=           1  read in
    real space projection operators read in
  non local Contribution for L=           1  read in
    real space projection operators read in
    PAW grid and wavefunctions read in
 
   number of l-projection  operators is LMAX  =           4
   number of lm-projection operators is LMMAX =           8
 
 POTCAR:    PAW_PBE O_h 06Feb2004                 
   VRHFIN =O: s2p4                                                                                  
   LEXCH  = PE                                                                                      
   EATOM  =   432.3788 eV,   31.7789 Ry                                                             
                                                                                                    
   TITEL  = PAW_PBE O_h 06Feb2004                                                                   
   LULTRA =        F    use ultrasoft PP ?                                                          
   IUNSCR =        1    unscreen: 0-lin 1-nonlin 2-no                                               
   RPACOR =    0.800    partial core radius                                                         
   POMASS =   16.000; ZVAL   =    6.000    mass and valenz                                          
   RCORE  =    1.100    outmost cutoff radius                                                       
   RWIGS  =    1.400; RWIGS  =    0.741    wigner-seitz radius (au A)                               
   ENMAX  =  700.000; ENMIN  =  500.000 eV                                                          
   ICORE  =        2    local potential                                                             
   LCOR   =        T    correct aug charges                                                         
   LPAW   =        T    paw PP                                                                      
   EAUG   =  888.804                                                                                
   DEXC   =    0.000                                                                                
   RMAX   =    1.128    core radius for proj-oper                                                   
   RAUG   =    1.300    factor for augmentation sphere                                              
   RDEP   =    1.125    radius for radial grids                                                     
   RDEPT  =    1.088    core radius for aug-charge                                                  
                                                                                                    
   Atomic configuration                                                                             
    4 entries                                                                                       
     n  l   j            E        occ.                                                              
     1  0  0.50      -514.6923   2.0000                                                             
     2  0  0.50       -23.9615   2.0000                                                             
     2  1  0.50        -9.0305   4.0000                                                             
     3  2  1.50        -9.5241   0.0000                                                             
   Description                                                                                      
     l       E           TYP  RCUT    TYP  RCUT                                                     
     0    -23.9615319     23  1.100                                                                 
     0    -25.3221145     23  1.100                                                                 
     1     -9.0304911     23  1.100                                                                 
     1     -5.4802209     23  1.100                                                                 
     2     -9.5240782      7  1.100                                                                 
  local pseudopotential read in
  partial core-charges read in
  partial kinetic energy density read in
  atomic valenz-charges read in
  non local Contribution for L=           0  read in
    real space projection operators read in
  non local Contribution for L=           0  read in
    real space projection operators read in
  non local Contribution for L=           1  read in
    real space projection operators read in
  non local Contribution for L=           1  read in
    real space projection operators read in
    PAW grid and wavefunctions read in
 
   number of l-projection  operators is LMAX  =           4
   number of lm-projection operators is LMMAX =           8
 
 -----------------------------------------------------------------------------
|                                                                             |
|               ----> ADVICE to this user running VASP <----                  |
|                                                                             |
|     You have a (more or less) 'large supercell' and for larger cells it     |
|     might be more efficient to use real-space projection operators.         |
|     Therefore, try LREAL= Auto in the INCAR file.                           |
|     Mind: For very accurate calculation, you might also keep the            |
|     reciprocal projection scheme (i.e. LREAL=.FALSE.).                      |
|                                                                             |
 -----------------------------------------------------------------------------

  PAW_PBE C_h 06Feb2004                 :
 energy of atom  1       EATOM= -147.1560
 kinetic energy error for atom=    0.0031 (will be added to EATOM!!)
  PAW_PBE O_h 06Feb2004                 :
 energy of atom  2       EATOM= -432.3788
 kinetic energy error for atom=    0.0171 (will be added to EATOM!!)
 
 
 POSCAR:  C  O
  positions in cartesian coordinates
  No initial velocities read in

 METAGGA = SCAN     LMAXTAU =  6    LMIXTAU =  F

 exchange correlation table for  LEXCH =        8
   RHO(1)=    0.500       N(1)  =     2000
   RHO(2)=  100.500       N(2)  =     4000
 


--------------------------------------------------------------------------------------------------------


 ion  position               nearest neighbor table
   1  0.972  0.000  0.001-  50 1.42   2 1.42  42 1.42
   2  0.039  0.134  0.001-   5 1.42   7 1.42   1 1.42
   3  0.172  0.000  0.001-  42 1.42  44 1.42   4 1.42
   4  0.239  0.134  0.000-   7 1.42   3 1.42  23 1.42
   5  0.972  0.200  0.001-   6 1.42   2 1.42  34 1.42
   6  0.039  0.334  0.001-   5 1.42  21 1.42  11 1.42
   7  0.172  0.200  0.000-   8 1.42   2 1.42   4 1.42
   8  0.239  0.334  0.000-  13 1.42   7 1.42  21 1.42
   9  0.372  0.000  0.001-  10 1.42  44 1.42  46 1.42
  10  0.439  0.134  0.000-  27 1.42   9 1.42  23 1.42
  11  0.972  0.400  0.001-  12 1.42  36 1.42   6 1.42
  12  0.039  0.534  0.001-  25 1.42  11 1.42  17 1.42
  13  0.372  0.400  0.000-   8 1.42  14 1.42  24 1.42
  14  0.439  0.534  0.000-  13 1.42  29 1.42  19 1.42
  15  0.572  0.000  0.001-  46 1.42  16 1.42  48 1.42
  16  0.639  0.134  0.001-  15 1.42  35 1.42  27 1.42
  17  0.972  0.600  0.001-  38 1.42  18 1.42  12 1.42
  18  0.039  0.734  0.001-  43 1.42  41 1.42  17 1.42
  19  0.572  0.600  0.001-  14 1.42  20 1.42  32 1.42
  20  0.639  0.734  0.001-  49 1.42  19 1.42  47 1.42
  21  0.172  0.400  0.000-  22 1.42   8 1.42   6 1.42
  22  0.239  0.534  0.000-  21 1.42  29 1.42  25 1.42
  23  0.372  0.200  0.000-  10 1.42   4 1.42  24 1.42
  24  0.439  0.334  0.000-  13 1.42  31 1.42  23 1.42
  25  0.172  0.600  0.001-  26 1.42  12 1.42  22 1.42
  26  0.239  0.734  0.001-  25 1.42  45 1.42  43 1.42
  27  0.572  0.200  0.001-  10 1.42  28 1.42  16 1.42
  28  0.639  0.334  0.001-  27 1.42  37 1.42  31 1.42
  29  0.372  0.600  0.000-  22 1.42  14 1.42  30 1.42
  30  0.439  0.734  0.001-  47 1.42  29 1.42  45 1.42
  31  0.572  0.400  0.000-  32 1.42  28 1.42  24 1.42
  32  0.639  0.534  0.001-  31 1.42  39 1.42  19 1.42
  33  0.772  0.000  0.001-  34 1.42  48 1.42  50 1.42
  34  0.839  0.134  0.001-  33 1.42   5 1.42  35 1.42
  35  0.772  0.200  0.001-  36 1.42  16 1.42  34 1.42
  36  0.839  0.334  0.001-  35 1.42  11 1.42  37 1.42
  37  0.772  0.400  0.001-  28 1.42  38 1.42  36 1.42
  38  0.839  0.534  0.001-  17 1.42  37 1.42  39 1.42
  39  0.772  0.600  0.001-  40 1.42  38 1.42  32 1.42
  40  0.839  0.734  0.001-  39 1.42  49 1.42  41 1.42
  41  0.972  0.800  0.001-  18 1.42  42 1.42  40 1.42
  42  0.039  0.934  0.001-   3 1.42  41 1.42   1 1.42
  43  0.172  0.800  0.001-  18 1.42  44 1.42  26 1.42
  44  0.239  0.934  0.001-   9 1.42  43 1.42   3 1.42
  45  0.372  0.800  0.001-  26 1.42  46 1.42  30 1.42
  46  0.439  0.934  0.001-  15 1.42  45 1.42   9 1.42
  47  0.572  0.800  0.001-  30 1.42  48 1.42  20 1.42
  48  0.639  0.934  0.001-  47 1.42  33 1.42  15 1.42
  49  0.772  0.800  0.001-  50 1.42  20 1.42  40 1.42
  50  0.839  0.934  0.001-  49 1.42   1 1.42  33 1.42
  51  0.373  0.251  0.420-  52 1.18  53 1.18
  52  0.421  0.189  0.424-  51 1.18
  53  0.325  0.313  0.417-  51 1.18
 
  LATTYP: Found a hexagonal cell.
 ALAT       =    12.3250000000
 C/A-ratio  =     1.6227180527
  
  Lattice vectors:
  
 A1 = (  12.3250000000,   0.0000000000,   0.0000000000)
 A2 = (  -6.1625000000,  10.6737631016,   0.0000000000)
 A3 = (   0.0000000000,   0.0000000000,  20.0000000000)


Analysis of symmetry for initial positions (statically):
=====================================================================
 Subroutine PRICEL returns:
 Original cell was already a primitive cell.
 

 Routine SETGRP: Setting up the symmetry group for a 
 hexagonal supercell.


 Subroutine GETGRP returns: Found  1 space group operations
 (whereof  1 operations were pure point group operations)
 out of a pool of 24 trial point group operations.


The static configuration has the point symmetry C_1 .


Analysis of symmetry for dynamics (positions and initial velocities):
=====================================================================
 Subroutine PRICEL returns:
 Original cell was already a primitive cell.
 

 Routine SETGRP: Setting up the symmetry group for a 
 hexagonal supercell.


 Subroutine GETGRP returns: Found  1 space group operations
 (whereof  1 operations were pure point group operations)
 out of a pool of 24 trial point group operations.


The dynamic configuration has the point symmetry C_1 .


 Subroutine INISYM returns: Found  1 space group operations
 (whereof  1 operations are pure point group operations),
 and found     1 'primitive' translations


----------------------------------------------------------------------------------------

                                     Primitive cell                                     

  volume of cell :    2631.0826

  direct lattice vectors                    reciprocal lattice vectors
    12.325000000  0.000000000  0.000000000     0.081135903  0.046843835  0.000000000
    -6.162500000 10.673763102  0.000000000     0.000000000  0.093687670  0.000000000
     0.000000000  0.000000000 20.000000000     0.000000000  0.000000000  0.050000000

  length of vectors
    12.325000000 12.325000000 20.000000000     0.093687670  0.093687670  0.050000000

  position of ions in fractional coordinates (direct lattice)
     0.972450841  0.000320818  0.000708389
     0.039118382  0.133659505  0.000550216
     0.172443627  0.000295449  0.000624535
     0.239096278  0.133647917  0.000320585
     0.972452058  0.200322012  0.000606523
     0.039128360  0.333643771  0.000555187
     0.172451764  0.200354552  0.000273959
     0.239124359  0.333665720  0.000090325
     0.372465565  0.000324403  0.000567391
     0.439137473  0.133619939  0.000322923
     0.972449824  0.400309362  0.000684513
     0.039124981  0.533636789  0.000716763
     0.372416176  0.400329481  0.000000000
     0.439099602  0.533638981  0.000290518
     0.572443676  0.000312125  0.000699475
     0.639110207  0.133631751  0.000684093
     0.972452703  0.600305653  0.000800361
     0.039124495  0.733640359  0.000818141
     0.572433471  0.600306242  0.000503618
     0.639111888  0.733641879  0.000659881
     0.172454630  0.400318228  0.000361306
     0.239120185  0.533636548  0.000473136
     0.372459750  0.200295993  0.000111246
     0.439107096  0.333673419  0.000069702
     0.172452155  0.600311506  0.000655425
     0.239123371  0.733638574  0.000718912
     0.572431082  0.200289171  0.000516621
     0.639112773  0.333618630  0.000577970
     0.372439808  0.600308022  0.000453556
     0.439116090  0.733637858  0.000617737
     0.572469358  0.400320504  0.000424897
     0.639119408  0.533650873  0.000574513
     0.772445723  0.000315427  0.000745201
     0.839116277  0.133640203  0.000719132
     0.772440513  0.200307432  0.000726291
     0.839120241  0.333635728  0.000731834
     0.772446320  0.400298367  0.000728722
     0.839118980  0.533633964  0.000776376
     0.772456143  0.600308173  0.000744639
     0.839115033  0.733643180  0.000789390
     0.972455313  0.800305582  0.000815291
     0.039114714  0.933643289  0.000747563
     0.172457971  0.800312211  0.000779216
     0.239134551  0.933647193  0.000681063
     0.372451396  0.800316674  0.000689249
     0.439124489  0.933644769  0.000676788
     0.572441101  0.800310054  0.000668168
     0.639115067  0.933638985  0.000734556
     0.772445098  0.800313187  0.000752577
     0.839116614  0.933644338  0.000758538
     0.373021009  0.251226878  0.420448208
     0.420879805  0.189313152  0.423669301
     0.325156981  0.313167186  0.417475464

  ion indices of the primitive-cell ions
   primitive index   ion index
                 1           1
                 2           2
                 3           3
                 4           4
                 5           5
                 6           6
                 7           7
                 8           8
                 9           9
                10          10
                11          11
                12          12
                13          13
                14          14
                15          15
                16          16
                17          17
                18          18
                19          19
                20          20
                21          21
                22          22
                23          23
                24          24
                25          25
                26          26
                27          27
                28          28
                29          29
                30          30
                31          31
                32          32
                33          33
                34          34
                35          35
                36          36
                37          37
                38          38
                39          39
                40          40
                41          41
                42          42
                43          43
                44          44
                45          45
                46          46
                47          47
                48          48
                49          49
                50          50
                51          51
                52          52
                53          53

----------------------------------------------------------------------------------------

 
 
 KPOINTS: auto                                    

Automatic generation of k-mesh.
 Grid dimensions read from file:
 generate k-points for:    1    1    1

 Generating k-lattice:

  Cartesian coordinates                     Fractional coordinates (reciprocal lattice)
     0.081135903  0.046843835  0.000000000     1.000000000 -0.000000000  0.000000000
     0.000000000  0.093687670  0.000000000     0.000000000  1.000000000  0.000000000
     0.000000000  0.000000000  0.050000000     0.000000000  0.000000000  1.000000000

  Length of vectors
     0.093687670  0.093687670  0.050000000

  Shift w.r.t. Gamma in fractional coordinates (k-lattice)
     0.000000000  0.000000000  0.000000000

 
 Subroutine IBZKPT returns following result:
 ===========================================
 
 Found      1 irreducible k-points:
 
 Following reciprocal coordinates:
            Coordinates               Weight
  0.000000  0.000000  0.000000      1.000000
 
 Following cartesian coordinates:
            Coordinates               Weight
  0.000000  0.000000  0.000000      1.000000
 


--------------------------------------------------------------------------------------------------------




 Dimension of arrays:
   k-points           NKPTS =      1   k-points in BZ     NKDIM =      1   number of bands    NBANDS=    168
   number of dos      NEDOS =    301   number of ions     NIONS =     53
   non local maximal  LDIM  =      4   non local SUM 2l+1 LMDIM =      8
   total plane-waves  NPLWV = ******
   max r-space proj   IRMAX =      1   max aug-charges    IRDMAX=   9736
   dimension x,y,z NGX =   128 NGY =  128 NGZ =  210
   dimension x,y,z NGXF=   256 NGYF=  256 NGZF=  420
   support grid    NGXF=   256 NGYF=  256 NGZF=  420
   ions per type =              51   2
   NGX,Y,Z   is equivalent  to a cutoff of  17.27, 17.27, 17.46 a.u.
   NGXF,Y,Z  is equivalent  to a cutoff of  34.53, 34.53, 34.91 a.u.

 SYSTEM =  unknown system                          
 POSCAR =   C  O                                   

 Startparameter for this run:
   NWRITE =      2    write-flag & timer
   PREC   = accura    normal or accurate (medium, high low for compatibility)
   ISTART =      0    job   : 0-new  1-cont  2-samecut
   ICHARG =      2    charge: 1-file 2-atom 10-const
   ISPIN  =      1    spin polarized calculation?
   LNONCOLLINEAR =      F non collinear calculations
   LSORBIT =      F    spin-orbit coupling
   INIWAV =      1    electr: 0-lowe 1-rand  2-diag
   LASPH  =      T    aspherical Exc in radial PAW
 Electronic Relaxation 1
   ENCUT  = 1000.0 eV  73.50 Ry    8.57 a.u.  31.78 31.78 51.57*2*pi/ulx,y,z
   ENINI  = 1000.0     initial cutoff
   ENAUG  =  946.8 eV  augmentation charge cutoff
   NELM   =    200;   NELMIN=  2; NELMDL= -5     # of ELM steps 
   EDIFF  = 0.1E-06   stopping-criterion for ELM
   LREAL  =      F    real-space projection
   NLSPLINE    = F    spline interpolate recip. space projectors
   LCOMPAT=      F    compatible to vasp.4.4
   GGA_COMPAT  = T    GGA compatible to vasp.4.4-vasp.4.6
   LMAXPAW     = -100 max onsite density
   LMAXMIX     =    2 max onsite mixed and CHGCAR
   VOSKOWN=      0    Vosko Wilk Nusair interpolation
   ROPT   =    0.00000   0.00000
 Ionic relaxation
   EDIFFG = 0.1E-05   stopping-criterion for IOM
   NSW    =      0    number of steps for IOM
   NBLOCK =      1;   KBLOCK =      1    inner block; outer block 
   IBRION =     -1    ionic relax: 0-MD 1-quasi-New 2-CG
   NFREE  =      0    steps in history (QN), initial steepest desc. (CG)
   ISIF   =      0    stress and relaxation
   IWAVPR =     10    prediction:  0-non 1-charg 2-wave 3-comb
   ISYM   =      2    0-nonsym 1-usesym 2-fastsym
   LCORR  =      T    Harris-Foulkes like correction to forces

   POTIM  = 0.5000    time-step for ionic-motion
   TEIN   =    0.0    initial temperature
   TEBEG  =    0.0;   TEEND  =   0.0 temperature during run
   SMASS  =  -3.00    Nose mass-parameter (am)
   estimated Nose-frequenzy (Omega)   =  0.10E-29 period in steps = 0.13E+47 mass=  -0.347E-26a.u.
   SCALEE = 1.0000    scale energy and forces
   NPACO  =    256;   APACO  = 16.0  distance and # of slots for P.C.
   PSTRESS=    0.0 pullay stress

  Mass of Ions in am
   POMASS =  12.01 16.00
  Ionic Valenz
   ZVAL   =   4.00  6.00
  Atomic Wigner-Seitz radii
   RWIGS  =  -1.00 -1.00
  virtual crystal weights 
   VCA    =   1.00  1.00
   NELECT =     216.0000    total number of electrons
   NUPDOWN=      -1.0000    fix difference up-down

 DOS related values:
   EMIN   =  10.00;   EMAX   =-10.00  energy-range for DOS
   EFERMI =   0.00
   ISMEAR =     0;   SIGMA  =   0.01  broadening in eV -4-tet -1-fermi 0-gaus

 Electronic relaxation 2 (details)
   IALGO  =     58    algorithm
   LDIAG  =      T    sub-space diagonalisation (order eigenvalues)
   LSUBROT=      F    optimize rotation matrix (better conditioning)
   TURBO    =      0    0=normal 1=particle mesh
   IRESTART =      0    0=no restart 2=restart with 2 vectors
   NREBOOT  =      0    no. of reboots
   NMIN     =      0    reboot dimension
   EREF     =   0.00    reference energy to select bands
   IMIX   =      4    mixing-type and parameters
     AMIX     =   0.40;   BMIX     =  1.00
     AMIX_MAG =   1.60;   BMIX_MAG =  1.00
     AMIN     =   0.10
     WC   =   100.;   INIMIX=   1;  MIXPRE=   1;  MAXMIX= -45

 Intra band minimization:
   WEIMIN = 0.0000     energy-eigenvalue tresh-hold
   EBREAK =  0.15E-09  absolut break condition
   DEPER  =   0.30     relativ break condition  

   TIME   =   0.40     timestep for ELM

  volume/ion in A,a.u.               =      49.64       335.01
  Fermi-wavevector in a.u.,A,eV,Ry     =   0.711510  1.344560  6.887909  0.506247
  Thomas-Fermi vector in A             =   1.798641
 
 Write flags
   LWAVE        =      T    write WAVECAR
   LDOWNSAMPLE  =      F    k-point downsampling of WAVECAR
   LCHARG       =      T    write CHGCAR
   LVTOT        =      F    write LOCPOT, total local potential
   LVHAR        =      F    write LOCPOT, Hartree potential only
   LELF         =      F    write electronic localiz. function (ELF)
   LORBIT       =      0    0 simple, 1 ext, 2 COOP (PROOUT), +10 PAW based schemes


 Dipole corrections
   LMONO  =      F    monopole corrections only (constant potential shift)
   LDIPOL =      F    correct potential (dipole corrections)
   IDIPOL =      0    1-x, 2-y, 3-z, 4-all directions 
   EPSILON=  1.0000000 bulk dielectric constant

 Exchange correlation treatment:
   GGA     =    --    GGA type
   LEXCH   =     8    internal setting for exchange type
   VOSKOWN=      0    Vosko Wilk Nusair interpolation
   LHFCALC =     F    Hartree Fock is set to
   LHFONE  =     F    Hartree Fock one center treatment
   AEXX    =    0.0000 exact exchange contribution

 vdW DFT:
   LUSE_VDW   =     T    switch on vdW DFT
   Zab_VDW    =-.8491    correlation parameter
   PARAM1     =0.1234
   PARAM2     =1.0000
   PARAM3     =0.0000
   -- rVV10 --
   BPARAM     =15.7000
   CPARAM     = 0.0093

 Linear response parameters
   LEPSILON=     F    determine dielectric tensor
   LRPA    =     F    only Hartree local field effects (RPA)
   LNABLA  =     F    use nabla operator in PAW spheres
   LVEL    =     F    velocity operator in full k-point grid
   LINTERFAST=   F  fast interpolation
   KINTER  =     0    interpolate to denser k-point grid
   CSHIFT  =0.1000    complex shift for real part using Kramers Kronig
   OMEGAMAX=  -1.0    maximum frequency
   DEG_THRESHOLD= 0.2000000E-02 threshold for treating states as degnerate
   RTIME   =   -0.100 relaxation time in fs
  (WPLASMAI=    0.000 imaginary part of plasma frequency in eV, 0.658/RTIME)
   DFIELD  = 0.0000000 0.0000000 0.0000000 field for delta impulse in time
 
 Orbital magnetization related:
   ORBITALMAG=     F  switch on orbital magnetization
   LCHIMAG   =     F  perturbation theory with respect to B field
   DQ        =  0.001000  dq finite difference perturbation B field
   LLRAUG    =     F  two centre corrections for induced B field



--------------------------------------------------------------------------------------------------------


 Static calculation
 charge density and potential will be updated during run
 non-spin polarized calculation
 Conjugate gradient for all bands (Freysoldt, et al. PRB 79, 241103 (2009))
 preconditioned conjugated gradient                                        
 perform sub-space diagonalisation
    before iterative eigenvector-optimisation
 modified Broyden-mixing scheme, WC =      100.0
 initial mixing is a Kerker type mixing with AMIX =  0.4000 and BMIX =      1.0000
 Hartree-type preconditioning will be used
 using additional bands           60
 reciprocal scheme for non local part
 use partial core corrections
 no Harris-corrections to forces 
 use gradient corrections 
 use of overlap-Matrix (Vanderbilt PP)
 Gauss-broadening in eV      SIGMA  =   0.01


--------------------------------------------------------------------------------------------------------


  energy-cutoff  :     1000.00
  volume of cell :     2631.08
      direct lattice vectors                 reciprocal lattice vectors
    12.325000000  0.000000000  0.000000000     0.081135903  0.046843835  0.000000000
    -6.162500000 10.673763102  0.000000000     0.000000000  0.093687670  0.000000000
     0.000000000  0.000000000 20.000000000     0.000000000  0.000000000  0.050000000

  length of vectors
    12.325000000 12.325000000 20.000000000     0.093687670  0.093687670  0.050000000


 
 k-points in units of 2pi/SCALE and weight: auto                                    
   0.00000000  0.00000000  0.00000000       1.000
 
 k-points in reciprocal lattice and weights: auto                                    
   0.00000000  0.00000000  0.00000000       1.000
 
 position of ions in fractional coordinates (direct lattice) 
   0.97245084  0.00032082  0.00070839
   0.03911838  0.13365950  0.00055022
   0.17244363  0.00029545  0.00062454
   0.23909628  0.13364792  0.00032058
   0.97245206  0.20032201  0.00060652
   0.03912836  0.33364377  0.00055519
   0.17245176  0.20035455  0.00027396
   0.23912436  0.33366572  0.00009033
   0.37246557  0.00032440  0.00056739
   0.43913747  0.13361994  0.00032292
   0.97244982  0.40030936  0.00068451
   0.03912498  0.53363679  0.00071676
   0.37241618  0.40032948  0.00000000
   0.43909960  0.53363898  0.00029052
   0.57244368  0.00031213  0.00069947
   0.63911021  0.13363175  0.00068409
   0.97245270  0.60030565  0.00080036
   0.03912449  0.73364036  0.00081814
   0.57243347  0.60030624  0.00050362
   0.63911189  0.73364188  0.00065988
   0.17245463  0.40031823  0.00036131
   0.23912018  0.53363655  0.00047314
   0.37245975  0.20029599  0.00011125
   0.43910710  0.33367342  0.00006970
   0.17245216  0.60031151  0.00065542
   0.23912337  0.73363857  0.00071891
   0.57243108  0.20028917  0.00051662
   0.63911277  0.33361863  0.00057797
   0.37243981  0.60030802  0.00045356
   0.43911609  0.73363786  0.00061774
   0.57246936  0.40032050  0.00042490
   0.63911941  0.53365087  0.00057451
   0.77244572  0.00031543  0.00074520
   0.83911628  0.13364020  0.00071913
   0.77244051  0.20030743  0.00072629
   0.83912024  0.33363573  0.00073183
   0.77244632  0.40029837  0.00072872
   0.83911898  0.53363396  0.00077638
   0.77245614  0.60030817  0.00074464
   0.83911503  0.73364318  0.00078939
   0.97245531  0.80030558  0.00081529
   0.03911471  0.93364329  0.00074756
   0.17245797  0.80031221  0.00077922
   0.23913455  0.93364719  0.00068106
   0.37245140  0.80031667  0.00068925
   0.43912449  0.93364477  0.00067679
   0.57244110  0.80031005  0.00066817
   0.63911507  0.93363899  0.00073456
   0.77244510  0.80031319  0.00075258
   0.83911661  0.93364434  0.00075854
   0.37302101  0.25122688  0.42044821
   0.42087980  0.18931315  0.42366930
   0.32515698  0.31316719  0.41747546
 
 position of ions in cartesian coordinates  (Angst):
  11.98347958  0.00342433  0.01416777
  -0.34154264  1.42664989  0.01100432
   2.12354700  0.00315355  0.01249070
   2.12325634  1.42652621  0.00641170
  10.75098721  2.13818970  0.01213047
  -1.57382270  3.56123457  0.01110375
   0.89078307  2.13853702  0.00547917
   0.89099273  3.56146885  0.00180651
   4.58863896  0.00346260  0.01134782
   4.58893648  1.42622757  0.00645846
   9.51853763  4.27280730  0.01369027
  -2.80632132  5.69591267  0.01433526
   2.12299894  4.27302204  0.00000000
   2.12335237  5.69593607  0.00581036
   7.05344483  0.00333155  0.01398950
   7.05352764  1.42635365  0.01368187
   8.28609598  6.40752033  0.01600723
  -4.03884931  7.83070339  0.01636283
   3.35585531  6.40752662  0.01007237
   3.35598594  7.83071962  0.01319763
  -0.34145776  4.27290193  0.00722612
  -0.34137895  5.69591010  0.00946273
   3.35624236  2.13791198  0.00222492
   3.35573251  3.56155103  0.00139405
  -1.57394684  6.40758280  0.01310850
  -1.57385216  7.83068434  0.01437823
   5.82093107  2.13783916  0.01033241
   5.82114012  3.56096622  0.01155939
   0.89092245  6.40754561  0.00907111
   0.89106251  7.83067670  0.01235474
   4.58870974  4.27292622  0.00849795
   4.58852320  5.69606300  0.01149026
   9.51844972  0.00336679  0.01490402
   9.51855036  1.42644387  0.01438264
   8.28593477  2.13803408  0.01452582
   8.28612680  3.56114872  0.01463668
   7.05356221  4.27268994  0.01457444
   7.05362213  5.69588251  0.01552751
   5.82112285  6.40754723  0.01489279
   5.82101669  7.83073350  0.01578780
   7.05362858  8.54227219  0.01630582
  -5.27148792  9.96548729  0.01495127
  -2.80637951  8.54234295  0.01558431
  -2.80626749  9.96552896  0.01362126
  -0.34148805  8.54239058  0.01378498
  -0.34137657  9.96550309  0.01353576
   2.12342586  8.54231992  0.01336337
   2.12354296  9.96544135  0.01469111
   4.58845581  8.54235337  0.01505154
   4.58852904  9.96549848  0.01517076
   3.04929830  2.68153618  8.40896415
   4.02070129  2.02068374  8.47338601
   2.07766701  3.34267235  8.34950928
 


--------------------------------------------------------------------------------------------------------


 k-point   1 :   0.0000 0.0000 0.0000  plane waves:  189031

 maximum and minimum number of plane-waves per node :    189031   189031

 maximum number of plane-waves:    189031
 maximum index in each direction: 
   IXMAX=   31   IYMAX=   31   IZMAX=   51
   IXMIN=  -31   IYMIN=  -31   IZMIN=  -51


 serial   3D FFT for wavefunctions
 parallel 3D FFT for charge:
    minimum data exchange during FFTs selected (reduces bandwidth)


 total amount of memory used by VASP MPI-rank0   556209. kBytes
=======================================================================

   base      :      30000. kBytes
   nonl-proj :     184518. kBytes
   fftplans  :      31725. kBytes
   grid      :     282516. kBytes
   one-center:        162. kBytes
   wavefun   :      27288. kBytes
 
     INWAV:  cpu time    0.0000: real time    0.0000
 Broyden mixing: mesh for mixing (old mesh)
   NGX = 63   NGY = 63   NGZ =103
  (NGX  =256   NGY  =256   NGZ  =420)
  gives a total of 408807 points

 initial charge density was supplied:
 charge density of overlapping atoms calculated
 number of electron     216.0000000 magnetization 
 keeping initial charge density in first step


--------------------------------------------------------------------------------------------------------


 Maximum index for augmentation-charges          459 (set IRDMAX)


--------------------------------------------------------------------------------------------------------


 First call to EWALD:  gamma=   0.128
 Maximum number of real-space cells 3x 3x 2
 Maximum number of reciprocal cells 3x 3x 4

    FEWALD:  cpu time    0.0030: real time    0.0030


--------------------------------------- Iteration      1(   1)  ---------------------------------------


    POTLOK:  cpu time    6.2470: real time    6.2954
    SETDIJ:  cpu time    0.1489: real time    0.1495
    TRIAL :  cpu time   21.7905: real time   21.9736
    CORREC:  cpu time    0.0009: real time    0.0010
    --------------------------------------------
      LOOP:  cpu time   28.1977: real time   28.4374

 eigenvalue-minimisations  :   336
 total energy-change (2. order) : 0.2402673E+04  (-0.1180036E+05)
 number of electron     216.0000000 magnetization 
 augmentation part      216.0000000 magnetization 

 Free energy of the ion-electron system (eV)
  ---------------------------------------------------
  alpha Z        PSCENC =        59.93625244
  Ewald energy   TEWEN  =     29491.81118182
  -Hartree energ DENC   =    -35667.26840410
  -exchange      EXHF   =         0.00000000
  -V(xc)+E(xc)   XCENC  =       604.25769570
  PAW double counting   =      6339.73130699    -6197.22120962
  entropy T*S    EENTRO =        -0.00912482
  eigenvalues    EBANDS =      -598.08780583
  atomic energy  EATOM  =      8369.52358910
  ---------------------------------------------------
  free energy    TOTEN  =      2402.67348168 eV

  energy without entropy =     2402.68260650  energy(sigma->0) =     2402.67804409


--------------------------------------------------------------------------------------------------------




--------------------------------------- Iteration      1(   2)  ---------------------------------------


    TRIAL :  cpu time   30.9327: real time   31.2375
    CORREC:  cpu time    0.0001: real time    0.0001
    --------------------------------------------
      LOOP:  cpu time   31.0273: real time   31.3380

 eigenvalue-minimisations  :   560
 total energy-change (2. order) :-0.2432938E+04  (-0.2300857E+04)
 number of electron     216.0000000 magnetization 
 augmentation part      216.0000000 magnetization 

 Free energy of the ion-electron system (eV)
  ---------------------------------------------------
  alpha Z        PSCENC =        59.93625244
  Ewald energy   TEWEN  =     29491.81118182
  -Hartree energ DENC   =    -35667.26840410
  -exchange      EXHF   =         0.00000000
  -V(xc)+E(xc)   XCENC  =       604.25769570
  PAW double counting   =      6339.73130699    -6197.22120962
  entropy T*S    EENTRO =        -0.00000000
  eigenvalues    EBANDS =     -3031.03500871
  atomic energy  EATOM  =      8369.52358910
  ---------------------------------------------------
  free energy    TOTEN  =       -30.26459638 eV

  energy without entropy =      -30.26459638  energy(sigma->0) =      -30.26459638


--------------------------------------------------------------------------------------------------------




--------------------------------------- Iteration      1(   3)  ---------------------------------------


    TRIAL :  cpu time   24.0146: real time   24.2520
    CORREC:  cpu time    0.0001: real time    0.0001
    --------------------------------------------
      LOOP:  cpu time   24.0595: real time   24.3015

 eigenvalue-minimisations  :   392
 total energy-change (2. order) :-0.5581470E+03  (-0.5553072E+03)
 number of electron     216.0000000 magnetization 
 augmentation part      216.0000000 magnetization 

 Free energy of the ion-electron system (eV)
  ---------------------------------------------------
  alpha Z        PSCENC =        59.93625244
  Ewald energy   TEWEN  =     29491.81118182
  -Hartree energ DENC   =    -35667.26840410
  -exchange      EXHF   =         0.00000000
  -V(xc)+E(xc)   XCENC  =       604.25769570
  PAW double counting   =      6339.73130699    -6197.22120962
  entropy T*S    EENTRO =        -0.00000000
  eigenvalues    EBANDS =     -3589.18205193
  atomic energy  EATOM  =      8369.52358910
  ---------------------------------------------------
  free energy    TOTEN  =      -588.41163960 eV

  energy without entropy =     -588.41163960  energy(sigma->0) =     -588.41163960


--------------------------------------------------------------------------------------------------------




--------------------------------------- Iteration      1(   4)  ---------------------------------------


    TRIAL :  cpu time   26.3123: real time   26.5656
    CORREC:  cpu time    0.0001: real time    0.0001
    --------------------------------------------
      LOOP:  cpu time   26.3248: real time   26.5799

 eigenvalue-minimisations  :   448
 total energy-change (2. order) :-0.2597765E+02  (-0.2581223E+02)
 number of electron     216.0000000 magnetization 
 augmentation part      216.0000000 magnetization 

 Free energy of the ion-electron system (eV)
  ---------------------------------------------------
  alpha Z        PSCENC =        59.93625244
  Ewald energy   TEWEN  =     29491.81118182
  -Hartree energ DENC   =    -35667.26840410
  -exchange      EXHF   =         0.00000000
  -V(xc)+E(xc)   XCENC  =       604.25769570
  PAW double counting   =      6339.73130699    -6197.22120962
  entropy T*S    EENTRO =        -0.00000000
  eigenvalues    EBANDS =     -3615.15969901
  atomic energy  EATOM  =      8369.52358910
  ---------------------------------------------------
  free energy    TOTEN  =      -614.38928668 eV

  energy without entropy =     -614.38928668  energy(sigma->0) =     -614.38928668


--------------------------------------------------------------------------------------------------------




--------------------------------------- Iteration      1(   5)  ---------------------------------------


    TRIAL :  cpu time   21.7400: real time   21.9240
    CORREC:  cpu time    0.0001: real time    0.0001
    CHARGE:  cpu time    2.2825: real time    2.3012
    --------------------------------------------
      LOOP:  cpu time   24.0427: real time   24.2483

 eigenvalue-minimisations  :   336
 total energy-change (2. order) :-0.9188824E+00  (-0.9182764E+00)
 number of electron     216.0000000 magnetization 
 augmentation part       -0.4304721 magnetization 

 Free energy of the ion-electron system (eV)
  ---------------------------------------------------
  alpha Z        PSCENC =        59.93625244
  Ewald energy   TEWEN  =     29491.81118182
  -Hartree energ DENC   =    -35667.26840410
  -exchange      EXHF   =         0.00000000
  -V(xc)+E(xc)   XCENC  =       604.25769570
  PAW double counting   =      6339.73130699    -6197.22120962
  entropy T*S    EENTRO =        -0.00000000
  eigenvalues    EBANDS =     -3616.07858143
  atomic energy  EATOM  =      8369.52358910
  ---------------------------------------------------
  free energy    TOTEN  =      -615.30816910 eV

  energy without entropy =     -615.30816910  energy(sigma->0) =     -615.30816910


--------------------------------------------------------------------------------------------------------




--------------------------------------- Iteration      1(   6)  ---------------------------------------


    POTLOK:  cpu time    6.1417: real time    6.1909
    SETDIJ:  cpu time    0.1694: real time    0.1700
    TRIAL :  cpu time   15.4620: real time   15.6048
    CORREC:  cpu time   11.7062: real time   11.8020
    CHARGE:  cpu time    2.2712: real time    2.2951
    --------------------------------------------
      LOOP:  cpu time   35.7891: real time   36.1038

 eigenvalue-minimisations  :     0
 total energy-change (2. order) : 0.1039481E+03  (-0.1201368E+02)
 number of electron     216.0000000 magnetization 
 augmentation part       -0.4918586 magnetization 

 Free energy of the ion-electron system (eV)
  ---------------------------------------------------
  alpha Z        PSCENC =        59.93625244
  Ewald energy   TEWEN  =     29491.81118182
  -Hartree energ DENC   =    -36995.52011507
  -exchange      EXHF   =         0.00000000
  -V(xc)+E(xc)   XCENC  =       671.03872458
  PAW double counting   =    113843.48460269  -113706.70079050
  entropy T*S    EENTRO =        -0.00000000
  eigenvalues    EBANDS =     -2244.93354381
  atomic energy  EATOM  =      8369.52358910
  ---------------------------------------------------
  free energy    TOTEN  =      -511.36009875 eV

  energy without entropy =     -511.36009875  energy(sigma->0) =     -511.36009875


--------------------------------------------------------------------------------------------------------




--------------------------------------- Iteration      1(   7)  ---------------------------------------


    POTLOK:  cpu time    6.1290: real time    6.1703
    SETDIJ:  cpu time    0.1955: real time    0.1962
    TRIAL :  cpu time   15.4838: real time   15.6148
    CORREC:  cpu time   11.6930: real time   11.8212
    CHARGE:  cpu time    2.2668: real time    2.2910
    --------------------------------------------
      LOOP:  cpu time   35.8158: real time   36.1435

 eigenvalue-minimisations  :     0
 total energy-change (2. order) :-0.1202811E+02  (-0.1594823E+01)
 number of electron     216.0000000 magnetization 
 augmentation part       -0.5230237 magnetization 

 Free energy of the ion-electron system (eV)
  ---------------------------------------------------
  alpha Z        PSCENC =        59.93625244
  Ewald energy   TEWEN  =     29491.81118182
  -Hartree energ DENC   =    -36578.91535231
  -exchange      EXHF   =         0.00000000
  -V(xc)+E(xc)   XCENC  =       651.26110610
  PAW double counting   =    132021.25911998  -131881.73384943
  entropy T*S    EENTRO =        -0.00000000
  eigenvalues    EBANDS =     -2656.53026028
  atomic energy  EATOM  =      8369.52358910
  ---------------------------------------------------
  free energy    TOTEN  =      -523.38821259 eV

  energy without entropy =     -523.38821259  energy(sigma->0) =     -523.38821259


--------------------------------------------------------------------------------------------------------




--------------------------------------- Iteration      1(   8)  ---------------------------------------


    POTLOK:  cpu time    6.1407: real time    6.1863
    SETDIJ:  cpu time    0.1615: real time    0.1620
    TRIAL :  cpu time   15.5243: real time   15.6348
    CORREC:  cpu time   11.7419: real time   11.8311
    CHARGE:  cpu time    2.2786: real time    2.2972
    --------------------------------------------
      LOOP:  cpu time   35.9101: real time   36.1779

 eigenvalue-minimisations  :     0
 total energy-change (2. order) :-0.1594612E+01  (-0.5325523E+00)
 number of electron     216.0000000 magnetization 
 augmentation part       -0.5209742 magnetization 

 Free energy of the ion-electron system (eV)
  ---------------------------------------------------
  alpha Z        PSCENC =        59.93625244
  Ewald energy   TEWEN  =     29491.81118182
  -Hartree energ DENC   =    -36547.48728764
  -exchange      EXHF   =         0.00000000
  -V(xc)+E(xc)   XCENC  =       649.62107921
  PAW double counting   =    140032.75607037  -139892.74578545
  entropy T*S    EENTRO =        -0.00000000
  eigenvalues    EBANDS =     -2688.39792401
  atomic energy  EATOM  =      8369.52358910
  ---------------------------------------------------
  free energy    TOTEN  =      -524.98282416 eV

  energy without entropy =     -524.98282416  energy(sigma->0) =     -524.98282416


--------------------------------------------------------------------------------------------------------




--------------------------------------- Iteration      1(   9)  ---------------------------------------


    POTLOK:  cpu time    6.1471: real time    6.1862
    SETDIJ:  cpu time    0.1730: real time    0.1739
    TRIAL :  cpu time   15.4720: real time   15.5943
    CORREC:  cpu time   11.7174: real time   11.8055
    CHARGE:  cpu time    2.2797: real time    2.2976
    --------------------------------------------
      LOOP:  cpu time   35.8459: real time   36.1190

 eigenvalue-minimisations  :     0
 total energy-change (2. order) :-0.5321935E+00  (-0.2131549E+00)
 number of electron     216.0000000 magnetization 
 augmentation part       -0.5152810 magnetization 

 Free energy of the ion-electron system (eV)
  ---------------------------------------------------
  alpha Z        PSCENC =        59.93625244
  Ewald energy   TEWEN  =     29491.81118182
  -Hartree energ DENC   =    -36554.44029454
  -exchange      EXHF   =         0.00000000
  -V(xc)+E(xc)   XCENC  =       649.32700219
  PAW double counting   =    146395.98120886  -146255.76551759
  entropy T*S    EENTRO =        -0.00000000
  eigenvalues    EBANDS =     -2681.88843994
  atomic energy  EATOM  =      8369.52358910
  ---------------------------------------------------
  free energy    TOTEN  =      -525.51501766 eV

  energy without entropy =     -525.51501766  energy(sigma->0) =     -525.51501766


--------------------------------------------------------------------------------------------------------




--------------------------------------- Iteration      1(  10)  ---------------------------------------


    POTLOK:  cpu time    6.1538: real time    6.1928
    SETDIJ:  cpu time    0.1620: real time    0.1626
    TRIAL :  cpu time   15.4584: real time   15.5989
    CORREC:  cpu time   11.7249: real time   11.8201
    CHARGE:  cpu time    2.2778: real time    2.2999
    --------------------------------------------
      LOOP:  cpu time   35.8511: real time   36.1519

 eigenvalue-minimisations  :     0
 total energy-change (2. order) :-0.2128864E+00  (-0.9074218E-01)
 number of electron     216.0000000 magnetization 
 augmentation part       -0.5082742 magnetization 

 Free energy of the ion-electron system (eV)
  ---------------------------------------------------
  alpha Z        PSCENC =        59.93625244
  Ewald energy   TEWEN  =     29491.81118182
  -Hartree energ DENC   =    -36554.16966653
  -exchange      EXHF   =         0.00000000
  -V(xc)+E(xc)   XCENC  =       649.10212478
  PAW double counting   =    148914.63637953  -148774.31733308
  entropy T*S    EENTRO =        -0.00000000
  eigenvalues    EBANDS =     -2682.25043212
  atomic energy  EATOM  =      8369.52358910
  ---------------------------------------------------
  free energy    TOTEN  =      -525.72790406 eV

  energy without entropy =     -525.72790406  energy(sigma->0) =     -525.72790406


--------------------------------------------------------------------------------------------------------




--------------------------------------- Iteration      1(  11)  ---------------------------------------


    POTLOK:  cpu time    6.1496: real time    6.1894
    SETDIJ:  cpu time    0.1678: real time    0.1683
    TRIAL :  cpu time   15.4682: real time   15.5980
    CORREC:  cpu time   11.7234: real time   11.8340
    CHARGE:  cpu time    2.2823: real time    2.2986
    --------------------------------------------
      LOOP:  cpu time   35.8614: real time   36.1621

 eigenvalue-minimisations  :     0
 total energy-change (2. order) :-0.9046976E-01  (-0.3519956E-01)
 number of electron     216.0000000 magnetization 
 augmentation part       -0.5041512 magnetization 

 Free energy of the ion-electron system (eV)
  ---------------------------------------------------
  alpha Z        PSCENC =        59.93625244
  Ewald energy   TEWEN  =     29491.81118182
  -Hartree energ DENC   =    -36548.44675786
  -exchange      EXHF   =         0.00000000
  -V(xc)+E(xc)   XCENC  =       648.96675004
  PAW double counting   =    148732.80436736  -148592.48631661
  entropy T*S    EENTRO =        -0.00000000
  eigenvalues    EBANDS =     -2687.92744012
  atomic energy  EATOM  =      8369.52358910
  ---------------------------------------------------
  free energy    TOTEN  =      -525.81837382 eV

  energy without entropy =     -525.81837382  energy(sigma->0) =     -525.81837382


--------------------------------------------------------------------------------------------------------




--------------------------------------- Iteration      1(  12)  ---------------------------------------


    POTLOK:  cpu time    6.1405: real time    6.1788
    SETDIJ:  cpu time    0.1876: real time    0.1882
    TRIAL :  cpu time   15.4667: real time   15.6088
    CORREC:  cpu time   11.7610: real time   11.8541
    CHARGE:  cpu time    2.2778: real time    2.3261
    --------------------------------------------
      LOOP:  cpu time   35.8704: real time   36.1997

 eigenvalue-minimisations  :     0
 total energy-change (2. order) :-0.3511627E-01  (-0.1127144E-01)
 number of electron     216.0000000 magnetization 
 augmentation part       -0.5040854 magnetization 

 Free energy of the ion-electron system (eV)
  ---------------------------------------------------
  alpha Z        PSCENC =        59.93625244
  Ewald energy   TEWEN  =     29491.81118182
  -Hartree energ DENC   =    -36543.73529312
  -exchange      EXHF   =         0.00000000
  -V(xc)+E(xc)   XCENC  =       648.86686344
  PAW double counting   =    147967.83196276  -147827.54162452
  entropy T*S    EENTRO =        -0.00000000
  eigenvalues    EBANDS =     -2692.54642202
  atomic energy  EATOM  =      8369.52358910
  ---------------------------------------------------
  free energy    TOTEN  =      -525.85349010 eV

  energy without entropy =     -525.85349010  energy(sigma->0) =     -525.85349010


--------------------------------------------------------------------------------------------------------




--------------------------------------- Iteration      1(  13)  ---------------------------------------


    POTLOK:  cpu time    6.1478: real time    6.1847
    SETDIJ:  cpu time    0.1681: real time    0.1686
    TRIAL :  cpu time   15.4494: real time   15.5968
    CORREC:  cpu time   11.8297: real time   11.9291
    CHARGE:  cpu time    2.2788: real time    2.2953
    --------------------------------------------
      LOOP:  cpu time   35.9176: real time   36.2204

 eigenvalue-minimisations  :     0
 total energy-change (2. order) :-0.1125920E-01  (-0.3113959E-02)
 number of electron     216.0000000 magnetization 
 augmentation part       -0.5047900 magnetization 

 Free energy of the ion-electron system (eV)
  ---------------------------------------------------
  alpha Z        PSCENC =        59.93625244
  Ewald energy   TEWEN  =     29491.81118182
  -Hartree energ DENC   =    -36542.34841612
  -exchange      EXHF   =         0.00000000
  -V(xc)+E(xc)   XCENC  =       648.82190279
  PAW double counting   =    147386.42834618  -147246.15241956
  entropy T*S    EENTRO =        -0.00000000
  eigenvalues    EBANDS =     -2693.88518595
  atomic energy  EATOM  =      8369.52358910
  ---------------------------------------------------
  free energy    TOTEN  =      -525.86474930 eV

  energy without entropy =     -525.86474930  energy(sigma->0) =     -525.86474930


--------------------------------------------------------------------------------------------------------




--------------------------------------- Iteration      1(  14)  ---------------------------------------


    POTLOK:  cpu time    6.1371: real time    6.1842
    SETDIJ:  cpu time    0.1782: real time    0.1788
    TRIAL :  cpu time   15.4858: real time   15.6093
    CORREC:  cpu time   11.7521: real time   11.8398
    CHARGE:  cpu time    2.2802: real time    2.2964
    --------------------------------------------
      LOOP:  cpu time   35.8625: real time   36.1511

 eigenvalue-minimisations  :     0
 total energy-change (2. order) :-0.3118300E-02  (-0.8117259E-03)
 number of electron     216.0000000 magnetization 
 augmentation part       -0.5050926 magnetization 

 Free energy of the ion-electron system (eV)
  ---------------------------------------------------
  alpha Z        PSCENC =        59.93625244
  Ewald energy   TEWEN  =     29491.81118182
  -Hartree energ DENC   =    -36542.40753615
  -exchange      EXHF   =         0.00000000
  -V(xc)+E(xc)   XCENC  =       648.81983888
  PAW double counting   =    147124.07520777  -146983.80529345
  entropy T*S    EENTRO =        -0.00000000
  eigenvalues    EBANDS =     -2693.82110800
  atomic energy  EATOM  =      8369.52358910
  ---------------------------------------------------
  free energy    TOTEN  =      -525.86786760 eV

  energy without entropy =     -525.86786760  energy(sigma->0) =     -525.86786760


--------------------------------------------------------------------------------------------------------




--------------------------------------- Iteration      1(  15)  ---------------------------------------


    POTLOK:  cpu time    6.1523: real time    6.1922
    SETDIJ:  cpu time    0.1834: real time    0.1840
    TRIAL :  cpu time   15.4883: real time   15.6174
    CORREC:  cpu time   11.7423: real time   11.8284
    CHARGE:  cpu time    2.2854: real time    2.3020
    --------------------------------------------
      LOOP:  cpu time   35.9075: real time   36.1825

 eigenvalue-minimisations  :     0
 total energy-change (2. order) :-0.8178013E-03  (-0.2458569E-03)
 number of electron     216.0000000 magnetization 
 augmentation part       -0.5052555 magnetization 

 Free energy of the ion-electron system (eV)
  ---------------------------------------------------
  alpha Z        PSCENC =        59.93625244
  Ewald energy   TEWEN  =     29491.81118182
  -Hartree energ DENC   =    -36542.34309777
  -exchange      EXHF   =         0.00000000
  -V(xc)+E(xc)   XCENC  =       648.82168799
  PAW double counting   =    147024.29201448  -146884.02466551
  entropy T*S    EENTRO =        -0.00000000
  eigenvalues    EBANDS =     -2693.88564795
  atomic energy  EATOM  =      8369.52358910
  ---------------------------------------------------
  free energy    TOTEN  =      -525.86868540 eV

  energy without entropy =     -525.86868540  energy(sigma->0) =     -525.86868540


--------------------------------------------------------------------------------------------------------




--------------------------------------- Iteration      1(  16)  ---------------------------------------


    POTLOK:  cpu time    6.1403: real time    6.1860
    SETDIJ:  cpu time    0.1687: real time    0.1692
    TRIAL :  cpu time   15.4845: real time   15.6201
    CORREC:  cpu time   11.7521: real time   11.8407
    CHARGE:  cpu time    2.2890: real time    2.3084
    --------------------------------------------
      LOOP:  cpu time   35.8953: real time   36.1873

 eigenvalue-minimisations  :     0
 total energy-change (2. order) :-0.2489766E-03  (-0.9880359E-04)
 number of electron     216.0000000 magnetization 
 augmentation part       -0.5053340 magnetization 

 Free energy of the ion-electron system (eV)
  ---------------------------------------------------
  alpha Z        PSCENC =        59.93625244
  Ewald energy   TEWEN  =     29491.81118182
  -Hartree energ DENC   =    -36542.27141707
  -exchange      EXHF   =         0.00000000
  -V(xc)+E(xc)   XCENC  =       648.82147980
  PAW double counting   =    146963.59944448  -146823.33275344
  entropy T*S    EENTRO =        -0.00000000
  eigenvalues    EBANDS =     -2693.95671149
  atomic energy  EATOM  =      8369.52358910
  ---------------------------------------------------
  free energy    TOTEN  =      -525.86893438 eV

  energy without entropy =     -525.86893438  energy(sigma->0) =     -525.86893438


--------------------------------------------------------------------------------------------------------




--------------------------------------- Iteration      1(  17)  ---------------------------------------


    POTLOK:  cpu time    6.1446: real time    6.1897
    SETDIJ:  cpu time    0.1857: real time    0.1863
    TRIAL :  cpu time   15.4787: real time   15.6073
    CORREC:  cpu time   11.7504: real time   11.8335
    CHARGE:  cpu time    2.2766: real time    2.2941
    --------------------------------------------
      LOOP:  cpu time   35.8864: real time   36.1887

 eigenvalue-minimisations  :     0
 total energy-change (2. order) :-0.9575536E-04  (-0.4434363E-04)
 number of electron     216.0000000 magnetization 
 augmentation part       -0.5053716 magnetization 

 Free energy of the ion-electron system (eV)
  ---------------------------------------------------
  alpha Z        PSCENC =        59.93625244
  Ewald energy   TEWEN  =     29491.81118182
  -Hartree energ DENC   =    -36542.42559052
  -exchange      EXHF   =         0.00000000
  -V(xc)+E(xc)   XCENC  =       648.82995772
  PAW double counting   =    146914.31926148  -146774.05335544
  entropy T*S    EENTRO =        -0.00000000
  eigenvalues    EBANDS =     -2693.81032672
  atomic energy  EATOM  =      8369.52358910
  ---------------------------------------------------
  free energy    TOTEN  =      -525.86903013 eV

  energy without entropy =     -525.86903013  energy(sigma->0) =     -525.86903013


--------------------------------------------------------------------------------------------------------




--------------------------------------- Iteration      1(  18)  ---------------------------------------


    POTLOK:  cpu time    6.1471: real time    6.1896
    SETDIJ:  cpu time    0.1772: real time    0.1778
    TRIAL :  cpu time   15.4790: real time   15.6097
    CORREC:  cpu time   11.7558: real time   11.8453
    CHARGE:  cpu time    2.2732: real time    2.2914
    --------------------------------------------
      LOOP:  cpu time   35.8848: real time   36.1686

 eigenvalue-minimisations  :     0
 total energy-change (2. order) :-0.4244165E-04  (-0.1855179E-04)
 number of electron     216.0000000 magnetization 
 augmentation part       -0.5054164 magnetization 

 Free energy of the ion-electron system (eV)
  ---------------------------------------------------
  alpha Z        PSCENC =        59.93625244
  Ewald energy   TEWEN  =     29491.81118182
  -Hartree energ DENC   =    -36542.52540435
  -exchange      EXHF   =         0.00000000
  -V(xc)+E(xc)   XCENC  =       648.83466443
  PAW double counting   =    146895.51012394  -146755.24412995
  entropy T*S    EENTRO =        -0.00000000
  eigenvalues    EBANDS =     -2693.71535000
  atomic energy  EATOM  =      8369.52358910
  ---------------------------------------------------
  free energy    TOTEN  =      -525.86907257 eV

  energy without entropy =     -525.86907257  energy(sigma->0) =     -525.86907257


--------------------------------------------------------------------------------------------------------




--------------------------------------- Iteration      1(  19)  ---------------------------------------


    POTLOK:  cpu time    6.1594: real time    6.2043
    SETDIJ:  cpu time    0.1719: real time    0.1726
    TRIAL :  cpu time   15.4212: real time   15.6082
    CORREC:  cpu time   11.7590: real time   11.8577
    CHARGE:  cpu time    2.2734: real time    2.2946
    --------------------------------------------
      LOOP:  cpu time   35.7959: real time   36.1587

 eigenvalue-minimisations  :     0
 total energy-change (2. order) :-0.1827709E-04  (-0.1190271E-04)
 number of electron     216.0000000 magnetization 
 augmentation part       -0.5054261 magnetization 

 Free energy of the ion-electron system (eV)
  ---------------------------------------------------
  alpha Z        PSCENC =        59.93625244
  Ewald energy   TEWEN  =     29491.81118182
  -Hartree energ DENC   =    -36542.52337717
  -exchange      EXHF   =         0.00000000
  -V(xc)+E(xc)   XCENC  =       648.83355904
  PAW double counting   =    146904.66246078  -146764.39571385
  entropy T*S    EENTRO =        -0.00000000
  eigenvalues    EBANDS =     -2693.71704301
  atomic energy  EATOM  =      8369.52358910
  ---------------------------------------------------
  free energy    TOTEN  =      -525.86909085 eV

  energy without entropy =     -525.86909085  energy(sigma->0) =     -525.86909085


--------------------------------------------------------------------------------------------------------




--------------------------------------- Iteration      1(  20)  ---------------------------------------


    POTLOK:  cpu time    6.1463: real time    6.1899
    SETDIJ:  cpu time    0.1726: real time    0.1732
    TRIAL :  cpu time   15.4542: real time   15.6030
    CORREC:  cpu time   11.7601: real time   11.8687
    CHARGE:  cpu time    2.2831: real time    2.2987
    --------------------------------------------
      LOOP:  cpu time   35.8253: real time   36.1776

 eigenvalue-minimisations  :     0
 total energy-change (2. order) :-0.7494004E-05  (-0.4103248E-05)
 number of electron     216.0000000 magnetization 
 augmentation part       -0.5054225 magnetization 

 Free energy of the ion-electron system (eV)
  ---------------------------------------------------
  alpha Z        PSCENC =        59.93625244
  Ewald energy   TEWEN  =     29491.81118182
  -Hartree energ DENC   =    -36542.56408360
  -exchange      EXHF   =         0.00000000
  -V(xc)+E(xc)   XCENC  =       648.83463442
  PAW double counting   =    146926.80906698  -146786.54206238
  entropy T*S    EENTRO =        -0.00000000
  eigenvalues    EBANDS =     -2693.67767712
  atomic energy  EATOM  =      8369.52358910
  ---------------------------------------------------
  free energy    TOTEN  =      -525.86909834 eV

  energy without entropy =     -525.86909834  energy(sigma->0) =     -525.86909834


--------------------------------------------------------------------------------------------------------




--------------------------------------- Iteration      1(  21)  ---------------------------------------


    POTLOK:  cpu time    6.1603: real time    6.1966
    SETDIJ:  cpu time    0.1730: real time    0.1736
    TRIAL :  cpu time   15.4601: real time   15.5952
    CORREC:  cpu time   11.7290: real time   11.8435
    CHARGE:  cpu time    2.2745: real time    2.2929
    --------------------------------------------
      LOOP:  cpu time   35.8514: real time   36.1689

 eigenvalue-minimisations  :     0
 total energy-change (2. order) :-0.3875350E-05  (-0.7546529E-06)
 number of electron     216.0000000 magnetization 
 augmentation part       -0.5054099 magnetization 

 Free energy of the ion-electron system (eV)
  ---------------------------------------------------
  alpha Z        PSCENC =        59.93625244
  Ewald energy   TEWEN  =     29491.81118182
  -Hartree energ DENC   =    -36542.54258292
  -exchange      EXHF   =         0.00000000
  -V(xc)+E(xc)   XCENC  =       648.83338991
  PAW double counting   =    146926.61259116  -146786.34554409
  entropy T*S    EENTRO =        -0.00000000
  eigenvalues    EBANDS =     -2693.69797964
  atomic energy  EATOM  =      8369.52358910
  ---------------------------------------------------
  free energy    TOTEN  =      -525.86910222 eV

  energy without entropy =     -525.86910222  energy(sigma->0) =     -525.86910222


--------------------------------------------------------------------------------------------------------




--------------------------------------- Iteration      1(  22)  ---------------------------------------


    POTLOK:  cpu time    6.1609: real time    6.1981
    SETDIJ:  cpu time    0.1744: real time    0.1750
    TRIAL :  cpu time   15.4888: real time   15.6061
    CORREC:  cpu time   11.7821: real time   11.8618
    CHARGE:  cpu time    2.2799: real time    2.2966
    --------------------------------------------
      LOOP:  cpu time   35.9466: real time   36.2007

 eigenvalue-minimisations  :     0
 total energy-change (2. order) :-0.7097842E-06  (-0.2716918E-06)
 number of electron     216.0000000 magnetization 
 augmentation part       -0.5054014 magnetization 

 Free energy of the ion-electron system (eV)
  ---------------------------------------------------
  alpha Z        PSCENC =        59.93625244
  Ewald energy   TEWEN  =     29491.81118182
  -Hartree energ DENC   =    -36542.54006870
  -exchange      EXHF   =         0.00000000
  -V(xc)+E(xc)   XCENC  =       648.83335244
  PAW double counting   =    146926.62926353  -146786.36232622
  entropy T*S    EENTRO =        -0.00000000
  eigenvalues    EBANDS =     -2693.70034734
  atomic energy  EATOM  =      8369.52358910
  ---------------------------------------------------
  free energy    TOTEN  =      -525.86910293 eV

  energy without entropy =     -525.86910293  energy(sigma->0) =     -525.86910293


--------------------------------------------------------------------------------------------------------




--------------------------------------- Iteration      1(  23)  ---------------------------------------


    POTLOK:  cpu time    6.1519: real time    6.1912
    SETDIJ:  cpu time    0.1656: real time    0.1661
    TRIAL :  cpu time   15.4804: real time   15.5991
    CORREC:  cpu time   11.7572: real time   11.8385
    CHARGE:  cpu time    2.2742: real time    2.2955
    --------------------------------------------
      LOOP:  cpu time   35.8653: real time   36.1308

 eigenvalue-minimisations  :     0
 total energy-change (2. order) :-0.2007582E-06  (-0.6779882E-07)
 number of electron     216.0000000 magnetization 
 augmentation part       -0.5054004 magnetization 

 Free energy of the ion-electron system (eV)
  ---------------------------------------------------
  alpha Z        PSCENC =        59.93625244
  Ewald energy   TEWEN  =     29491.81118182
  -Hartree energ DENC   =    -36542.53760705
  -exchange      EXHF   =         0.00000000
  -V(xc)+E(xc)   XCENC  =       648.83330147
  PAW double counting   =    146926.98785644  -146786.72099300
  entropy T*S    EENTRO =        -0.00000000
  eigenvalues    EBANDS =     -2693.70268435
  atomic energy  EATOM  =      8369.52358910
  ---------------------------------------------------
  free energy    TOTEN  =      -525.86910313 eV

  energy without entropy =     -525.86910313  energy(sigma->0) =     -525.86910313


--------------------------------------------------------------------------------------------------------




--------------------------------------- Iteration      1(  24)  ---------------------------------------


    POTLOK:  cpu time    6.1605: real time    6.1992
    SETDIJ:  cpu time    0.1704: real time    0.1710
    TRIAL :  cpu time   15.4836: real time   15.6153
    CORREC:  cpu time   11.7391: real time   11.8297
    EDDIAG:  cpu time    3.2023: real time    3.2260
    CHARGE:  cpu time    2.2826: real time    2.3002
    --------------------------------------------
      LOOP:  cpu time   39.0828: real time   39.3908

 eigenvalue-minimisations  :     0
 total energy-change (2. order) :-0.8498318E-08  (-0.4566072E-07)
 number of electron     216.0000000 magnetization 
 augmentation part       -0.5053990 magnetization 

 Free energy of the ion-electron system (eV)
  ---------------------------------------------------
  alpha Z        PSCENC =        59.93625244
  Ewald energy   TEWEN  =     29491.81118182
  -Hartree energ DENC   =    -36542.53516245
  -exchange      EXHF   =         0.00000000
  -V(xc)+E(xc)   XCENC  =       648.83318740
  PAW double counting   =    146927.33632176  -146787.06946060
  entropy T*S    EENTRO =        -0.00000000
  eigenvalues    EBANDS =     -2693.70501261
  atomic energy  EATOM  =      8369.52358910
  ---------------------------------------------------
  free energy    TOTEN  =      -525.86910314 eV

  energy without entropy =     -525.86910314  energy(sigma->0) =     -525.86910314


--------------------------------------------------------------------------------------------------------


  average scaling for gradient   1.0450


 average (electrostatic) potential at core
  the test charge radii are     0.5770  0.5955
  (the norm of the test charge is              1.0000)
       1 -87.7254       2 -87.7238       3 -87.7252       4 -87.7244       5 -87.7213
       6 -87.7198       7 -87.7236       8 -87.7202       9 -87.7214      10 -87.7222
      11 -87.7188      12 -87.7198      13 -87.7215      14 -87.7179      15 -87.7185
      16 -87.7211      17 -87.7218      18 -87.7242      19 -87.7218      20 -87.7208
      21 -87.7209      22 -87.7172      23 -87.7227      24 -87.7213      25 -87.7208
      26 -87.7200      27 -87.7179      28 -87.7222      29 -87.7215      30 -87.7173
      31 -87.7198      32 -87.7208      33 -87.7214      34 -87.7216      35 -87.7176
      36 -87.7210      37 -87.7183      38 -87.7225      39 -87.7221      40 -87.7243
      41 -87.7252      42 -87.7257      43 -87.7234      44 -87.7241      45 -87.7206
      46 -87.7200      47 -87.7208      48 -87.7201      49 -87.7239      50 -87.7240
      51 -91.7827      52-123.9128      53-123.9135
 
 
 
 E-fermi :  -4.0780     XC(G=0):  -2.3709     alpha+bet : -2.1113

 Fermi energy:        -4.0780011764

 k-point     1 :       0.0000    0.0000    0.0000
  band No.  band energies     occupation 
      1     -28.8444      2.00000
      2     -27.8178      2.00000
      3     -23.2316      2.00000
      4     -22.2461      2.00000
      5     -22.2452      2.00000
      6     -22.2447      2.00000
      7     -22.2446      2.00000
      8     -22.2442      2.00000
      9     -22.2435      2.00000
     10     -20.3133      2.00000
     11     -20.3131      2.00000
     12     -20.3129      2.00000
     13     -20.3122      2.00000
     14     -20.3116      2.00000
     15     -20.3114      2.00000
     16     -19.3776      2.00000
     17     -19.3774      2.00000
     18     -19.3769      2.00000
     19     -19.3768      2.00000
     20     -19.3759      2.00000
     21     -19.3756      2.00000
     22     -17.1562      2.00000
     23     -17.1557      2.00000
     24     -17.1553      2.00000
     25     -17.1549      2.00000
     26     -17.1540      2.00000
     27     -17.1539      2.00000
     28     -15.9979      2.00000
     29     -15.9978      2.00000
     30     -15.9967      2.00000
     31     -15.9966      2.00000
     32     -15.9962      2.00000
     33     -15.9960      2.00000
     34     -14.6048      2.00000
     35     -14.6047      2.00000
     36     -14.6040      2.00000
     37     -14.6037      2.00000
     38     -14.6036      2.00000
     39     -14.6032      2.00000
     40     -12.7968      2.00000
     41     -12.1456      2.00000
     42     -12.1454      2.00000
     43     -12.1450      2.00000
     44     -12.1449      2.00000
     45     -12.1436      2.00000
     46     -12.1433      2.00000
     47     -11.9281      2.00000
     48     -11.9281      2.00000
     49     -11.9270      2.00000
     50     -11.9268      2.00000
     51     -11.9263      2.00000
     52     -11.9262      2.00000
     53     -11.5192      2.00000
     54     -11.2649      2.00000
     55     -11.2635      2.00000
     56     -10.5970      2.00000
     57     -10.4822      2.00000
     58     -10.4820      2.00000
     59     -10.4803      2.00000
     60     -10.4799      2.00000
     61     -10.4798      2.00000
     62     -10.4797      2.00000
     63      -9.4238      2.00000
     64      -9.4230      2.00000
     65      -9.4227      2.00000
     66      -9.4223      2.00000
     67      -9.4221      2.00000
     68      -9.4219      2.00000
     69      -9.1809      2.00000
     70      -9.1806      2.00000
     71      -9.1804      2.00000
     72      -9.1796      2.00000
     73      -9.1793      2.00000
     74      -9.1790      2.00000
     75      -9.1786      2.00000
     76      -9.1777      2.00000
     77      -9.1774      2.00000
     78      -9.1771      2.00000
     79      -9.1769      2.00000
     80      -9.1763      2.00000
     81      -7.6697      2.00000
     82      -7.6672      2.00000
     83      -7.4744      2.00000
     84      -7.4729      2.00000
     85      -7.4725      2.00000
     86      -7.4721      2.00000
     87      -7.4700      2.00000
     88      -7.4692      2.00000
     89      -7.1810      2.00000
     90      -7.1807      2.00000
     91      -7.1806      2.00000
     92      -7.1801      2.00000
     93      -7.1797      2.00000
     94      -7.1795      2.00000
     95      -6.2357      2.00000
     96      -6.2356      2.00000
     97      -6.2353      2.00000
     98      -6.2349      2.00000
     99      -6.2344      2.00000
    100      -6.2341      2.00000
    101      -5.9565      2.00000
    102      -5.9542      2.00000
    103      -4.1371      2.00000
    104      -4.1367      2.00000
    105      -4.1360      2.00000
    106      -4.1359      2.00000
    107      -4.1355      2.00000
    108      -4.1354      2.00000
    109      -1.1617      0.00000
    110      -1.1616      0.00000
    111      -1.1614      0.00000
    112      -1.1613      0.00000
    113      -1.1604      0.00000
    114      -1.1601      0.00000
    115       0.8170      0.00000
    116       0.8174      0.00000
    117       0.8177      0.00000
    118       0.8180      0.00000
    119       0.8182      0.00000
    120       0.8198      0.00000
    121       0.9600      0.00000
    122       1.3189      0.00000
    123       1.6099      0.00000
    124       1.6112      0.00000
    125       1.7770      0.00000
    126       2.2428      0.00000
    127       2.2688      0.00000
    128       2.2759      0.00000
    129       2.2815      0.00000
    130       2.2848      0.00000
    131       2.2860      0.00000
    132       2.4452      0.00000
    133       2.6978      0.00000
    134       2.6980      0.00000
    135       2.6983      0.00000
    136       2.6987      0.00000
    137       2.6989      0.00000
    138       2.6994      0.00000
    139       2.9298      0.00000
    140       2.9891      0.00000
    141       3.0342      0.00000
    142       3.0579      0.00000
    143       3.0811      0.00000
    144       3.0869      0.00000
    145       3.0927      0.00000
    146       3.0934      0.00000
    147       3.2175      0.00000
    148       3.2528      0.00000
    149       3.2779      0.00000
    150       3.3128      0.00000
    151       3.3160      0.00000
    152       4.3687      0.00000
    153       4.4726      0.00000
    154       4.6362      0.00000
    155       4.7925      0.00000
    156       4.8552      0.00000
    157       5.0466      0.00000
    158       5.2548      0.00000
    159       5.2747      0.00000
    160       5.2975      0.00000
    161       5.3001      0.00000
    162       5.3027      0.00000
    163       5.3030      0.00000
    164       5.3034      0.00000
    165       5.3117      0.00000
    166       5.3677      0.00000
    167       5.4270      0.00000
    168       5.5369      0.00000


--------------------------------------------------------------------------------------------------------


 soft charge-density along one line, spin component           1
         0         1         2         3         4         5         6         7         8         9
 total charge-density along one line
 
 pseudopotential strength for first ion, spin component:           1
 12.630  21.251  -0.000   0.000   0.000  -0.000   0.000   0.000
 21.251  35.754  -0.000   0.000   0.000  -0.000   0.000   0.000
 -0.000  -0.000  -3.234   0.000   0.000  -5.794   0.000   0.000
  0.000   0.000   0.000  -3.238   0.000   0.000  -5.800   0.000
  0.000   0.000   0.000   0.000  -3.234   0.000   0.000  -5.794
 -0.000  -0.000  -5.794   0.000   0.000 -10.358   0.000   0.000
  0.000   0.000   0.000  -5.800   0.000   0.000 -10.368   0.000
  0.000   0.000   0.000   0.000  -5.794   0.000   0.000 -10.358
 total augmentation occupancy for first ion, spin component:           1
  9.643  -3.599   0.000  -0.002  -0.001  -0.000   0.001   0.000
 -3.599   1.374  -0.000   0.001   0.000   0.000  -0.000  -0.000
  0.000  -0.000   8.197  -0.009   0.001  -2.896   0.004  -0.000
 -0.002   0.001  -0.009   3.783  -0.000   0.004  -1.107   0.000
 -0.001   0.000   0.001  -0.000   8.196  -0.000   0.000  -2.895
 -0.000   0.000  -2.896   0.004  -0.000   1.036  -0.001   0.000
  0.001  -0.000   0.004  -1.107   0.000  -0.001   0.329  -0.000
  0.000  -0.000  -0.000   0.000  -2.895   0.000  -0.000   1.035


------------------------ aborting loop because EDIFF is reached ----------------------------------------


    FORLOC:  cpu time    0.1076: real time    0.1083
    FORNL :  cpu time    2.9046: real time    2.9332
    FORCOR:  cpu time    6.2132: real time    6.2717
    OFIELD:  cpu time    0.0023: real time    0.0023

 VOLUME and BASIS-vectors are now :
 -----------------------------------------------------------------------------
  energy-cutoff  :     1000.00
  volume of cell :     2631.08
      direct lattice vectors                 reciprocal lattice vectors
    12.325000000  0.000000000  0.000000000     0.081135903  0.046843835  0.000000000
    -6.162500000 10.673763102  0.000000000     0.000000000  0.093687670  0.000000000
     0.000000000  0.000000000 20.000000000     0.000000000  0.000000000  0.050000000

  length of vectors
    12.325000000 12.325000000 20.000000000     0.093687670  0.093687670  0.050000000


 FORCES acting on ions:
    Electron-Ion                     Ewald-Force                    Non-Local-Force
 -----------------------------------------------------------------------------------------------
   0.731E+00 0.636E+00 0.628E+01   -.726E+00 -.641E+00 -.628E+01   -.432E-02 0.560E-02 0.561E-02
   0.994E+00 0.533E+00 0.720E+01   -.993E+00 -.540E+00 -.720E+01   -.442E-02 0.116E-01 -.608E-02
   0.389E+00 0.107E+01 0.711E+01   -.398E+00 -.108E+01 -.712E+01   0.953E-02 0.171E-01 -.342E-02
   0.491E+00 0.708E+00 0.917E+01   -.493E+00 -.717E+00 -.917E+01   0.183E-01 0.143E-01 -.179E-01
   0.815E+00 0.202E+00 0.672E+01   -.805E+00 -.213E+00 -.672E+01   -.123E-01 0.891E-02 0.596E-02
   0.825E+00 -.195E+00 0.689E+01   -.825E+00 0.189E+00 -.689E+01   -.110E-01 0.145E-01 -.863E-03
   0.943E+00 0.404E+00 0.926E+01   -.945E+00 -.415E+00 -.926E+01   0.120E-01 -.340E-02 -.553E-02
   0.967E+00 -.315E+00 0.104E+02   -.972E+00 0.308E+00 -.104E+02   -.689E-02 0.842E-02 -.377E-02
   -.481E+00 0.105E+01 0.755E+01   0.472E+00 -.106E+01 -.755E+01   0.176E-01 -.881E-02 -.410E-02
   -.602E+00 0.518E+00 0.950E+01   0.595E+00 -.525E+00 -.949E+01   -.130E-01 0.229E-01 0.462E-02
   0.213E+00 -.221E+00 0.611E+01   -.208E+00 0.222E+00 -.611E+01   0.237E-02 -.437E-02 0.295E-02
   0.206E+00 -.170E+00 0.595E+01   -.212E+00 0.176E+00 -.596E+01   0.118E-02 -.704E-02 0.917E-02
   0.270E+00 -.758E+00 0.112E+02   -.274E+00 0.754E+00 -.111E+02   0.294E-01 0.157E-02 -.457E-03
   0.178E+00 -.116E+01 0.869E+01   -.181E+00 0.116E+01 -.868E+01   0.156E-02 0.718E-02 -.134E-01
   -.764E+00 0.454E+00 0.634E+01   0.766E+00 -.458E+00 -.635E+01   0.667E-02 -.135E-02 0.116E-01
   -.958E+00 0.261E+00 0.648E+01   0.958E+00 -.261E+00 -.648E+01   -.215E-02 0.670E-02 -.584E-02
   -.141E+00 -.439E-01 0.555E+01   0.140E+00 0.551E-01 -.555E+01   0.677E-02 -.179E-01 0.361E-02
   0.572E-01 0.482E+00 0.561E+01   -.637E-01 -.474E+00 -.562E+01   0.674E-02 -.124E-01 0.104E-01
   -.195E+00 -.110E+01 0.739E+01   0.199E+00 0.111E+01 -.739E+01   -.149E-02 -.985E-02 0.601E-03
   -.110E+00 -.683E+00 0.625E+01   0.118E+00 0.691E+00 -.626E+01   -.159E-01 -.962E-02 0.181E-02
   0.105E+01 -.448E+00 0.810E+01   -.104E+01 0.442E+00 -.808E+01   -.422E-02 0.755E-02 -.171E-01
   0.753E+00 -.601E+00 0.732E+01   -.758E+00 0.601E+00 -.732E+01   -.431E-02 0.657E-02 0.456E-02
   -.176E+00 0.285E+00 0.109E+02   0.164E+00 -.291E+00 -.109E+02   -.165E-04 0.220E-01 0.223E-02
   -.253E+00 -.477E+00 0.109E+02   0.252E+00 0.468E+00 -.109E+02   0.170E-01 -.646E-02 -.123E-01
   0.405E+00 -.140E+00 0.619E+01   -.407E+00 0.144E+00 -.619E+01   0.108E-01 -.104E-01 -.231E-02
   0.113E+00 0.357E+00 0.602E+01   -.125E+00 -.350E+00 -.603E+01   0.109E-01 -.506E-02 0.968E-02
   -.114E+01 0.975E-01 0.792E+01   0.114E+01 -.103E+00 -.793E+01   0.190E-01 0.119E-01 0.277E-02
   -.104E+01 -.439E+00 0.737E+01   0.104E+01 0.439E+00 -.738E+01   -.822E-02 0.781E-02 -.114E-02
   0.405E+00 -.851E+00 0.744E+01   -.405E+00 0.852E+00 -.743E+01   0.419E-02 0.155E-02 -.741E-02
   0.384E-01 -.372E+00 0.642E+01   -.399E-01 0.376E+00 -.643E+01   -.573E-02 -.115E-02 0.398E-02
   -.741E+00 -.737E+00 0.827E+01   0.739E+00 0.740E+00 -.827E+01   -.119E-01 -.995E-02 -.142E-01
   -.545E+00 -.105E+01 0.712E+01   0.553E+00 0.106E+01 -.713E+01   -.679E-02 -.119E-01 0.224E-02
   0.523E-01 0.237E+00 0.583E+01   -.392E-01 -.241E+00 -.584E+01   -.137E-01 0.908E-04 0.101E-01
   0.140E+00 0.201E+00 0.597E+01   -.134E+00 -.206E+00 -.597E+01   -.156E-01 0.134E-01 0.326E-03
   -.504E+00 0.937E-01 0.609E+01   0.513E+00 -.982E-01 -.610E+01   -.423E-02 0.243E-02 0.125E-01
   -.450E+00 -.213E+00 0.603E+01   0.449E+00 0.214E+00 -.604E+01   -.442E-02 0.142E-02 0.394E-02
   -.837E+00 -.456E+00 0.619E+01   0.840E+00 0.462E+00 -.620E+01   -.664E-03 -.970E-02 0.827E-02
   -.563E+00 -.444E+00 0.586E+01   0.564E+00 0.455E+00 -.587E+01   -.320E-02 -.148E-01 0.102E-01
   -.511E+00 -.635E+00 0.602E+01   0.514E+00 0.649E+00 -.603E+01   -.850E-02 -.178E-01 0.590E-02
   -.683E-01 -.177E+00 0.573E+01   0.753E-01 0.186E+00 -.573E+01   -.624E-02 -.132E-01 0.773E-02
   0.198E+00 0.496E+00 0.567E+01   -.199E+00 -.489E+00 -.567E+01   -.310E-02 -.890E-02 0.658E-02
   0.591E+00 0.881E+00 0.620E+01   -.590E+00 -.882E+00 -.620E+01   -.365E-03 -.564E-03 0.606E-02
   0.620E-01 0.806E+00 0.584E+01   -.693E-01 -.803E+00 -.585E+01   0.161E-01 -.748E-02 0.319E-02
   -.507E-02 0.114E+01 0.676E+01   -.578E-02 -.114E+01 -.677E+01   0.905E-02 0.193E-02 0.535E-02
   -.165E+00 0.289E+00 0.618E+01   0.160E+00 -.291E+00 -.618E+01   0.141E-01 -.439E-02 0.276E-02
   -.555E+00 0.706E+00 0.650E+01   0.547E+00 -.704E+00 -.650E+01   0.561E-02 -.656E-03 0.363E-03
   -.164E+00 -.357E+00 0.621E+01   0.172E+00 0.357E+00 -.621E+01   -.503E-02 -.298E-02 0.774E-02
   -.319E+00 0.114E+00 0.582E+01   0.326E+00 -.112E+00 -.582E+01   -.169E-01 0.240E-02 -.139E-02
   0.380E-01 -.211E+00 0.581E+01   -.285E-01 0.217E+00 -.582E+01   -.109E-01 -.112E-01 0.696E-02
   0.359E+00 0.250E+00 0.578E+01   -.350E+00 -.248E+00 -.578E+01   -.170E-01 0.245E-02 0.398E-02
   -.832E-03 0.194E-01 -.871E+02   -.798E-03 -.248E-01 0.871E+02   -.175E-01 0.185E-01 -.685E-02
   -.228E+03 0.155E+03 -.142E+03   0.279E+03 -.190E+03 0.146E+03   -.527E+02 0.358E+02 -.353E+01
   0.228E+03 -.155E+03 -.123E+03   -.279E+03 0.190E+03 0.119E+03   0.527E+02 -.359E+02 0.319E+01
 -----------------------------------------------------------------------------------------------
   -.171E-01 0.135E-01 0.334E+00   0.568E-13 0.284E-13 -.284E-13   -.628E-02 -.694E-02 -.281E+00
 
 
 POSITION                                       TOTAL-FORCE (eV/Angst)
 -----------------------------------------------------------------------------------
     11.98348      0.00342      0.01417        -0.006426      0.006313     -0.003896
     -0.34154      1.42665      0.01100        -0.013297      0.018378     -0.005000
      2.12355      0.00315      0.01249         0.009927      0.018200     -0.009704
      2.12326      1.42653      0.00641         0.027531      0.018983     -0.009306
     10.75099      2.13819      0.01213        -0.007232      0.016821     -0.000718
     -1.57382      3.56123      0.01110        -0.026133      0.013996     -0.001373
      0.89078      2.13854      0.00548         0.010489      0.008880      0.002800
      0.89099      3.56147      0.00181        -0.010662      0.009441      0.013179
      4.58864      0.00346      0.01135         0.026228     -0.018053     -0.004257
      4.58894      1.42623      0.00646         0.002305      0.028456      0.015171
      9.51854      4.27281      0.01369         0.016831      0.001485      0.000663
     -2.80632      5.69591      0.01434        -0.005827     -0.017550      0.000719
      2.12300      4.27302      0.00000         0.023555      0.015643      0.022152
      2.12335      5.69594      0.00581         0.004323      0.005536     -0.000325
      7.05344      0.00333      0.01399         0.008823     -0.015465      0.000051
      7.05353      1.42635      0.01368        -0.002788      0.014319     -0.005133
      8.28610      6.40752      0.01601         0.019066     -0.021623     -0.001629
     -4.03885      7.83070      0.01636         0.007551     -0.019388     -0.002006
      3.35586      6.40753      0.01007        -0.014368     -0.010784     -0.001523
      3.35599      7.83072      0.01320        -0.018099     -0.007931     -0.000895
     -0.34146      4.27290      0.00723         0.000855      0.019768     -0.004470
     -0.34138      5.69591      0.00946        -0.012480      0.004194      0.001594
      3.35624      2.13791      0.00222        -0.006234      0.031395      0.017328
      3.35573      3.56155      0.00139         0.031726     -0.009325      0.009435
     -1.57395      6.40758      0.01311         0.025695     -0.014602     -0.000923
     -1.57385      7.83068      0.01438         0.010683     -0.002728     -0.000248
      5.82093      2.13784      0.01033         0.020310      0.007448     -0.000530
      5.82114      3.56097      0.01156         0.001102      0.002383     -0.005471
      0.89092      6.40755      0.00907         0.004555      0.000572     -0.003269
      0.89106      7.83068      0.01235        -0.007317      0.009184      0.002847
      4.58871      4.27293      0.00850        -0.023971     -0.002950     -0.010594
      4.58852      5.69606      0.01149         0.001652     -0.023879     -0.004351
      9.51845      0.00337      0.01490        -0.017934     -0.005991     -0.000827
      9.51855      1.42644      0.01438        -0.031067      0.020992     -0.000449
      8.28593      2.13803      0.01453         0.002423      0.000638      0.002321
      8.28613      3.56115      0.01464        -0.012448     -0.003493     -0.001328
      7.05356      4.27269      0.01457         0.003983     -0.008474      0.000836
      7.05362      5.69588      0.01553        -0.001832     -0.029421     -0.000655
      5.82112      6.40755      0.01489        -0.016068     -0.018328     -0.001181
      5.82102      7.83073      0.01579        -0.004706     -0.020456     -0.002197
      7.05363      8.54227      0.01631        -0.003110     -0.010688     -0.001399
     -5.27149      9.96549      0.01495         0.001824     -0.001042     -0.005521
     -2.80638      8.54234      0.01558         0.029749     -0.015272     -0.002333
     -2.80627      9.96553      0.01362         0.017180      0.004769     -0.005899
     -0.34149      8.54239      0.01378         0.023763     -0.016971     -0.000303
     -0.34138      9.96550      0.01354         0.011486      0.011066     -0.001438
      2.12343      8.54232      0.01336        -0.012924     -0.013675      0.000300
      2.12354      9.96544      0.01469        -0.024287      0.014414     -0.001884
      4.58846      8.54235      0.01505        -0.020341     -0.016526     -0.000080
      4.58853      9.96550      0.01517        -0.024918      0.007804     -0.001516
      3.04930      2.68154      8.40896        -0.035606      0.022469      0.037949
      4.02070      2.02068      8.47339        -1.651929      1.103320     -0.115516
      2.07767      3.34267      8.34951         1.668392     -1.112250      0.090802
 -----------------------------------------------------------------------------------
    total drift:                               -0.023400      0.006564      0.052363


--------------------------------------------------------------------------------------------------------



  FREE ENERGIE OF THE ION-ELECTRON SYSTEM (eV)
  ---------------------------------------------------
  free  energy   TOTEN  =      -525.86910314 eV

  energy  without entropy=     -525.86910314  energy(sigma->0) =     -525.86910314
 


--------------------------------------------------------------------------------------------------------


    POTLOK:  cpu time    6.3105: real time    6.3631


--------------------------------------------------------------------------------------------------------


 writing wavefunctions
     LOOP+:  cpu time  856.5134: real time  864.3063
    4ORBIT:  cpu time    0.0000: real time    0.0000

 total amount of memory used by VASP MPI-rank0   556209. kBytes
=======================================================================

   base      :      30000. kBytes
   nonl-proj :     184518. kBytes
   fftplans  :      31725. kBytes
   grid      :     282516. kBytes
   one-center:        162. kBytes
   wavefun   :      27288. kBytes
 
  
  
 General timing and accounting informations for this job:
 ========================================================
  
                  Total CPU time used (sec):      891.683
                            User time (sec):      861.288
                          System time (sec):       30.395
                         Elapsed time (sec):      901.463
  
                   Maximum memory used (kb):     1185804.
                   Average memory used (kb):          N/A
  
                          Minor page faults:       396473
                          Major page faults:          135
                 Voluntary context switches:         3701
