 vasp.6.2.1 16May21 (build Nov 06 2021 14:46:37) complex                        
  
 executed on             LinuxIFC date 2025.04.16  19:09:31
 running on  112 total cores
 distrk:  each k-point on   56 cores,    2 groups
 distr:  one band on NCORE=   1 cores,   56 groups


--------------------------------------------------------------------------------------------------------


 INCAR:
   ALGO = Conjugate
   KPAR = 2
   NCORE = 32
   ISMEAR = 0
   SIGMA = 0.01
   PREC = Accurate
   EDIFF = 1E-7
   ENCUT = 1000
   ISIF = 0
   METAGGA = SCAN
   LUSE_VDW = .TRUE.
   BPARAM = 15.7
   LASPH = .TRUE.
   SYMPREC = 1E-7
   NELM = 200

 POTCAR:    PAW_PBE C_h 06Feb2004                 
 POTCAR:    PAW_PBE O_h 06Feb2004                 
 -----------------------------------------------------------------------------
|                                                                             |
|           W    W    AA    RRRRR   N    N  II  N    N   GGGG   !!!           |
|           W    W   A  A   R    R  NN   N  II  NN   N  G    G  !!!           |
|           W    W  A    A  R    R  N N  N  II  N N  N  G       !!!           |
|           W WW W  AAAAAA  RRRRR   N  N N  II  N  N N  G  GGG   !            |
|           WW  WW  A    A  R   R   N   NN  II  N   NN  G    G                |
|           W    W  A    A  R    R  N    N  II  N    N   GGGG   !!!           |
|                                                                             |
|     The value NCORE = 32 specified in the INCAR file was overwritten,       |
|     because it was not compatible with the 56 processes available:          |
|     NCORE = 1                                                               |
|     was used instead, please check that this makes sense for your           |
|     machine.                                                                |
|                                                                             |
 -----------------------------------------------------------------------------

 -----------------------------------------------------------------------------
|                                                                             |
|           W    W    AA    RRRRR   N    N  II  N    N   GGGG   !!!           |
|           W    W   A  A   R    R  NN   N  II  NN   N  G    G  !!!           |
|           W    W  A    A  R    R  N N  N  II  N N  N  G       !!!           |
|           W WW W  AAAAAA  RRRRR   N  N N  II  N  N N  G  GGG   !            |
|           WW  WW  A    A  R   R   N   NN  II  N   NN  G    G                |
|           W    W  A    A  R    R  N    N  II  N    N   GGGG   !!!           |
|                                                                             |
|     For optimal performance we recommend to set                             |
|       NCORE = 2 up to number-of-cores-per-socket                            |
|     NCORE specifies how many cores store one orbital (NPAR=cpu/NCORE).      |
|     This setting can greatly improve the performance of VASP for DFT.       |
|     The default, NCORE=1 might be grossly inefficient on modern             |
|     multi-core architectures or massively parallel machines. Do your        |
|     own testing! More info at https://www.vasp.at/wiki/index.php/NCORE      |
|     Unfortunately you need to use the default for GW and RPA                |
|     calculations (for HF NCORE is supported but not extensively tested      |
|     yet).                                                                   |
|                                                                             |
 -----------------------------------------------------------------------------

 -----------------------------------------------------------------------------
|                                                                             |
|               ----> ADVICE to this user running VASP <----                  |
|                                                                             |
|     You have switched on vdW-DFT.                                           |
|     This routine was written and supplied by Jiri Klimes. We recommend      |
|     that you carefully read and cite the following publications:            |
|       J. Klimes, D.R. Bowler, A. Michelides                                 |
|          J. Phys.: Cond Matt. 22 022201 (2010)                              |
|       J. Klimes, D.R. Bowler, A. Michelides                                 |
|          Phys. Rev. B. 83, 195131 (2011)                                    |
|     and references therein.                                                 |
|                                                                             |
 -----------------------------------------------------------------------------

 POTCAR:    PAW_PBE C_h 06Feb2004                 
   VRHFIN =C: s2p2                                                                                  
   LEXCH  = PE                                                                                      
   EATOM  =   147.1560 eV,   10.8157 Ry                                                             
                                                                                                    
   TITEL  = PAW_PBE C_h 06Feb2004                                                                   
   LULTRA =        F    use ultrasoft PP ?                                                          
   IUNSCR =        1    unscreen: 0-lin 1-nonlin 2-no                                               
   RPACOR =    0.800    partial core radius                                                         
   POMASS =   12.011; ZVAL   =    4.000    mass and valenz                                          
   RCORE  =    1.100    outmost cutoff radius                                                       
   RWIGS  =    1.630; RWIGS  =    0.863    wigner-seitz radius (au A)                               
   ENMAX  =  700.000; ENMIN  =  500.000 eV                                                          
   ICORE  =        2    local potential                                                             
   LCOR   =        T    correct aug charges                                                         
   LPAW   =        T    paw PP                                                                      
   EAUG   =  946.768                                                                                
   DEXC   =    0.000                                                                                
   RMAX   =    1.128    core radius for proj-oper                                                   
   RAUG   =    1.300    factor for augmentation sphere                                              
   RDEP   =    1.162    radius for radial grids                                                     
   RDEPT  =    1.088    core radius for aug-charge                                                  
                                                                                                    
   Atomic configuration                                                                             
    4 entries                                                                                       
     n  l   j            E        occ.                                                              
     1  0  0.50      -273.3789   2.0000                                                             
     2  0  0.50       -13.7508   2.0000                                                             
     2  1  0.50        -5.2854   2.0000                                                             
     3  2  1.50        -5.4423   0.0000                                                             
   Description                                                                                      
     l       E           TYP  RCUT    TYP  RCUT                                                     
     0    -13.7508458     23  1.100                                                                 
     0     -8.2022199     23  1.100                                                                 
     1     -5.2854383     23  1.100                                                                 
     1      1.1560700     23  1.100                                                                 
     2     -5.4423304      7  1.100                                                                 
  local pseudopotential read in
  partial core-charges read in
  partial kinetic energy density read in
  atomic valenz-charges read in
  non local Contribution for L=           0  read in
    real space projection operators read in
  non local Contribution for L=           0  read in
    real space projection operators read in
  non local Contribution for L=           1  read in
    real space projection operators read in
  non local Contribution for L=           1  read in
    real space projection operators read in
    PAW grid and wavefunctions read in
 
   number of l-projection  operators is LMAX  =           4
   number of lm-projection operators is LMMAX =           8
 
 POTCAR:    PAW_PBE O_h 06Feb2004                 
   VRHFIN =O: s2p4                                                                                  
   LEXCH  = PE                                                                                      
   EATOM  =   432.3788 eV,   31.7789 Ry                                                             
                                                                                                    
   TITEL  = PAW_PBE O_h 06Feb2004                                                                   
   LULTRA =        F    use ultrasoft PP ?                                                          
   IUNSCR =        1    unscreen: 0-lin 1-nonlin 2-no                                               
   RPACOR =    0.800    partial core radius                                                         
   POMASS =   16.000; ZVAL   =    6.000    mass and valenz                                          
   RCORE  =    1.100    outmost cutoff radius                                                       
   RWIGS  =    1.400; RWIGS  =    0.741    wigner-seitz radius (au A)                               
   ENMAX  =  700.000; ENMIN  =  500.000 eV                                                          
   ICORE  =        2    local potential                                                             
   LCOR   =        T    correct aug charges                                                         
   LPAW   =        T    paw PP                                                                      
   EAUG   =  888.804                                                                                
   DEXC   =    0.000                                                                                
   RMAX   =    1.128    core radius for proj-oper                                                   
   RAUG   =    1.300    factor for augmentation sphere                                              
   RDEP   =    1.125    radius for radial grids                                                     
   RDEPT  =    1.088    core radius for aug-charge                                                  
                                                                                                    
   Atomic configuration                                                                             
    4 entries                                                                                       
     n  l   j            E        occ.                                                              
     1  0  0.50      -514.6923   2.0000                                                             
     2  0  0.50       -23.9615   2.0000                                                             
     2  1  0.50        -9.0305   4.0000                                                             
     3  2  1.50        -9.5241   0.0000                                                             
   Description                                                                                      
     l       E           TYP  RCUT    TYP  RCUT                                                     
     0    -23.9615319     23  1.100                                                                 
     0    -25.3221145     23  1.100                                                                 
     1     -9.0304911     23  1.100                                                                 
     1     -5.4802209     23  1.100                                                                 
     2     -9.5240782      7  1.100                                                                 
  local pseudopotential read in
  partial core-charges read in
  partial kinetic energy density read in
  atomic valenz-charges read in
  non local Contribution for L=           0  read in
    real space projection operators read in
  non local Contribution for L=           0  read in
    real space projection operators read in
  non local Contribution for L=           1  read in
    real space projection operators read in
  non local Contribution for L=           1  read in
    real space projection operators read in
    PAW grid and wavefunctions read in
 
   number of l-projection  operators is LMAX  =           4
   number of lm-projection operators is LMMAX =           8
 
 -----------------------------------------------------------------------------
|                                                                             |
|               ----> ADVICE to this user running VASP <----                  |
|                                                                             |
|     You have a (more or less) 'large supercell' and for larger cells it     |
|     might be more efficient to use real-space projection operators.         |
|     Therefore, try LREAL= Auto in the INCAR file.                           |
|     Mind: For very accurate calculation, you might also keep the            |
|     reciprocal projection scheme (i.e. LREAL=.FALSE.).                      |
|                                                                             |
 -----------------------------------------------------------------------------

  PAW_PBE C_h 06Feb2004                 :
 energy of atom  1       EATOM= -147.1560
 kinetic energy error for atom=    0.0031 (will be added to EATOM!!)
  PAW_PBE O_h 06Feb2004                 :
 energy of atom  2       EATOM= -432.3788
 kinetic energy error for atom=    0.0171 (will be added to EATOM!!)
 
 
 POSCAR:  C  O
  positions in cartesian coordinates
  No initial velocities read in

 METAGGA = SCAN     LMAXTAU =  6    LMIXTAU =  F

 exchange correlation table for  LEXCH =        8
   RHO(1)=    0.500       N(1)  =     2000
   RHO(2)=  100.500       N(2)  =     4000
 


--------------------------------------------------------------------------------------------------------


 ion  position               nearest neighbor table
   1  0.972  0.000  0.001-  50 1.42   2 1.42  42 1.42
   2  0.039  0.134  0.000-   5 1.42   7 1.42   1 1.42
   3  0.172  0.000  0.000-  42 1.42  44 1.42   4 1.42
   4  0.239  0.134  0.000-   7 1.42   3 1.42  23 1.42
   5  0.972  0.200  0.000-   6 1.42   2 1.42  34 1.42
   6  0.039  0.334  0.000-   5 1.42  21 1.42  11 1.42
   7  0.172  0.200  0.000-   8 1.42   2 1.42   4 1.42
   8  0.239  0.334  0.000-  13 1.42   7 1.42  21 1.42
   9  0.372  0.000  0.000-  10 1.42  44 1.42  46 1.42
  10  0.439  0.134  0.000-  27 1.42   9 1.42  23 1.42
  11  0.972  0.400  0.001-  12 1.42  36 1.42   6 1.42
  12  0.039  0.534  0.001-  25 1.42  11 1.42  17 1.42
  13  0.372  0.400  0.000-   8 1.42  14 1.42  24 1.42
  14  0.439  0.534  0.000-  13 1.42  29 1.42  19 1.42
  15  0.572  0.000  0.001-  46 1.42  16 1.42  48 1.42
  16  0.639  0.134  0.001-  15 1.42  35 1.42  27 1.42
  17  0.972  0.600  0.001-  38 1.42  18 1.42  12 1.42
  18  0.039  0.734  0.001-  43 1.42  41 1.42  17 1.42
  19  0.572  0.600  0.000-  14 1.42  20 1.42  32 1.42
  20  0.639  0.734  0.001-  49 1.42  19 1.42  47 1.42
  21  0.172  0.400  0.000-  22 1.42   8 1.42   6 1.42
  22  0.239  0.534  0.000-  21 1.42  29 1.42  25 1.42
  23  0.372  0.200  0.000-  10 1.42   4 1.42  24 1.42
  24  0.439  0.334  0.000-  13 1.42  31 1.42  23 1.42
  25  0.172  0.600  0.001-  26 1.42  12 1.42  22 1.42
  26  0.239  0.734  0.001-  25 1.42  45 1.42  43 1.42
  27  0.572  0.200  0.000-  10 1.42  28 1.42  16 1.42
  28  0.639  0.334  0.000-  27 1.42  37 1.42  31 1.42
  29  0.372  0.600  0.000-  22 1.42  14 1.42  30 1.42
  30  0.439  0.734  0.000-  47 1.42  29 1.42  45 1.42
  31  0.572  0.400  0.000-  32 1.42  28 1.42  24 1.42
  32  0.639  0.534  0.000-  31 1.42  39 1.42  19 1.42
  33  0.772  0.000  0.001-  34 1.42  48 1.42  50 1.42
  34  0.839  0.134  0.001-  33 1.42   5 1.42  35 1.42
  35  0.772  0.200  0.001-  36 1.42  16 1.42  34 1.42
  36  0.839  0.334  0.001-  35 1.42  11 1.42  37 1.42
  37  0.772  0.400  0.001-  28 1.42  38 1.42  36 1.42
  38  0.839  0.534  0.001-  17 1.42  37 1.42  39 1.42
  39  0.772  0.600  0.001-  40 1.42  38 1.42  32 1.42
  40  0.839  0.734  0.001-  39 1.42  49 1.42  41 1.42
  41  0.972  0.800  0.001-  18 1.42  42 1.42  40 1.42
  42  0.039  0.934  0.001-   3 1.42  41 1.42   1 1.42
  43  0.172  0.800  0.001-  18 1.42  44 1.42  26 1.42
  44  0.239  0.934  0.001-   9 1.42  43 1.42   3 1.42
  45  0.372  0.800  0.001-  26 1.42  46 1.42  30 1.42
  46  0.439  0.934  0.001-  15 1.42  45 1.42   9 1.42
  47  0.572  0.800  0.001-  30 1.42  48 1.42  20 1.42
  48  0.639  0.934  0.001-  47 1.42  33 1.42  15 1.42
  49  0.772  0.800  0.001-  50 1.42  20 1.42  40 1.42
  50  0.839  0.934  0.001-  49 1.42   1 1.42  33 1.42
  51  0.373  0.251  0.119-  52 1.18  53 1.18
  52  0.421  0.189  0.121-  51 1.18
  53  0.325  0.313  0.117-  51 1.18
 
  LATTYP: Found a hexagonal cell.
 ALAT       =    12.3250000000
 C/A-ratio  =     2.0283975659
  
  Lattice vectors:
  
 A1 = (  12.3250000000,   0.0000000000,   0.0000000000)
 A2 = (  -6.1625000000,  10.6737631016,   0.0000000000)
 A3 = (   0.0000000000,   0.0000000000,  25.0000000000)


Analysis of symmetry for initial positions (statically):
=====================================================================
 Subroutine PRICEL returns:
 Original cell was already a primitive cell.
 

 Routine SETGRP: Setting up the symmetry group for a 
 hexagonal supercell.


 Subroutine GETGRP returns: Found  1 space group operations
 (whereof  1 operations were pure point group operations)
 out of a pool of 24 trial point group operations.


The static configuration has the point symmetry C_1 .


Analysis of symmetry for dynamics (positions and initial velocities):
=====================================================================
 Subroutine PRICEL returns:
 Original cell was already a primitive cell.
 

 Routine SETGRP: Setting up the symmetry group for a 
 hexagonal supercell.


 Subroutine GETGRP returns: Found  1 space group operations
 (whereof  1 operations were pure point group operations)
 out of a pool of 24 trial point group operations.


The dynamic configuration has the point symmetry C_1 .


 Subroutine INISYM returns: Found  1 space group operations
 (whereof  1 operations are pure point group operations),
 and found     1 'primitive' translations


----------------------------------------------------------------------------------------

                                     Primitive cell                                     

  volume of cell :    3288.8533

  direct lattice vectors                    reciprocal lattice vectors
    12.325000000  0.000000000  0.000000000     0.081135903  0.046843835  0.000000000
    -6.162500000 10.673763102  0.000000000     0.000000000  0.093687670  0.000000000
     0.000000000  0.000000000 25.000000000     0.000000000  0.000000000  0.040000000

  length of vectors
    12.325000000 12.325000000 25.000000000     0.093687670  0.093687670  0.040000000

  position of ions in fractional coordinates (direct lattice)
     0.972450841  0.000320818  0.000566711
     0.039118382  0.133659505  0.000440173
     0.172443627  0.000295449  0.000499628
     0.239096278  0.133647917  0.000256468
     0.972452058  0.200322012  0.000485219
     0.039128360  0.333643771  0.000444150
     0.172451764  0.200354552  0.000219167
     0.239124359  0.333665720  0.000072260
     0.372465565  0.000324403  0.000453913
     0.439137473  0.133619939  0.000258338
     0.972449824  0.400309362  0.000547611
     0.039124981  0.533636789  0.000573410
     0.372416176  0.400329481  0.000000000
     0.439099602  0.533638981  0.000232414
     0.572443676  0.000312125  0.000559580
     0.639110207  0.133631751  0.000547275
     0.972452703  0.600305653  0.000640289
     0.039124495  0.733640359  0.000654513
     0.572433471  0.600306242  0.000402895
     0.639111888  0.733641879  0.000527905
     0.172454630  0.400318228  0.000289045
     0.239120185  0.533636548  0.000378509
     0.372459750  0.200295993  0.000088997
     0.439107096  0.333673419  0.000055762
     0.172452155  0.600311506  0.000524340
     0.239123371  0.733638574  0.000575129
     0.572431082  0.200289171  0.000413296
     0.639112773  0.333618630  0.000462376
     0.372439808  0.600308022  0.000362844
     0.439116090  0.733637858  0.000494190
     0.572469358  0.400320504  0.000339918
     0.639119408  0.533650873  0.000459610
     0.772445723  0.000315427  0.000596161
     0.839116277  0.133640203  0.000575306
     0.772440513  0.200307432  0.000581033
     0.839120241  0.333635728  0.000585467
     0.772446320  0.400298367  0.000582978
     0.839118980  0.533633964  0.000621100
     0.772456143  0.600308173  0.000595712
     0.839115033  0.733643180  0.000631512
     0.972455313  0.800305582  0.000652233
     0.039114714  0.933643289  0.000598051
     0.172457971  0.800312211  0.000623372
     0.239134551  0.933647193  0.000544850
     0.372451396  0.800316674  0.000551399
     0.439124489  0.933644769  0.000541430
     0.572441101  0.800310054  0.000534535
     0.639115067  0.933638985  0.000587644
     0.772445098  0.800313187  0.000602062
     0.839116614  0.933644338  0.000606830
     0.373021009  0.251226878  0.118920712
     0.420879805  0.189313152  0.121497586
     0.325156981  0.313167186  0.116542517

  ion indices of the primitive-cell ions
   primitive index   ion index
                 1           1
                 2           2
                 3           3
                 4           4
                 5           5
                 6           6
                 7           7
                 8           8
                 9           9
                10          10
                11          11
                12          12
                13          13
                14          14
                15          15
                16          16
                17          17
                18          18
                19          19
                20          20
                21          21
                22          22
                23          23
                24          24
                25          25
                26          26
                27          27
                28          28
                29          29
                30          30
                31          31
                32          32
                33          33
                34          34
                35          35
                36          36
                37          37
                38          38
                39          39
                40          40
                41          41
                42          42
                43          43
                44          44
                45          45
                46          46
                47          47
                48          48
                49          49
                50          50
                51          51
                52          52
                53          53

----------------------------------------------------------------------------------------

 
 
 KPOINTS: auto                                    

Automatic generation of k-mesh.
 Grid dimensions read from file:
 generate k-points for:    1    1    1

 Generating k-lattice:

  Cartesian coordinates                     Fractional coordinates (reciprocal lattice)
     0.081135903  0.046843835  0.000000000     1.000000000 -0.000000000  0.000000000
     0.000000000  0.093687670  0.000000000     0.000000000  1.000000000  0.000000000
     0.000000000  0.000000000  0.040000000     0.000000000  0.000000000  1.000000000

  Length of vectors
     0.093687670  0.093687670  0.040000000

  Shift w.r.t. Gamma in fractional coordinates (k-lattice)
     0.000000000  0.000000000  0.000000000

 
 Subroutine IBZKPT returns following result:
 ===========================================
 
 Found      1 irreducible k-points:
 
 Following reciprocal coordinates:
            Coordinates               Weight
  0.000000  0.000000  0.000000      1.000000
 
 Following cartesian coordinates:
            Coordinates               Weight
  0.000000  0.000000  0.000000      1.000000
 


--------------------------------------------------------------------------------------------------------




 Dimension of arrays:
   k-points           NKPTS =      1   k-points in BZ     NKDIM =      1   number of bands    NBANDS=    168
   number of dos      NEDOS =    301   number of ions     NIONS =     53
   non local maximal  LDIM  =      4   non local SUM 2l+1 LMDIM =      8
   total plane-waves  NPLWV = ******
   max r-space proj   IRMAX =      1   max aug-charges    IRDMAX=  10008
   dimension x,y,z NGX =   128 NGY =  128 NGZ =  270
   dimension x,y,z NGXF=   256 NGYF=  256 NGZF=  540
   support grid    NGXF=   256 NGYF=  256 NGZF=  540
   ions per type =              51   2
   NGX,Y,Z   is equivalent  to a cutoff of  17.27, 17.27, 17.95 a.u.
   NGXF,Y,Z  is equivalent  to a cutoff of  34.53, 34.53, 35.91 a.u.

 SYSTEM =  unknown system                          
 POSCAR =   C  O                                   

 Startparameter for this run:
   NWRITE =      2    write-flag & timer
   PREC   = accura    normal or accurate (medium, high low for compatibility)
   ISTART =      0    job   : 0-new  1-cont  2-samecut
   ICHARG =      2    charge: 1-file 2-atom 10-const
   ISPIN  =      1    spin polarized calculation?
   LNONCOLLINEAR =      F non collinear calculations
   LSORBIT =      F    spin-orbit coupling
   INIWAV =      1    electr: 0-lowe 1-rand  2-diag
   LASPH  =      T    aspherical Exc in radial PAW
 Electronic Relaxation 1
   ENCUT  = 1000.0 eV  73.50 Ry    8.57 a.u.  31.78 31.78 64.46*2*pi/ulx,y,z
   ENINI  = 1000.0     initial cutoff
   ENAUG  =  946.8 eV  augmentation charge cutoff
   NELM   =    200;   NELMIN=  2; NELMDL= -5     # of ELM steps 
   EDIFF  = 0.1E-06   stopping-criterion for ELM
   LREAL  =      F    real-space projection
   NLSPLINE    = F    spline interpolate recip. space projectors
   LCOMPAT=      F    compatible to vasp.4.4
   GGA_COMPAT  = T    GGA compatible to vasp.4.4-vasp.4.6
   LMAXPAW     = -100 max onsite density
   LMAXMIX     =    2 max onsite mixed and CHGCAR
   VOSKOWN=      0    Vosko Wilk Nusair interpolation
   ROPT   =    0.00000   0.00000
 Ionic relaxation
   EDIFFG = 0.1E-05   stopping-criterion for IOM
   NSW    =      0    number of steps for IOM
   NBLOCK =      1;   KBLOCK =      1    inner block; outer block 
   IBRION =     -1    ionic relax: 0-MD 1-quasi-New 2-CG
   NFREE  =      0    steps in history (QN), initial steepest desc. (CG)
   ISIF   =      0    stress and relaxation
   IWAVPR =     10    prediction:  0-non 1-charg 2-wave 3-comb
   ISYM   =      2    0-nonsym 1-usesym 2-fastsym
   LCORR  =      T    Harris-Foulkes like correction to forces

   POTIM  = 0.5000    time-step for ionic-motion
   TEIN   =    0.0    initial temperature
   TEBEG  =    0.0;   TEEND  =   0.0 temperature during run
   SMASS  =  -3.00    Nose mass-parameter (am)
   estimated Nose-frequenzy (Omega)   =  0.10E-29 period in steps = 0.13E+47 mass=  -0.347E-26a.u.
   SCALEE = 1.0000    scale energy and forces
   NPACO  =    256;   APACO  = 16.0  distance and # of slots for P.C.
   PSTRESS=    0.0 pullay stress

  Mass of Ions in am
   POMASS =  12.01 16.00
  Ionic Valenz
   ZVAL   =   4.00  6.00
  Atomic Wigner-Seitz radii
   RWIGS  =  -1.00 -1.00
  virtual crystal weights 
   VCA    =   1.00  1.00
   NELECT =     216.0000    total number of electrons
   NUPDOWN=      -1.0000    fix difference up-down

 DOS related values:
   EMIN   =  10.00;   EMAX   =-10.00  energy-range for DOS
   EFERMI =   0.00
   ISMEAR =     0;   SIGMA  =   0.01  broadening in eV -4-tet -1-fermi 0-gaus

 Electronic relaxation 2 (details)
   IALGO  =     58    algorithm
   LDIAG  =      T    sub-space diagonalisation (order eigenvalues)
   LSUBROT=      F    optimize rotation matrix (better conditioning)
   TURBO    =      0    0=normal 1=particle mesh
   IRESTART =      0    0=no restart 2=restart with 2 vectors
   NREBOOT  =      0    no. of reboots
   NMIN     =      0    reboot dimension
   EREF     =   0.00    reference energy to select bands
   IMIX   =      4    mixing-type and parameters
     AMIX     =   0.40;   BMIX     =  1.00
     AMIX_MAG =   1.60;   BMIX_MAG =  1.00
     AMIN     =   0.10
     WC   =   100.;   INIMIX=   1;  MIXPRE=   1;  MAXMIX= -45

 Intra band minimization:
   WEIMIN = 0.0000     energy-eigenvalue tresh-hold
   EBREAK =  0.15E-09  absolut break condition
   DEPER  =   0.30     relativ break condition  

   TIME   =   0.40     timestep for ELM

  volume/ion in A,a.u.               =      62.05       418.76
  Fermi-wavevector in a.u.,A,eV,Ry     =   0.660508  1.248179  5.935820  0.436270
  Thomas-Fermi vector in A             =   1.732977
 
 Write flags
   LWAVE        =      T    write WAVECAR
   LDOWNSAMPLE  =      F    k-point downsampling of WAVECAR
   LCHARG       =      T    write CHGCAR
   LVTOT        =      F    write LOCPOT, total local potential
   LVHAR        =      F    write LOCPOT, Hartree potential only
   LELF         =      F    write electronic localiz. function (ELF)
   LORBIT       =      0    0 simple, 1 ext, 2 COOP (PROOUT), +10 PAW based schemes


 Dipole corrections
   LMONO  =      F    monopole corrections only (constant potential shift)
   LDIPOL =      F    correct potential (dipole corrections)
   IDIPOL =      0    1-x, 2-y, 3-z, 4-all directions 
   EPSILON=  1.0000000 bulk dielectric constant

 Exchange correlation treatment:
   GGA     =    --    GGA type
   LEXCH   =     8    internal setting for exchange type
   VOSKOWN=      0    Vosko Wilk Nusair interpolation
   LHFCALC =     F    Hartree Fock is set to
   LHFONE  =     F    Hartree Fock one center treatment
   AEXX    =    0.0000 exact exchange contribution

 vdW DFT:
   LUSE_VDW   =     T    switch on vdW DFT
   Zab_VDW    =-.8491    correlation parameter
   PARAM1     =0.1234
   PARAM2     =1.0000
   PARAM3     =0.0000
   -- rVV10 --
   BPARAM     =15.7000
   CPARAM     = 0.0093

 Linear response parameters
   LEPSILON=     F    determine dielectric tensor
   LRPA    =     F    only Hartree local field effects (RPA)
   LNABLA  =     F    use nabla operator in PAW spheres
   LVEL    =     F    velocity operator in full k-point grid
   LINTERFAST=   F  fast interpolation
   KINTER  =     0    interpolate to denser k-point grid
   CSHIFT  =0.1000    complex shift for real part using Kramers Kronig
   OMEGAMAX=  -1.0    maximum frequency
   DEG_THRESHOLD= 0.2000000E-02 threshold for treating states as degnerate
   RTIME   =   -0.100 relaxation time in fs
  (WPLASMAI=    0.000 imaginary part of plasma frequency in eV, 0.658/RTIME)
   DFIELD  = 0.0000000 0.0000000 0.0000000 field for delta impulse in time
 
 Orbital magnetization related:
   ORBITALMAG=     F  switch on orbital magnetization
   LCHIMAG   =     F  perturbation theory with respect to B field
   DQ        =  0.001000  dq finite difference perturbation B field
   LLRAUG    =     F  two centre corrections for induced B field



--------------------------------------------------------------------------------------------------------


 Static calculation
 charge density and potential will be updated during run
 non-spin polarized calculation
 Conjugate gradient for all bands (Freysoldt, et al. PRB 79, 241103 (2009))
 preconditioned conjugated gradient                                        
 perform sub-space diagonalisation
    before iterative eigenvector-optimisation
 modified Broyden-mixing scheme, WC =      100.0
 initial mixing is a Kerker type mixing with AMIX =  0.4000 and BMIX =      1.0000
 Hartree-type preconditioning will be used
 using additional bands           60
 reciprocal scheme for non local part
 use partial core corrections
 no Harris-corrections to forces 
 use gradient corrections 
 use of overlap-Matrix (Vanderbilt PP)
 Gauss-broadening in eV      SIGMA  =   0.01


--------------------------------------------------------------------------------------------------------


  energy-cutoff  :     1000.00
  volume of cell :     3288.85
      direct lattice vectors                 reciprocal lattice vectors
    12.325000000  0.000000000  0.000000000     0.081135903  0.046843835  0.000000000
    -6.162500000 10.673763102  0.000000000     0.000000000  0.093687670  0.000000000
     0.000000000  0.000000000 25.000000000     0.000000000  0.000000000  0.040000000

  length of vectors
    12.325000000 12.325000000 25.000000000     0.093687670  0.093687670  0.040000000


 
 k-points in units of 2pi/SCALE and weight: auto                                    
   0.00000000  0.00000000  0.00000000       1.000
 
 k-points in reciprocal lattice and weights: auto                                    
   0.00000000  0.00000000  0.00000000       1.000
 
 position of ions in fractional coordinates (direct lattice) 
   0.97245084  0.00032082  0.00056671
   0.03911838  0.13365950  0.00044017
   0.17244363  0.00029545  0.00049963
   0.23909628  0.13364792  0.00025647
   0.97245206  0.20032201  0.00048522
   0.03912836  0.33364377  0.00044415
   0.17245176  0.20035455  0.00021917
   0.23912436  0.33366572  0.00007226
   0.37246557  0.00032440  0.00045391
   0.43913747  0.13361994  0.00025834
   0.97244982  0.40030936  0.00054761
   0.03912498  0.53363679  0.00057341
   0.37241618  0.40032948  0.00000000
   0.43909960  0.53363898  0.00023241
   0.57244368  0.00031213  0.00055958
   0.63911021  0.13363175  0.00054727
   0.97245270  0.60030565  0.00064029
   0.03912449  0.73364036  0.00065451
   0.57243347  0.60030624  0.00040289
   0.63911189  0.73364188  0.00052791
   0.17245463  0.40031823  0.00028904
   0.23912018  0.53363655  0.00037851
   0.37245975  0.20029599  0.00008900
   0.43910710  0.33367342  0.00005576
   0.17245216  0.60031151  0.00052434
   0.23912337  0.73363857  0.00057513
   0.57243108  0.20028917  0.00041330
   0.63911277  0.33361863  0.00046238
   0.37243981  0.60030802  0.00036284
   0.43911609  0.73363786  0.00049419
   0.57246936  0.40032050  0.00033992
   0.63911941  0.53365087  0.00045961
   0.77244572  0.00031543  0.00059616
   0.83911628  0.13364020  0.00057531
   0.77244051  0.20030743  0.00058103
   0.83912024  0.33363573  0.00058547
   0.77244632  0.40029837  0.00058298
   0.83911898  0.53363396  0.00062110
   0.77245614  0.60030817  0.00059571
   0.83911503  0.73364318  0.00063151
   0.97245531  0.80030558  0.00065223
   0.03911471  0.93364329  0.00059805
   0.17245797  0.80031221  0.00062337
   0.23913455  0.93364719  0.00054485
   0.37245140  0.80031667  0.00055140
   0.43912449  0.93364477  0.00054143
   0.57244110  0.80031005  0.00053453
   0.63911507  0.93363899  0.00058764
   0.77244510  0.80031319  0.00060206
   0.83911661  0.93364434  0.00060683
   0.37302101  0.25122688  0.11892071
   0.42087980  0.18931315  0.12149759
   0.32515698  0.31316719  0.11654252
 
 position of ions in cartesian coordinates  (Angst):
  11.98347958  0.00342433  0.01416777
  -0.34154264  1.42664989  0.01100432
   2.12354700  0.00315355  0.01249070
   2.12325634  1.42652621  0.00641170
  10.75098721  2.13818970  0.01213047
  -1.57382270  3.56123457  0.01110375
   0.89078307  2.13853702  0.00547917
   0.89099273  3.56146885  0.00180651
   4.58863896  0.00346260  0.01134782
   4.58893648  1.42622757  0.00645846
   9.51853763  4.27280730  0.01369027
  -2.80632132  5.69591267  0.01433526
   2.12299894  4.27302204  0.00000000
   2.12335237  5.69593607  0.00581036
   7.05344483  0.00333155  0.01398950
   7.05352764  1.42635365  0.01368187
   8.28609598  6.40752033  0.01600723
  -4.03884931  7.83070339  0.01636283
   3.35585531  6.40752662  0.01007237
   3.35598594  7.83071962  0.01319763
  -0.34145776  4.27290193  0.00722612
  -0.34137895  5.69591010  0.00946273
   3.35624236  2.13791198  0.00222492
   3.35573251  3.56155103  0.00139405
  -1.57394684  6.40758280  0.01310850
  -1.57385216  7.83068434  0.01437823
   5.82093107  2.13783916  0.01033241
   5.82114012  3.56096622  0.01155939
   0.89092245  6.40754561  0.00907111
   0.89106251  7.83067670  0.01235474
   4.58870974  4.27292622  0.00849795
   4.58852320  5.69606300  0.01149026
   9.51844972  0.00336679  0.01490402
   9.51855036  1.42644387  0.01438264
   8.28593477  2.13803408  0.01452582
   8.28612680  3.56114872  0.01463668
   7.05356221  4.27268994  0.01457444
   7.05362213  5.69588251  0.01552751
   5.82112285  6.40754723  0.01489279
   5.82101669  7.83073350  0.01578780
   7.05362858  8.54227219  0.01630582
  -5.27148792  9.96548729  0.01495127
  -2.80637951  8.54234295  0.01558431
  -2.80626749  9.96552896  0.01362126
  -0.34148805  8.54239058  0.01378498
  -0.34137657  9.96550309  0.01353576
   2.12342586  8.54231992  0.01336337
   2.12354296  9.96544135  0.01469111
   4.58845581  8.54235337  0.01505154
   4.58852904  9.96549848  0.01517076
   3.04929830  2.68153618  2.97301779
   4.02070129  2.02068374  3.03743965
   2.07766701  3.34267235  2.91356292
 


--------------------------------------------------------------------------------------------------------


 k-point   1 :   0.0000 0.0000 0.0000  plane waves:  236157

 maximum and minimum number of plane-waves per node :    236157   236157

 maximum number of plane-waves:    236157
 maximum index in each direction: 
   IXMAX=   31   IYMAX=   31   IZMAX=   64
   IXMIN=  -31   IYMIN=  -31   IZMIN=  -64


 serial   3D FFT for wavefunctions
 parallel 3D FFT for charge:
    minimum data exchange during FFTs selected (reduces bandwidth)


 total amount of memory used by VASP MPI-rank0   698619. kBytes
=======================================================================

   base      :      30000. kBytes
   nonl-proj :     230539. kBytes
   fftplans  :      40716. kBytes
   grid      :     363125. kBytes
   one-center:        162. kBytes
   wavefun   :      34077. kBytes
 
     INWAV:  cpu time    0.0000: real time    0.0000
 Broyden mixing: mesh for mixing (old mesh)
   NGX = 63   NGY = 63   NGZ =129
  (NGX  =256   NGY  =256   NGZ  =540)
  gives a total of 512001 points

 initial charge density was supplied:
 charge density of overlapping atoms calculated
 number of electron     216.0000000 magnetization 
 keeping initial charge density in first step


--------------------------------------------------------------------------------------------------------


 Maximum index for augmentation-charges          471 (set IRDMAX)


--------------------------------------------------------------------------------------------------------


 First call to EWALD:  gamma=   0.119
 Maximum number of real-space cells 4x 4x 2
 Maximum number of reciprocal cells 2x 2x 4

    FEWALD:  cpu time    0.0021: real time    0.0022


--------------------------------------- Iteration      1(   1)  ---------------------------------------


    POTLOK:  cpu time    8.4799: real time    8.5485
    SETDIJ:  cpu time    0.0032: real time    0.0032
    TRIAL :  cpu time   31.5925: real time   31.8569
    CORREC:  cpu time    0.0005: real time    0.0007
    --------------------------------------------
      LOOP:  cpu time   40.0895: real time   40.4340

 eigenvalue-minimisations  :   336
 total energy-change (2. order) : 0.2551629E+04  (-0.1079561E+05)
 number of electron     216.0000000 magnetization 
 augmentation part      216.0000000 magnetization 

 Free energy of the ion-electron system (eV)
  ---------------------------------------------------
  alpha Z        PSCENC =        47.94900195
  Ewald energy   TEWEN  =     47831.94723089
  -Hartree energ DENC   =    -53900.18129770
  -exchange      EXHF   =         0.00000000
  -V(xc)+E(xc)   XCENC  =       604.62203770
  PAW double counting   =      6339.73130699    -6197.22120962
  entropy T*S    EENTRO =        -0.00000005
  eigenvalues    EBANDS =      -544.74128723
  atomic energy  EATOM  =      8369.52358910
  ---------------------------------------------------
  free energy    TOTEN  =      2551.62937204 eV

  energy without entropy =     2551.62937209  energy(sigma->0) =     2551.62937207


--------------------------------------------------------------------------------------------------------




--------------------------------------- Iteration      1(   2)  ---------------------------------------


    TRIAL :  cpu time   44.8950: real time   45.2716
    CORREC:  cpu time    0.0001: real time    0.0001
    --------------------------------------------
      LOOP:  cpu time   44.9816: real time   45.3657

 eigenvalue-minimisations  :   560
 total energy-change (2. order) :-0.2489546E+04  (-0.2323941E+04)
 number of electron     216.0000000 magnetization 
 augmentation part      216.0000000 magnetization 

 Free energy of the ion-electron system (eV)
  ---------------------------------------------------
  alpha Z        PSCENC =        47.94900195
  Ewald energy   TEWEN  =     47831.94723089
  -Hartree energ DENC   =    -53900.18129770
  -exchange      EXHF   =         0.00000000
  -V(xc)+E(xc)   XCENC  =       604.62203770
  PAW double counting   =      6339.73130699    -6197.22120962
  entropy T*S    EENTRO =        -0.00000000
  eigenvalues    EBANDS =     -3034.28693014
  atomic energy  EATOM  =      8369.52358910
  ---------------------------------------------------
  free energy    TOTEN  =        62.08372918 eV

  energy without entropy =       62.08372918  energy(sigma->0) =       62.08372918


--------------------------------------------------------------------------------------------------------




--------------------------------------- Iteration      1(   3)  ---------------------------------------


    TRIAL :  cpu time   38.2159: real time   38.5224
    CORREC:  cpu time    0.0001: real time    0.0001
    --------------------------------------------
      LOOP:  cpu time   38.2511: real time   38.5639

 eigenvalue-minimisations  :   448
 total energy-change (2. order) :-0.6540077E+03  (-0.6513357E+03)
 number of electron     216.0000000 magnetization 
 augmentation part      216.0000000 magnetization 

 Free energy of the ion-electron system (eV)
  ---------------------------------------------------
  alpha Z        PSCENC =        47.94900195
  Ewald energy   TEWEN  =     47831.94723089
  -Hartree energ DENC   =    -53900.18129770
  -exchange      EXHF   =         0.00000000
  -V(xc)+E(xc)   XCENC  =       604.62203770
  PAW double counting   =      6339.73130699    -6197.22120962
  entropy T*S    EENTRO =        -0.00000000
  eigenvalues    EBANDS =     -3688.29466490
  atomic energy  EATOM  =      8369.52358910
  ---------------------------------------------------
  free energy    TOTEN  =      -591.92400558 eV

  energy without entropy =     -591.92400558  energy(sigma->0) =     -591.92400558


--------------------------------------------------------------------------------------------------------




--------------------------------------- Iteration      1(   4)  ---------------------------------------


    TRIAL :  cpu time   38.2070: real time   38.4990
    CORREC:  cpu time    0.0001: real time    0.0003
    --------------------------------------------
      LOOP:  cpu time   38.2697: real time   38.5687

 eigenvalue-minimisations  :   448
 total energy-change (2. order) :-0.2264121E+02  (-0.2252770E+02)
 number of electron     216.0000000 magnetization 
 augmentation part      216.0000000 magnetization 

 Free energy of the ion-electron system (eV)
  ---------------------------------------------------
  alpha Z        PSCENC =        47.94900195
  Ewald energy   TEWEN  =     47831.94723089
  -Hartree energ DENC   =    -53900.18129770
  -exchange      EXHF   =         0.00000000
  -V(xc)+E(xc)   XCENC  =       604.62203770
  PAW double counting   =      6339.73130699    -6197.22120962
  entropy T*S    EENTRO =        -0.00000000
  eigenvalues    EBANDS =     -3710.93587730
  atomic energy  EATOM  =      8369.52358910
  ---------------------------------------------------
  free energy    TOTEN  =      -614.56521798 eV

  energy without entropy =     -614.56521798  energy(sigma->0) =     -614.56521798


--------------------------------------------------------------------------------------------------------




--------------------------------------- Iteration      1(   5)  ---------------------------------------


    TRIAL :  cpu time   38.1958: real time   38.5108
    CORREC:  cpu time    0.0001: real time    0.0001
    CHARGE:  cpu time    3.2566: real time    3.2898
    --------------------------------------------
      LOOP:  cpu time   41.4990: real time   41.8515

 eigenvalue-minimisations  :   448
 total energy-change (2. order) :-0.7161849E+00  (-0.7143828E+00)
 number of electron     216.0000000 magnetization 
 augmentation part       -0.4313407 magnetization 

 Free energy of the ion-electron system (eV)
  ---------------------------------------------------
  alpha Z        PSCENC =        47.94900195
  Ewald energy   TEWEN  =     47831.94723089
  -Hartree energ DENC   =    -53900.18129770
  -exchange      EXHF   =         0.00000000
  -V(xc)+E(xc)   XCENC  =       604.62203770
  PAW double counting   =      6339.73130699    -6197.22120962
  entropy T*S    EENTRO =        -0.00000000
  eigenvalues    EBANDS =     -3711.65206215
  atomic energy  EATOM  =      8369.52358910
  ---------------------------------------------------
  free energy    TOTEN  =      -615.28140283 eV

  energy without entropy =     -615.28140283  energy(sigma->0) =     -615.28140283


--------------------------------------------------------------------------------------------------------




--------------------------------------- Iteration      1(   6)  ---------------------------------------


    POTLOK:  cpu time    8.3982: real time    8.4523
    SETDIJ:  cpu time    0.0022: real time    0.0022
    TRIAL :  cpu time   22.4298: real time   22.6062
    CORREC:  cpu time   16.1229: real time   16.2969
    CHARGE:  cpu time    3.2491: real time    3.2743
    --------------------------------------------
      LOOP:  cpu time   50.2477: real time   50.6803

 eigenvalue-minimisations  :     0
 total energy-change (2. order) : 0.1036033E+03  (-0.1200884E+02)
 number of electron     216.0000000 magnetization 
 augmentation part       -0.4894604 magnetization 

 Free energy of the ion-electron system (eV)
  ---------------------------------------------------
  alpha Z        PSCENC =        47.94900195
  Ewald energy   TEWEN  =     47831.94723089
  -Hartree energ DENC   =    -55257.90295574
  -exchange      EXHF   =         0.00000000
  -V(xc)+E(xc)   XCENC  =       670.88657288
  PAW double counting   =    113926.44888679  -113789.64840424
  entropy T*S    EENTRO =        -0.00000000
  eigenvalues    EBANDS =     -2310.88205939
  atomic energy  EATOM  =      8369.52358910
  ---------------------------------------------------
  free energy    TOTEN  =      -511.67813776 eV

  energy without entropy =     -511.67813776  energy(sigma->0) =     -511.67813776


--------------------------------------------------------------------------------------------------------




--------------------------------------- Iteration      1(   7)  ---------------------------------------


    POTLOK:  cpu time    8.3854: real time    8.4443
    SETDIJ:  cpu time    0.0025: real time    0.0025
    TRIAL :  cpu time   22.3631: real time   22.5402
    CORREC:  cpu time   16.1667: real time   16.2982
    CHARGE:  cpu time    3.2521: real time    3.2791
    --------------------------------------------
      LOOP:  cpu time   50.2205: real time   50.6209

 eigenvalue-minimisations  :     0
 total energy-change (2. order) :-0.1201892E+02  (-0.1519557E+01)
 number of electron     216.0000000 magnetization 
 augmentation part       -0.5197253 magnetization 

 Free energy of the ion-electron system (eV)
  ---------------------------------------------------
  alpha Z        PSCENC =        47.94900195
  Ewald energy   TEWEN  =     47831.94723089
  -Hartree energ DENC   =    -54824.79115732
  -exchange      EXHF   =         0.00000000
  -V(xc)+E(xc)   XCENC  =       651.10117745
  PAW double counting   =    132154.57703528  -132015.02780685
  entropy T*S    EENTRO =        -0.00000000
  eigenvalues    EBANDS =     -2738.97612404
  atomic energy  EATOM  =      8369.52358910
  ---------------------------------------------------
  free energy    TOTEN  =      -523.69705353 eV

  energy without entropy =     -523.69705353  energy(sigma->0) =     -523.69705353


--------------------------------------------------------------------------------------------------------




--------------------------------------- Iteration      1(   8)  ---------------------------------------


    POTLOK:  cpu time    8.3891: real time    8.4429
    SETDIJ:  cpu time    0.0020: real time    0.0021
    TRIAL :  cpu time   22.3452: real time   22.5462
    CORREC:  cpu time   16.1734: real time   16.2833
    CHARGE:  cpu time    3.2176: real time    3.2691
    --------------------------------------------
      LOOP:  cpu time   50.1673: real time   50.5849

 eigenvalue-minimisations  :     0
 total energy-change (2. order) :-0.1520531E+01  (-0.4865799E+00)
 number of electron     216.0000000 magnetization 
 augmentation part       -0.5184711 magnetization 

 Free energy of the ion-electron system (eV)
  ---------------------------------------------------
  alpha Z        PSCENC =        47.94900195
  Ewald energy   TEWEN  =     47831.94723089
  -Hartree energ DENC   =    -54800.89585150
  -exchange      EXHF   =         0.00000000
  -V(xc)+E(xc)   XCENC  =       649.62552295
  PAW double counting   =    140403.55805639  -140263.53528847
  entropy T*S    EENTRO =        -0.00000000
  eigenvalues    EBANDS =     -2763.38984622
  atomic energy  EATOM  =      8369.52358910
  ---------------------------------------------------
  free energy    TOTEN  =      -525.21758490 eV

  energy without entropy =     -525.21758490  energy(sigma->0) =     -525.21758490


--------------------------------------------------------------------------------------------------------




--------------------------------------- Iteration      1(   9)  ---------------------------------------


    POTLOK:  cpu time    8.4185: real time    8.4747
    SETDIJ:  cpu time    0.0020: real time    0.0020
    TRIAL :  cpu time   22.3590: real time   22.5316
    CORREC:  cpu time   16.1934: real time   16.3022
    CHARGE:  cpu time    3.2480: real time    3.2728
    --------------------------------------------
      LOOP:  cpu time   50.3390: real time   50.7045

 eigenvalue-minimisations  :     0
 total energy-change (2. order) :-0.4862818E+00  (-0.1865931E+00)
 number of electron     216.0000000 magnetization 
 augmentation part       -0.5135921 magnetization 

 Free energy of the ion-electron system (eV)
  ---------------------------------------------------
  alpha Z        PSCENC =        47.94900195
  Ewald energy   TEWEN  =     47831.94723089
  -Hartree energ DENC   =    -54807.89030538
  -exchange      EXHF   =         0.00000000
  -V(xc)+E(xc)   XCENC  =       649.38709350
  PAW double counting   =    146436.67902059  -146296.46111935
  entropy T*S    EENTRO =        -0.00000000
  eigenvalues    EBANDS =     -2756.83837797
  atomic energy  EATOM  =      8369.52358910
  ---------------------------------------------------
  free energy    TOTEN  =      -525.70386666 eV

  energy without entropy =     -525.70386666  energy(sigma->0) =     -525.70386666


--------------------------------------------------------------------------------------------------------




--------------------------------------- Iteration      1(  10)  ---------------------------------------


    POTLOK:  cpu time    8.4095: real time    8.4761
    SETDIJ:  cpu time    0.0018: real time    0.0018
    TRIAL :  cpu time   22.3672: real time   22.5418
    CORREC:  cpu time   16.1929: real time   16.3220
    CHARGE:  cpu time    3.2406: real time    3.2640
    --------------------------------------------
      LOOP:  cpu time   50.2484: real time   50.6546

 eigenvalue-minimisations  :     0
 total energy-change (2. order) :-0.1864188E+00  (-0.7813412E-01)
 number of electron     216.0000000 magnetization 
 augmentation part       -0.5080582 magnetization 

 Free energy of the ion-electron system (eV)
  ---------------------------------------------------
  alpha Z        PSCENC =        47.94900195
  Ewald energy   TEWEN  =     47831.94723089
  -Hartree energ DENC   =    -54806.90786642
  -exchange      EXHF   =         0.00000000
  -V(xc)+E(xc)   XCENC  =       649.20065274
  PAW double counting   =    148712.54639068  -148572.23639594
  entropy T*S    EENTRO =        -0.00000000
  eigenvalues    EBANDS =     -2757.91288850
  atomic energy  EATOM  =      8369.52358910
  ---------------------------------------------------
  free energy    TOTEN  =      -525.89028550 eV

  energy without entropy =     -525.89028550  energy(sigma->0) =     -525.89028550


--------------------------------------------------------------------------------------------------------




--------------------------------------- Iteration      1(  11)  ---------------------------------------


    POTLOK:  cpu time    8.4149: real time    8.4667
    SETDIJ:  cpu time    0.0020: real time    0.0021
    TRIAL :  cpu time   22.3894: real time   22.5551
    CORREC:  cpu time   16.1761: real time   16.2907
    CHARGE:  cpu time    3.2504: real time    3.2743
    --------------------------------------------
      LOOP:  cpu time   50.3107: real time   50.6810

 eigenvalue-minimisations  :     0
 total energy-change (2. order) :-0.7791101E-01  (-0.3086020E-01)
 number of electron     216.0000000 magnetization 
 augmentation part       -0.5047117 magnetization 

 Free energy of the ion-electron system (eV)
  ---------------------------------------------------
  alpha Z        PSCENC =        47.94900195
  Ewald energy   TEWEN  =     47831.94723089
  -Hartree energ DENC   =    -54801.42266467
  -exchange      EXHF   =         0.00000000
  -V(xc)+E(xc)   XCENC  =       649.07736894
  PAW double counting   =    148607.14180197  -148466.82986176
  entropy T*S    EENTRO =        -0.00000000
  eigenvalues    EBANDS =     -2763.35466295
  atomic energy  EATOM  =      8369.52358910
  ---------------------------------------------------
  free energy    TOTEN  =      -525.96819652 eV

  energy without entropy =     -525.96819652  energy(sigma->0) =     -525.96819652


--------------------------------------------------------------------------------------------------------




--------------------------------------- Iteration      1(  12)  ---------------------------------------


    POTLOK:  cpu time    8.4046: real time    8.4608
    SETDIJ:  cpu time    0.0020: real time    0.0020
    TRIAL :  cpu time   22.3595: real time   22.5476
    CORREC:  cpu time   16.1701: real time   16.2907
    CHARGE:  cpu time    3.2469: real time    3.2742
    --------------------------------------------
      LOOP:  cpu time   50.2315: real time   50.6247

 eigenvalue-minimisations  :     0
 total energy-change (2. order) :-0.3076341E-01  (-0.1006476E-01)
 number of electron     216.0000000 magnetization 
 augmentation part       -0.5047253 magnetization 

 Free energy of the ion-electron system (eV)
  ---------------------------------------------------
  alpha Z        PSCENC =        47.94900195
  Ewald energy   TEWEN  =     47831.94723089
  -Hartree energ DENC   =    -54796.89367023
  -exchange      EXHF   =         0.00000000
  -V(xc)+E(xc)   XCENC  =       648.98139991
  PAW double counting   =    147915.04080652  -147774.75302315
  entropy T*S    EENTRO =        -0.00000000
  eigenvalues    EBANDS =     -2767.79429492
  atomic energy  EATOM  =      8369.52358910
  ---------------------------------------------------
  free energy    TOTEN  =      -525.99895993 eV

  energy without entropy =     -525.99895993  energy(sigma->0) =     -525.99895993


--------------------------------------------------------------------------------------------------------




--------------------------------------- Iteration      1(  13)  ---------------------------------------


    POTLOK:  cpu time    8.4202: real time    8.4792
    SETDIJ:  cpu time    0.0020: real time    0.0021
    TRIAL :  cpu time   22.3557: real time   22.5543
    CORREC:  cpu time   16.1790: real time   16.3065
    CHARGE:  cpu time    3.2433: real time    3.2674
    --------------------------------------------
      LOOP:  cpu time   50.2334: real time   50.6610

 eigenvalue-minimisations  :     0
 total energy-change (2. order) :-0.1005099E-01  (-0.2761288E-02)
 number of electron     216.0000000 magnetization 
 augmentation part       -0.5053190 magnetization 

 Free energy of the ion-electron system (eV)
  ---------------------------------------------------
  alpha Z        PSCENC =        47.94900195
  Ewald energy   TEWEN  =     47831.94723089
  -Hartree energ DENC   =    -54795.29214506
  -exchange      EXHF   =         0.00000000
  -V(xc)+E(xc)   XCENC  =       648.92776081
  PAW double counting   =    147391.41482634  -147251.13907878
  entropy T*S    EENTRO =        -0.00000000
  eigenvalues    EBANDS =     -2769.34019618
  atomic energy  EATOM  =      8369.52358910
  ---------------------------------------------------
  free energy    TOTEN  =      -526.00901092 eV

  energy without entropy =     -526.00901092  energy(sigma->0) =     -526.00901092


--------------------------------------------------------------------------------------------------------




--------------------------------------- Iteration      1(  14)  ---------------------------------------


    POTLOK:  cpu time    8.4189: real time    8.4726
    SETDIJ:  cpu time    0.0021: real time    0.0021
    TRIAL :  cpu time   22.3496: real time   22.5633
    CORREC:  cpu time   16.1743: real time   16.2956
    CHARGE:  cpu time    3.2457: real time    3.2758
    --------------------------------------------
      LOOP:  cpu time   50.2546: real time   50.6769

 eigenvalue-minimisations  :     0
 total energy-change (2. order) :-0.2765460E-02  (-0.7023385E-03)
 number of electron     216.0000000 magnetization 
 augmentation part       -0.5055437 magnetization 

 Free energy of the ion-electron system (eV)
  ---------------------------------------------------
  alpha Z        PSCENC =        47.94900195
  Ewald energy   TEWEN  =     47831.94723089
  -Hartree energ DENC   =    -54795.29259598
  -exchange      EXHF   =         0.00000000
  -V(xc)+E(xc)   XCENC  =       648.92420560
  PAW double counting   =    147162.58919841  -147022.31898142
  entropy T*S    EENTRO =        -0.00000000
  eigenvalues    EBANDS =     -2769.33342494
  atomic energy  EATOM  =      8369.52358910
  ---------------------------------------------------
  free energy    TOTEN  =      -526.01177638 eV

  energy without entropy =     -526.01177638  energy(sigma->0) =     -526.01177638


--------------------------------------------------------------------------------------------------------




--------------------------------------- Iteration      1(  15)  ---------------------------------------


    POTLOK:  cpu time    8.4366: real time    8.4893
    SETDIJ:  cpu time    0.0020: real time    0.0020
    TRIAL :  cpu time   22.3437: real time   22.5414
    CORREC:  cpu time   16.1876: real time   16.3142
    CHARGE:  cpu time    3.2534: real time    3.2772
    --------------------------------------------
      LOOP:  cpu time   50.2806: real time   50.6840

 eigenvalue-minimisations  :     0
 total energy-change (2. order) :-0.7079657E-03  (-0.1752981E-03)
 number of electron     216.0000000 magnetization 
 augmentation part       -0.5056327 magnetization 

 Free energy of the ion-electron system (eV)
  ---------------------------------------------------
  alpha Z        PSCENC =        47.94900195
  Ewald energy   TEWEN  =     47831.94723089
  -Hartree energ DENC   =    -54795.22806775
  -exchange      EXHF   =         0.00000000
  -V(xc)+E(xc)   XCENC  =       648.92582929
  PAW double counting   =    147074.55010036  -146934.28237226
  entropy T*S    EENTRO =        -0.00000000
  eigenvalues    EBANDS =     -2769.39779593
  atomic energy  EATOM  =      8369.52358910
  ---------------------------------------------------
  free energy    TOTEN  =      -526.01248435 eV

  energy without entropy =     -526.01248435  energy(sigma->0) =     -526.01248435


--------------------------------------------------------------------------------------------------------




--------------------------------------- Iteration      1(  16)  ---------------------------------------


    POTLOK:  cpu time    8.4115: real time    8.4679
    SETDIJ:  cpu time    0.0020: real time    0.0020
    TRIAL :  cpu time   22.3902: real time   22.5556
    CORREC:  cpu time   16.1766: real time   16.3068
    CHARGE:  cpu time    3.2416: real time    3.2640
    --------------------------------------------
      LOOP:  cpu time   50.2753: real time   50.6503

 eigenvalue-minimisations  :     0
 total energy-change (2. order) :-0.1790584E-03  (-0.5619190E-04)
 number of electron     216.0000000 magnetization 
 augmentation part       -0.5056538 magnetization 

 Free energy of the ion-electron system (eV)
  ---------------------------------------------------
  alpha Z        PSCENC =        47.94900195
  Ewald energy   TEWEN  =     47831.94723089
  -Hartree energ DENC   =    -54795.13402280
  -exchange      EXHF   =         0.00000000
  -V(xc)+E(xc)   XCENC  =       648.92439737
  PAW double counting   =    147025.45652439  -146885.18927956
  entropy T*S    EENTRO =        -0.00000000
  eigenvalues    EBANDS =     -2769.49010475
  atomic energy  EATOM  =      8369.52358910
  ---------------------------------------------------
  free energy    TOTEN  =      -526.01266340 eV

  energy without entropy =     -526.01266340  energy(sigma->0) =     -526.01266340


--------------------------------------------------------------------------------------------------------




--------------------------------------- Iteration      1(  17)  ---------------------------------------


    POTLOK:  cpu time    8.4066: real time    8.4598
    SETDIJ:  cpu time    0.0020: real time    0.0020
    TRIAL :  cpu time   22.3334: real time   22.5593
    CORREC:  cpu time   16.1634: real time   16.2897
    CHARGE:  cpu time    3.2430: real time    3.2659
    --------------------------------------------
      LOOP:  cpu time   50.1905: real time   50.6580

 eigenvalue-minimisations  :     0
 total energy-change (2. order) :-0.5591777E-04  (-0.1992877E-04)
 number of electron     216.0000000 magnetization 
 augmentation part       -0.5056637 magnetization 

 Free energy of the ion-electron system (eV)
  ---------------------------------------------------
  alpha Z        PSCENC =        47.94900195
  Ewald energy   TEWEN  =     47831.94723089
  -Hartree energ DENC   =    -54795.24650145
  -exchange      EXHF   =         0.00000000
  -V(xc)+E(xc)   XCENC  =       648.93014758
  PAW double counting   =    146987.01769583  -146846.75109402
  entropy T*S    EENTRO =        -0.00000000
  eigenvalues    EBANDS =     -2769.38278921
  atomic energy  EATOM  =      8369.52358910
  ---------------------------------------------------
  free energy    TOTEN  =      -526.01271932 eV

  energy without entropy =     -526.01271932  energy(sigma->0) =     -526.01271932


--------------------------------------------------------------------------------------------------------




--------------------------------------- Iteration      1(  18)  ---------------------------------------


    POTLOK:  cpu time    8.4203: real time    8.4745
    SETDIJ:  cpu time    0.0021: real time    0.0022
    TRIAL :  cpu time   22.3359: real time   22.5442
    CORREC:  cpu time   16.1550: real time   16.2925
    CHARGE:  cpu time    3.2509: real time    3.2736
    --------------------------------------------
      LOOP:  cpu time   50.2073: real time   50.6414

 eigenvalue-minimisations  :     0
 total energy-change (2. order) :-0.1923699E-04  (-0.6133709E-05)
 number of electron     216.0000000 magnetization 
 augmentation part       -0.5056884 magnetization 

 Free energy of the ion-electron system (eV)
  ---------------------------------------------------
  alpha Z        PSCENC =        47.94900195
  Ewald energy   TEWEN  =     47831.94723089
  -Hartree energ DENC   =    -54795.33990732
  -exchange      EXHF   =         0.00000000
  -V(xc)+E(xc)   XCENC  =       648.93407881
  PAW double counting   =    146967.34976287  -146827.08327633
  entropy T*S    EENTRO =        -0.00000000
  eigenvalues    EBANDS =     -2769.29321853
  atomic energy  EATOM  =      8369.52358910
  ---------------------------------------------------
  free energy    TOTEN  =      -526.01273856 eV

  energy without entropy =     -526.01273856  energy(sigma->0) =     -526.01273856


--------------------------------------------------------------------------------------------------------




--------------------------------------- Iteration      1(  19)  ---------------------------------------


    POTLOK:  cpu time    8.4321: real time    8.4846
    SETDIJ:  cpu time    0.0021: real time    0.0021
    TRIAL :  cpu time   22.4006: real time   22.5624
    CORREC:  cpu time   16.1917: real time   16.3029
    CHARGE:  cpu time    3.2485: real time    3.2708
    --------------------------------------------
      LOOP:  cpu time   50.3662: real time   50.7148

 eigenvalue-minimisations  :     0
 total energy-change (2. order) :-0.6297138E-05  (-0.6989905E-05)
 number of electron     216.0000000 magnetization 
 augmentation part       -0.5057299 magnetization 

 Free energy of the ion-electron system (eV)
  ---------------------------------------------------
  alpha Z        PSCENC =        47.94900195
  Ewald energy   TEWEN  =     47831.94723089
  -Hartree energ DENC   =    -54795.34693775
  -exchange      EXHF   =         0.00000000
  -V(xc)+E(xc)   XCENC  =       648.93391225
  PAW double counting   =    146966.47478304  -146826.20793187
  entropy T*S    EENTRO =        -0.00000000
  eigenvalues    EBANDS =     -2769.28639247
  atomic energy  EATOM  =      8369.52358910
  ---------------------------------------------------
  free energy    TOTEN  =      -526.01274486 eV

  energy without entropy =     -526.01274486  energy(sigma->0) =     -526.01274486


--------------------------------------------------------------------------------------------------------




--------------------------------------- Iteration      1(  20)  ---------------------------------------


    POTLOK:  cpu time    8.4179: real time    8.4693
    SETDIJ:  cpu time    0.0022: real time    0.0022
    TRIAL :  cpu time   22.3728: real time   22.5412
    CORREC:  cpu time   16.1809: real time   16.3057
    CHARGE:  cpu time    3.2329: real time    3.2679
    --------------------------------------------
      LOOP:  cpu time   50.2312: real time   50.6364

 eigenvalue-minimisations  :     0
 total energy-change (2. order) : 0.1726148E-05  (-0.6473159E-05)
 number of electron     216.0000000 magnetization 
 augmentation part       -0.5057253 magnetization 

 Free energy of the ion-electron system (eV)
  ---------------------------------------------------
  alpha Z        PSCENC =        47.94900195
  Ewald energy   TEWEN  =     47831.94723089
  -Hartree energ DENC   =    -54795.38570716
  -exchange      EXHF   =         0.00000000
  -V(xc)+E(xc)   XCENC  =       648.93481424
  PAW double counting   =    146981.08876661  -146840.82141958
  entropy T*S    EENTRO =        -0.00000000
  eigenvalues    EBANDS =     -2769.24901918
  atomic energy  EATOM  =      8369.52358910
  ---------------------------------------------------
  free energy    TOTEN  =      -526.01274313 eV

  energy without entropy =     -526.01274313  energy(sigma->0) =     -526.01274313


--------------------------------------------------------------------------------------------------------




--------------------------------------- Iteration      1(  21)  ---------------------------------------


    POTLOK:  cpu time    8.4137: real time    8.4690
    SETDIJ:  cpu time    0.0018: real time    0.0019
    TRIAL :  cpu time   22.3638: real time   22.5806
    CORREC:  cpu time   16.1625: real time   16.2734
    CHARGE:  cpu time    3.2335: real time    3.2652
    --------------------------------------------
      LOOP:  cpu time   50.2129: real time   50.6509

 eigenvalue-minimisations  :     0
 total energy-change (2. order) :-0.6375136E-05  (-0.9707043E-06)
 number of electron     216.0000000 magnetization 
 augmentation part       -0.5057113 magnetization 

 Free energy of the ion-electron system (eV)
  ---------------------------------------------------
  alpha Z        PSCENC =        47.94900195
  Ewald energy   TEWEN  =     47831.94723089
  -Hartree energ DENC   =    -54795.38030620
  -exchange      EXHF   =         0.00000000
  -V(xc)+E(xc)   XCENC  =       648.93439206
  PAW double counting   =    146979.09032615  -146838.82303636
  entropy T*S    EENTRO =        -0.00000000
  eigenvalues    EBANDS =     -2769.25394710
  atomic energy  EATOM  =      8369.52358910
  ---------------------------------------------------
  free energy    TOTEN  =      -526.01274950 eV

  energy without entropy =     -526.01274950  energy(sigma->0) =     -526.01274950


--------------------------------------------------------------------------------------------------------




--------------------------------------- Iteration      1(  22)  ---------------------------------------


    POTLOK:  cpu time    8.4118: real time    8.4680
    SETDIJ:  cpu time    0.0021: real time    0.0022
    TRIAL :  cpu time   22.3757: real time   22.5454
    CORREC:  cpu time   16.1439: real time   16.2640
    CHARGE:  cpu time    3.2497: real time    3.2753
    --------------------------------------------
      LOOP:  cpu time   50.1931: real time   50.5705

 eigenvalue-minimisations  :     0
 total energy-change (2. order) :-0.9245123E-06  (-0.6072152E-07)
 number of electron     216.0000000 magnetization 
 augmentation part       -0.5057108 magnetization 

 Free energy of the ion-electron system (eV)
  ---------------------------------------------------
  alpha Z        PSCENC =        47.94900195
  Ewald energy   TEWEN  =     47831.94723089
  -Hartree energ DENC   =    -54795.38122691
  -exchange      EXHF   =         0.00000000
  -V(xc)+E(xc)   XCENC  =       648.93462962
  PAW double counting   =    146977.42712990  -146837.16002646
  entropy T*S    EENTRO =        -0.00000000
  eigenvalues    EBANDS =     -2769.25307852
  atomic energy  EATOM  =      8369.52358910
  ---------------------------------------------------
  free energy    TOTEN  =      -526.01275043 eV

  energy without entropy =     -526.01275043  energy(sigma->0) =     -526.01275043


--------------------------------------------------------------------------------------------------------




--------------------------------------- Iteration      1(  23)  ---------------------------------------


    POTLOK:  cpu time    8.3973: real time    8.4585
    SETDIJ:  cpu time    0.0020: real time    0.0020
    TRIAL :  cpu time   22.3319: real time   22.5420
    CORREC:  cpu time   16.1731: real time   16.2978
    EDDIAG:  cpu time    4.6115: real time    4.6458
    CHARGE:  cpu time    3.2504: real time    3.2728
    --------------------------------------------
      LOOP:  cpu time   54.8237: real time   55.2784

 eigenvalue-minimisations  :     0
 total energy-change (2. order) : 0.3044261E-07  (-0.3758978E-07)
 number of electron     216.0000000 magnetization 
 augmentation part       -0.5057110 magnetization 

 Free energy of the ion-electron system (eV)
  ---------------------------------------------------
  alpha Z        PSCENC =        47.94900195
  Ewald energy   TEWEN  =     47831.94723089
  -Hartree energ DENC   =    -54795.37795760
  -exchange      EXHF   =         0.00000000
  -V(xc)+E(xc)   XCENC  =       648.93450616
  PAW double counting   =    146977.44990203  -146837.18280435
  entropy T*S    EENTRO =        -0.00000000
  eigenvalues    EBANDS =     -2769.25621859
  atomic energy  EATOM  =      8369.52358910
  ---------------------------------------------------
  free energy    TOTEN  =      -526.01275040 eV

  energy without entropy =     -526.01275040  energy(sigma->0) =     -526.01275040


--------------------------------------------------------------------------------------------------------


  average scaling for gradient   0.8368


 average (electrostatic) potential at core
  the test charge radii are     0.5770  0.5955
  (the norm of the test charge is              1.0000)
       1 -88.0814       2 -88.0736       3 -88.0885       4 -88.0957       5 -88.0686
       6 -88.0631       7 -88.0796       8 -88.0554       9 -88.0666      10 -88.0692
      11 -88.0658      12 -88.0730      13 -88.0663      14 -88.0605      15 -88.0628
      16 -88.0645      17 -88.0715      18 -88.0754      19 -88.0770      20 -88.0705
      21 -88.0581      22 -88.0579      23 -88.0896      24 -88.0855      25 -88.0670
      26 -88.0687      27 -88.0637      28 -88.0819      29 -88.0643      30 -88.0634
      31 -88.0892      32 -88.0785      33 -88.0760      34 -88.0697      35 -88.0633
      36 -88.0703      37 -88.0685      38 -88.0763      39 -88.0757      40 -88.0751
      41 -88.0771      42 -88.0809      43 -88.0721      44 -88.0802      45 -88.0659
      46 -88.0634      47 -88.0728      48 -88.0682      49 -88.0764      50 -88.0744
      51 -92.1080      52-124.2274      53-124.2383
 
 
 
 E-fermi :  -4.3993     XC(G=0):  -1.8476     alpha+bet : -1.6890

 Fermi energy:        -4.3993074964

 k-point     1 :       0.0000    0.0000    0.0000
  band No.  band energies     occupation 
      1     -29.1682      2.00000
      2     -28.1421      2.00000
      3     -23.5827      2.00000
      4     -22.6078      2.00000
      5     -22.6011      2.00000
      6     -22.5944      2.00000
      7     -22.5939      2.00000
      8     -22.5906      2.00000
      9     -22.5869      2.00000
     10     -20.6708      2.00000
     11     -20.6685      2.00000
     12     -20.6624      2.00000
     13     -20.6609      2.00000
     14     -20.6597      2.00000
     15     -20.6594      2.00000
     16     -19.7329      2.00000
     17     -19.7306      2.00000
     18     -19.7282      2.00000
     19     -19.7260      2.00000
     20     -19.7251      2.00000
     21     -19.7246      2.00000
     22     -17.5117      2.00000
     23     -17.5099      2.00000
     24     -17.5066      2.00000
     25     -17.5060      2.00000
     26     -17.5018      2.00000
     27     -17.5012      2.00000
     28     -16.3526      2.00000
     29     -16.3515      2.00000
     30     -16.3475      2.00000
     31     -16.3469      2.00000
     32     -16.3455      2.00000
     33     -16.3450      2.00000
     34     -14.9577      2.00000
     35     -14.9570      2.00000
     36     -14.9565      2.00000
     37     -14.9540      2.00000
     38     -14.9537      2.00000
     39     -14.9531      2.00000
     40     -13.1447      2.00000
     41     -12.4988      2.00000
     42     -12.4982      2.00000
     43     -12.4949      2.00000
     44     -12.4946      2.00000
     45     -12.4942      2.00000
     46     -12.4938      2.00000
     47     -12.2825      2.00000
     48     -12.2813      2.00000
     49     -12.2789      2.00000
     50     -12.2788      2.00000
     51     -12.2746      2.00000
     52     -12.2744      2.00000
     53     -11.8723      2.00000
     54     -11.7337      2.00000
     55     -11.6096      2.00000
     56     -10.9002      2.00000
     57     -10.8331      2.00000
     58     -10.8329      2.00000
     59     -10.8318      2.00000
     60     -10.8315      2.00000
     61     -10.8305      2.00000
     62     -10.8301      2.00000
     63      -9.7768      2.00000
     64      -9.7728      2.00000
     65      -9.7711      2.00000
     66      -9.7670      2.00000
     67      -9.7651      2.00000
     68      -9.7066      2.00000
     69      -9.5371      2.00000
     70      -9.5339      2.00000
     71      -9.5324      2.00000
     72      -9.5318      2.00000
     73      -9.5304      2.00000
     74      -9.5297      2.00000
     75      -9.5288      2.00000
     76      -9.5276      2.00000
     77      -9.5273      2.00000
     78      -9.5266      2.00000
     79      -9.5258      2.00000
     80      -9.5242      2.00000
     81      -8.0997      2.00000
     82      -8.0242      2.00000
     83      -7.8265      2.00000
     84      -7.8255      2.00000
     85      -7.8252      2.00000
     86      -7.8216      2.00000
     87      -7.8190      2.00000
     88      -7.8186      2.00000
     89      -7.5401      2.00000
     90      -7.5323      2.00000
     91      -7.5251      2.00000
     92      -7.5213      2.00000
     93      -7.5180      2.00000
     94      -7.4374      2.00000
     95      -6.5951      2.00000
     96      -6.5919      2.00000
     97      -6.5838      2.00000
     98      -6.5811      2.00000
     99      -6.5756      2.00000
    100      -6.5441      2.00000
    101      -6.3074      2.00000
    102      -6.3050      2.00000
    103      -4.4993      2.00000
    104      -4.4935      2.00000
    105      -4.4882      2.00000
    106      -4.4854      2.00000
    107      -4.4810      2.00000
    108      -4.4800      2.00000
    109      -1.5310      0.00000
    110      -1.5275      0.00000
    111      -1.5132      0.00000
    112      -1.5102      0.00000
    113      -1.5085      0.00000
    114      -1.5050      0.00000
    115       0.4389      0.00000
    116       0.4492      0.00000
    117       0.4569      0.00000
    118       0.4669      0.00000
    119       0.4697      0.00000
    120       0.4724      0.00000
    121       0.5294      0.00000
    122       1.2049      0.00000
    123       1.2521      0.00000
    124       1.2855      0.00000
    125       1.5312      0.00000
    126       1.6479      0.00000
    127       1.8901      0.00000
    128       1.9362      0.00000
    129       1.9411      0.00000
    130       1.9455      0.00000
    131       2.0378      0.00000
    132       2.0960      0.00000
    133       2.3306      0.00000
    134       2.3372      0.00000
    135       2.3468      0.00000
    136       2.3490      0.00000
    137       2.3513      0.00000
    138       2.3548      0.00000
    139       2.3690      0.00000
    140       2.4872      0.00000
    141       2.6224      0.00000
    142       2.6926      0.00000
    143       2.7026      0.00000
    144       2.7036      0.00000
    145       2.7372      0.00000
    146       2.8423      0.00000
    147       2.8442      0.00000
    148       2.8577      0.00000
    149       2.8611      0.00000
    150       2.9666      0.00000
    151       3.2281      0.00000
    152       3.5357      0.00000
    153       3.5981      0.00000
    154       3.6538      0.00000
    155       3.8283      0.00000
    156       3.9358      0.00000
    157       4.1196      0.00000
    158       4.4076      0.00000
    159       4.5984      0.00000
    160       4.7391      0.00000
    161       4.7692      0.00000
    162       4.9235      0.00000
    163       4.9276      0.00000
    164       4.9361      0.00000
    165       4.9429      0.00000
    166       4.9469      0.00000
    167       4.9520      0.00000
    168       5.0180      0.00000


--------------------------------------------------------------------------------------------------------


 soft charge-density along one line, spin component           1
         0         1         2         3         4         5         6         7         8         9
 total charge-density along one line
 
 pseudopotential strength for first ion, spin component:           1
 12.643  21.273  -0.000   0.000   0.000  -0.000   0.000   0.000
 21.273  35.793  -0.000   0.000   0.000  -0.000   0.000   0.000
 -0.000  -0.000  -3.239   0.000   0.000  -5.804   0.000   0.000
  0.000   0.000   0.000  -3.243   0.000   0.000  -5.810   0.000
  0.000   0.000   0.000   0.000  -3.239   0.000   0.000  -5.804
 -0.000  -0.000  -5.804   0.000   0.000 -10.376   0.000   0.000
  0.000   0.000   0.000  -5.810   0.000   0.000 -10.386   0.000
  0.000   0.000   0.000   0.000  -5.804   0.000   0.000 -10.376
 total augmentation occupancy for first ion, spin component:           1
  9.642  -3.598   0.000  -0.002  -0.000  -0.000   0.001   0.000
 -3.598   1.374  -0.000   0.001   0.000   0.000  -0.000  -0.000
  0.000  -0.000   8.196  -0.009   0.001  -2.895   0.003  -0.000
 -0.002   0.001  -0.009   3.781  -0.000   0.003  -1.106   0.000
 -0.000   0.000   0.001  -0.000   8.195  -0.000   0.000  -2.895
 -0.000   0.000  -2.895   0.003  -0.000   1.036  -0.001   0.000
  0.001  -0.000   0.003  -1.106   0.000  -0.001   0.329   0.000
  0.000  -0.000  -0.000   0.000  -2.895   0.000   0.000   1.035


------------------------ aborting loop because EDIFF is reached ----------------------------------------


    FORLOC:  cpu time    0.1436: real time    0.1445
    FORNL :  cpu time    4.1574: real time    4.1874
    FORCOR:  cpu time    8.3266: real time    8.3781
    OFIELD:  cpu time    0.0032: real time    0.0032

 VOLUME and BASIS-vectors are now :
 -----------------------------------------------------------------------------
  energy-cutoff  :     1000.00
  volume of cell :     3288.85
      direct lattice vectors                 reciprocal lattice vectors
    12.325000000  0.000000000  0.000000000     0.081135903  0.046843835  0.000000000
    -6.162500000 10.673763102  0.000000000     0.000000000  0.093687670  0.000000000
     0.000000000  0.000000000 25.000000000     0.000000000  0.000000000  0.040000000

  length of vectors
    12.325000000 12.325000000 25.000000000     0.093687670  0.093687670  0.040000000


 FORCES acting on ions:
    Electron-Ion                     Ewald-Force                    Non-Local-Force
 -----------------------------------------------------------------------------------------------
   0.121E+02 0.106E+02 0.252E+02   -.121E+02 -.106E+02 -.252E+02   0.609E-02 -.563E-03 0.146E-01
   0.202E+02 0.101E+02 0.335E+02   -.202E+02 -.101E+02 -.334E+02   0.168E-01 0.634E-03 -.764E-02
   0.102E+02 0.259E+02 0.421E+02   -.102E+02 -.260E+02 -.421E+02   0.855E-02 0.593E-01 0.449E-01
   0.168E+02 0.247E+02 0.702E+02   -.169E+02 -.247E+02 -.703E+02   0.771E-01 0.454E-01 0.112E+00
   0.132E+02 0.313E+01 0.253E+02   -.132E+02 -.312E+01 -.252E+02   -.887E-02 -.511E-02 -.630E-02
   0.139E+02 -.234E+01 0.259E+02   -.139E+02 0.235E+01 -.259E+02   -.301E-01 0.562E-02 -.175E-01
   0.283E+02 0.118E+02 0.595E+02   -.284E+02 -.117E+02 -.595E+02   0.594E-01 -.596E-01 -.181E-01
   0.282E+02 -.942E+01 0.639E+02   -.282E+02 0.946E+01 -.638E+02   -.429E-02 -.167E-01 -.155E+00
   -.113E+02 0.242E+02 0.436E+02   0.113E+02 -.241E+02 -.436E+02   -.674E-02 -.370E-02 -.468E-01
   -.213E+02 0.182E+02 0.686E+02   0.213E+02 -.183E+02 -.685E+02   -.594E-01 0.477E-01 -.141E+00
   0.322E+01 -.281E+01 0.202E+02   -.320E+01 0.280E+01 -.202E+02   -.909E-02 0.464E-02 -.778E-02
   0.254E+01 -.205E+01 0.187E+02   -.254E+01 0.205E+01 -.187E+02   -.945E-02 -.232E-02 0.711E-03
   0.107E+02 -.262E+02 0.738E+02   -.108E+02 0.263E+02 -.737E+02   0.108E+00 -.221E-02 -.153E+00
   0.476E+01 -.263E+02 0.430E+02   -.480E+01 0.263E+02 -.430E+02   0.287E-01 -.175E-04 -.442E-01
   -.118E+02 0.745E+01 0.248E+02   0.118E+02 -.745E+01 -.248E+02   0.174E-01 -.718E-02 -.102E-01
   -.178E+02 0.497E+01 0.293E+02   0.178E+02 -.498E+01 -.293E+02   -.328E-04 0.121E-01 -.339E-01
   -.173E+01 -.698E+00 0.180E+02   0.174E+01 0.708E+00 -.180E+02   0.110E-02 -.181E-01 0.173E-02
   0.964E+00 0.641E+01 0.192E+02   -.965E+00 -.640E+01 -.192E+02   -.663E-03 -.797E-02 0.105E-01
   -.369E+01 -.212E+02 0.318E+02   0.367E+01 0.212E+02 -.318E+02   0.257E-01 -.131E-01 0.814E-02
   -.152E+01 -.997E+01 0.213E+02   0.152E+01 0.998E+01 -.213E+02   -.102E-01 -.146E-01 -.854E-03
   0.213E+02 -.923E+01 0.366E+02   -.212E+02 0.921E+01 -.365E+02   -.118E-01 0.494E-02 -.581E-01
   0.123E+02 -.107E+02 0.279E+02   -.123E+02 0.107E+02 -.279E+02   -.140E-01 0.229E-01 -.171E-01
   -.529E+01 0.123E+02 0.925E+02   0.538E+01 -.124E+02 -.926E+02   -.853E-01 0.858E-01 0.364E-01
   -.986E+01 -.196E+02 0.865E+02   0.978E+01 0.197E+02 -.866E+02   0.727E-01 -.739E-01 0.539E-01
   0.559E+01 -.249E+01 0.203E+02   -.557E+01 0.249E+01 -.203E+02   -.735E-02 -.485E-02 -.138E-01
   0.100E+01 0.503E+01 0.205E+02   -.100E+01 -.503E+01 -.205E+02   0.728E-03 -.153E-02 -.400E-03
   -.280E+02 0.311E+01 0.488E+02   0.280E+02 -.316E+01 -.488E+02   0.662E-02 0.390E-01 -.536E-01
   -.252E+02 -.109E+02 0.432E+02   0.253E+02 0.109E+02 -.433E+02   -.439E-01 0.383E-01 0.159E-01
   0.753E+01 -.155E+02 0.293E+02   -.753E+01 0.155E+02 -.293E+02   0.986E-02 0.127E-01 -.293E-01
   0.701E+00 -.559E+01 0.217E+02   -.715E+00 0.558E+01 -.217E+02   0.347E-02 0.884E-02 -.878E-02
   -.209E+02 -.226E+02 0.545E+02   0.209E+02 0.227E+02 -.546E+02   -.527E-01 -.381E-01 0.804E-01
   -.114E+02 -.208E+02 0.343E+02   0.115E+02 0.209E+02 -.343E+02   -.885E-02 -.434E-01 0.217E-01
   0.654E+00 0.266E+01 0.186E+02   -.647E+00 -.266E+01 -.186E+02   -.471E-02 -.467E-02 0.502E-02
   0.186E+01 0.270E+01 0.201E+02   -.186E+01 -.269E+01 -.201E+02   -.110E-01 0.115E-02 -.813E-02
   -.822E+01 0.987E+00 0.222E+02   0.821E+01 -.100E+01 -.222E+02   0.470E-02 0.739E-02 -.146E-02
   -.703E+01 -.279E+01 0.215E+02   0.704E+01 0.279E+01 -.215E+02   -.124E-01 0.876E-02 -.872E-02
   -.144E+02 -.754E+01 0.259E+02   0.145E+02 0.754E+01 -.259E+02   -.186E-01 -.561E-02 0.104E-02
   -.820E+01 -.666E+01 0.211E+02   0.821E+01 0.667E+01 -.212E+02   -.113E-01 -.109E-01 0.959E-02
   -.774E+01 -.101E+02 0.228E+02   0.775E+01 0.101E+02 -.228E+02   -.169E-01 -.269E-01 0.759E-02
   -.113E+01 -.237E+01 0.192E+02   0.113E+01 0.239E+01 -.192E+02   -.682E-02 -.146E-01 0.102E-01
   0.290E+01 0.692E+01 0.201E+02   -.290E+01 -.693E+01 -.201E+02   -.280E-02 0.134E-02 0.971E-02
   0.979E+01 0.153E+02 0.270E+02   -.980E+01 -.153E+02 -.270E+02   0.140E-01 0.168E-01 0.159E-01
   0.765E+00 0.125E+02 0.226E+02   -.764E+00 -.125E+02 -.226E+02   0.588E-02 0.375E-02 -.101E-02
   0.202E+00 0.241E+02 0.356E+02   -.177E+00 -.241E+02 -.356E+02   -.260E-01 0.126E-01 0.154E-01
   -.237E+01 0.472E+01 0.217E+02   0.237E+01 -.471E+01 -.217E+02   0.103E-01 -.105E-01 -.110E-01
   -.101E+02 0.130E+02 0.279E+02   0.101E+02 -.129E+02 -.279E+02   0.304E-02 -.482E-02 -.245E-01
   -.166E+01 -.471E+01 0.199E+02   0.166E+01 0.471E+01 -.199E+02   0.489E-02 -.283E-02 -.155E-02
   -.439E+01 0.180E+01 0.191E+02   0.437E+01 -.180E+01 -.191E+02   -.239E-03 -.301E-02 -.108E-01
   0.342E+00 -.292E+01 0.188E+02   -.333E+00 0.292E+01 -.188E+02   -.564E-02 -.109E-01 0.774E-02
   0.462E+01 0.339E+01 0.190E+02   -.462E+01 -.339E+01 -.190E+02   -.103E-01 0.503E-02 0.537E-02
   0.229E+00 -.151E+00 -.418E+03   -.204E+00 0.128E+00 0.418E+03   -.338E-01 0.235E-01 -.720E-01
   -.228E+03 0.155E+03 -.641E+03   0.279E+03 -.190E+03 0.644E+03   -.525E+02 0.357E+02 -.308E+01
   0.228E+03 -.155E+03 -.618E+03   -.279E+03 0.190E+03 0.615E+03   0.525E+02 -.358E+02 0.358E+01
 -----------------------------------------------------------------------------------------------
   0.378E-01 -.105E-01 -.370E-01   0.568E-13 -.114E-12 -.455E-12   -.751E-01 0.346E-01 0.258E-01
 
 
 POSITION                                       TOTAL-FORCE (eV/Angst)
 -----------------------------------------------------------------------------------
     11.98348      0.00342      0.01417        -0.007830      0.007154     -0.000070
     -0.34154      1.42665      0.01100        -0.007819      0.022700      0.002282
      2.12355      0.00315      0.01249         0.015767     -0.006073      0.008334
      2.12326      1.42653      0.00641         0.011043      0.025246      0.005412
     10.75099      2.13819      0.01213        -0.007183      0.018667      0.002931
     -1.57382      3.56123      0.01110        -0.022348      0.016320      0.000210
      0.89078      2.13854      0.00548        -0.009745      0.039971     -0.004215
      0.89099      3.56147      0.00181        -0.006259      0.028570     -0.031094
      4.58864      0.00346      0.01135         0.031644      0.016182      0.000934
      4.58894      1.42623      0.00646         0.038410      0.006276     -0.046228
      9.51854      4.27281      0.01369         0.018653     -0.006296     -0.000547
     -2.80632      5.69591      0.01434        -0.010313     -0.014150      0.000544
      2.12300      4.27302      0.00000        -0.015547      0.043287     -0.058382
      2.12335      5.69594      0.00581        -0.000020     -0.029872      0.002429
      7.05344      0.00333      0.01399         0.003869     -0.011804      0.001184
      7.05353      1.42635      0.01368        -0.006566      0.014247     -0.001912
      8.28610      6.40752      0.01601         0.019658     -0.023148      0.000295
     -4.03885      7.83070      0.01636         0.005704     -0.014273      0.000775
      3.35586      6.40753      0.01007        -0.014283     -0.010058      0.001054
      3.35599      7.83072      0.01320        -0.016896     -0.010557      0.001514
     -0.34146      4.27290      0.00723         0.021986      0.009019     -0.000038
     -0.34138      5.69591      0.00946        -0.009581      0.001652      0.005328
      3.35624      2.13791      0.00222         0.018283      0.014670     -0.073941
      3.35573      3.56155      0.00139         0.015401      0.019693     -0.043393
     -1.57395      6.40758      0.01311         0.033392     -0.013951     -0.002106
     -1.57385      7.83068      0.01438         0.009864     -0.002278      0.001301
      5.82093      2.13784      0.01033        -0.004798     -0.012999     -0.001752
      5.82114      3.56097      0.01156         0.008528     -0.007544      0.004554
      0.89092      6.40755      0.00907         0.001825     -0.002168      0.001092
      0.89106      7.83068      0.01235        -0.010557      0.002564      0.001682
      4.58871      4.27293      0.00850        -0.006556     -0.002966      0.010227
      4.58852      5.69606      0.01149        -0.000014     -0.009471      0.001198
      9.51845      0.00337      0.01490        -0.014121     -0.008478      0.001068
      9.51855      1.42644      0.01438        -0.029152      0.026575     -0.000640
      8.28593      2.13803      0.01453        -0.001331     -0.003650      0.002367
      8.28613      3.56115      0.01464        -0.012855     -0.004376     -0.001714
      7.05356      4.27269      0.01457         0.003281     -0.008120      0.002330
      7.05362      5.69588      0.01553        -0.002132     -0.029595     -0.000636
      5.82112      6.40755      0.01489        -0.013269     -0.019607      0.000246
      5.82102      7.83073      0.01579        -0.009022     -0.016799      0.000776
      7.05363      8.54227      0.01631         0.001633     -0.014121      0.002022
     -5.27149      9.96549      0.01495         0.000369     -0.000857     -0.001400
     -2.80638      8.54234      0.01558         0.027557     -0.013003      0.000706
     -2.80627      9.96553      0.01362         0.017825      0.003854      0.004355
     -0.34149      8.54239      0.01378         0.024469     -0.012180     -0.000974
     -0.34138      9.96550      0.01354         0.010572      0.014020      0.001371
      2.12343      8.54232      0.01336        -0.010997     -0.013165     -0.000259
      2.12354      9.96544      0.01469        -0.027035      0.013426     -0.002600
      4.58846      8.54235      0.01505        -0.015060     -0.019692      0.002427
      4.58853      9.96550      0.01517        -0.023661      0.008733      0.002032
      3.04930      2.68154      2.97302        -0.022893      0.008444     -0.004312
      4.02070      2.02068      3.03744        -1.603421      1.074259     -0.010144
      2.07767      3.34267      2.91356         1.601529     -1.094281      0.213378
 -----------------------------------------------------------------------------------
    total drift:                               -0.037274      0.024168     -0.011206


--------------------------------------------------------------------------------------------------------



  FREE ENERGIE OF THE ION-ELECTRON SYSTEM (eV)
  ---------------------------------------------------
  free  energy   TOTEN  =      -526.01275040 eV

  energy  without entropy=     -526.01275040  energy(sigma->0) =     -526.01275040
 


--------------------------------------------------------------------------------------------------------


    POTLOK:  cpu time    8.4149: real time    8.4918


--------------------------------------------------------------------------------------------------------


 writing wavefunctions
     LOOP+:  cpu time 1163.7022: real time 1173.3247
    4ORBIT:  cpu time    0.0000: real time    0.0000

 total amount of memory used by VASP MPI-rank0   698619. kBytes
=======================================================================

   base      :      30000. kBytes
   nonl-proj :     230539. kBytes
   fftplans  :      40716. kBytes
   grid      :     363125. kBytes
   one-center:        162. kBytes
   wavefun   :      34077. kBytes
 
  
  
 General timing and accounting informations for this job:
 ========================================================
  
                  Total CPU time used (sec):     1209.722
                            User time (sec):     1171.637
                          System time (sec):       38.084
                         Elapsed time (sec):     1220.796
  
                   Maximum memory used (kb):     1437064.
                   Average memory used (kb):          N/A
  
                          Minor page faults:       398219
                          Major page faults:          230
                 Voluntary context switches:         3973
