 vasp.6.2.1 16May21 (build Nov 06 2021 14:46:37) complex                        
  
 executed on             LinuxIFC date 2025.04.17  02:13:18
 running on  112 total cores
 distrk:  each k-point on   56 cores,    2 groups
 distr:  one band on NCORE=   1 cores,   56 groups


--------------------------------------------------------------------------------------------------------


 INCAR:
   ALGO = Conjugate
   KPAR = 2
   NCORE = 32
   ISMEAR = 0
   SIGMA = 0.01
   PREC = Accurate
   EDIFF = 1E-7
   ENCUT = 1000
   ISIF = 0
   METAGGA = SCAN
   LUSE_VDW = .TRUE.
   BPARAM = 15.7
   LASPH = .TRUE.
   SYMPREC = 1E-7
   NELM = 200

 POTCAR:    PAW_PBE C_h 06Feb2004                 
 POTCAR:    PAW_PBE O_h 06Feb2004                 
 -----------------------------------------------------------------------------
|                                                                             |
|           W    W    AA    RRRRR   N    N  II  N    N   GGGG   !!!           |
|           W    W   A  A   R    R  NN   N  II  NN   N  G    G  !!!           |
|           W    W  A    A  R    R  N N  N  II  N N  N  G       !!!           |
|           W WW W  AAAAAA  RRRRR   N  N N  II  N  N N  G  GGG   !            |
|           WW  WW  A    A  R   R   N   NN  II  N   NN  G    G                |
|           W    W  A    A  R    R  N    N  II  N    N   GGGG   !!!           |
|                                                                             |
|     The value NCORE = 32 specified in the INCAR file was overwritten,       |
|     because it was not compatible with the 56 processes available:          |
|     NCORE = 1                                                               |
|     was used instead, please check that this makes sense for your           |
|     machine.                                                                |
|                                                                             |
 -----------------------------------------------------------------------------

 -----------------------------------------------------------------------------
|                                                                             |
|           W    W    AA    RRRRR   N    N  II  N    N   GGGG   !!!           |
|           W    W   A  A   R    R  NN   N  II  NN   N  G    G  !!!           |
|           W    W  A    A  R    R  N N  N  II  N N  N  G       !!!           |
|           W WW W  AAAAAA  RRRRR   N  N N  II  N  N N  G  GGG   !            |
|           WW  WW  A    A  R   R   N   NN  II  N   NN  G    G                |
|           W    W  A    A  R    R  N    N  II  N    N   GGGG   !!!           |
|                                                                             |
|     For optimal performance we recommend to set                             |
|       NCORE = 2 up to number-of-cores-per-socket                            |
|     NCORE specifies how many cores store one orbital (NPAR=cpu/NCORE).      |
|     This setting can greatly improve the performance of VASP for DFT.       |
|     The default, NCORE=1 might be grossly inefficient on modern             |
|     multi-core architectures or massively parallel machines. Do your        |
|     own testing! More info at https://www.vasp.at/wiki/index.php/NCORE      |
|     Unfortunately you need to use the default for GW and RPA                |
|     calculations (for HF NCORE is supported but not extensively tested      |
|     yet).                                                                   |
|                                                                             |
 -----------------------------------------------------------------------------

 -----------------------------------------------------------------------------
|                                                                             |
|               ----> ADVICE to this user running VASP <----                  |
|                                                                             |
|     You have switched on vdW-DFT.                                           |
|     This routine was written and supplied by Jiri Klimes. We recommend      |
|     that you carefully read and cite the following publications:            |
|       J. Klimes, D.R. Bowler, A. Michelides                                 |
|          J. Phys.: Cond Matt. 22 022201 (2010)                              |
|       J. Klimes, D.R. Bowler, A. Michelides                                 |
|          Phys. Rev. B. 83, 195131 (2011)                                    |
|     and references therein.                                                 |
|                                                                             |
 -----------------------------------------------------------------------------

 POTCAR:    PAW_PBE C_h 06Feb2004                 
   VRHFIN =C: s2p2                                                                                  
   LEXCH  = PE                                                                                      
   EATOM  =   147.1560 eV,   10.8157 Ry                                                             
                                                                                                    
   TITEL  = PAW_PBE C_h 06Feb2004                                                                   
   LULTRA =        F    use ultrasoft PP ?                                                          
   IUNSCR =        1    unscreen: 0-lin 1-nonlin 2-no                                               
   RPACOR =    0.800    partial core radius                                                         
   POMASS =   12.011; ZVAL   =    4.000    mass and valenz                                          
   RCORE  =    1.100    outmost cutoff radius                                                       
   RWIGS  =    1.630; RWIGS  =    0.863    wigner-seitz radius (au A)                               
   ENMAX  =  700.000; ENMIN  =  500.000 eV                                                          
   ICORE  =        2    local potential                                                             
   LCOR   =        T    correct aug charges                                                         
   LPAW   =        T    paw PP                                                                      
   EAUG   =  946.768                                                                                
   DEXC   =    0.000                                                                                
   RMAX   =    1.128    core radius for proj-oper                                                   
   RAUG   =    1.300    factor for augmentation sphere                                              
   RDEP   =    1.162    radius for radial grids                                                     
   RDEPT  =    1.088    core radius for aug-charge                                                  
                                                                                                    
   Atomic configuration                                                                             
    4 entries                                                                                       
     n  l   j            E        occ.                                                              
     1  0  0.50      -273.3789   2.0000                                                             
     2  0  0.50       -13.7508   2.0000                                                             
     2  1  0.50        -5.2854   2.0000                                                             
     3  2  1.50        -5.4423   0.0000                                                             
   Description                                                                                      
     l       E           TYP  RCUT    TYP  RCUT                                                     
     0    -13.7508458     23  1.100                                                                 
     0     -8.2022199     23  1.100                                                                 
     1     -5.2854383     23  1.100                                                                 
     1      1.1560700     23  1.100                                                                 
     2     -5.4423304      7  1.100                                                                 
  local pseudopotential read in
  partial core-charges read in
  partial kinetic energy density read in
  atomic valenz-charges read in
  non local Contribution for L=           0  read in
    real space projection operators read in
  non local Contribution for L=           0  read in
    real space projection operators read in
  non local Contribution for L=           1  read in
    real space projection operators read in
  non local Contribution for L=           1  read in
    real space projection operators read in
    PAW grid and wavefunctions read in
 
   number of l-projection  operators is LMAX  =           4
   number of lm-projection operators is LMMAX =           8
 
 POTCAR:    PAW_PBE O_h 06Feb2004                 
   VRHFIN =O: s2p4                                                                                  
   LEXCH  = PE                                                                                      
   EATOM  =   432.3788 eV,   31.7789 Ry                                                             
                                                                                                    
   TITEL  = PAW_PBE O_h 06Feb2004                                                                   
   LULTRA =        F    use ultrasoft PP ?                                                          
   IUNSCR =        1    unscreen: 0-lin 1-nonlin 2-no                                               
   RPACOR =    0.800    partial core radius                                                         
   POMASS =   16.000; ZVAL   =    6.000    mass and valenz                                          
   RCORE  =    1.100    outmost cutoff radius                                                       
   RWIGS  =    1.400; RWIGS  =    0.741    wigner-seitz radius (au A)                               
   ENMAX  =  700.000; ENMIN  =  500.000 eV                                                          
   ICORE  =        2    local potential                                                             
   LCOR   =        T    correct aug charges                                                         
   LPAW   =        T    paw PP                                                                      
   EAUG   =  888.804                                                                                
   DEXC   =    0.000                                                                                
   RMAX   =    1.128    core radius for proj-oper                                                   
   RAUG   =    1.300    factor for augmentation sphere                                              
   RDEP   =    1.125    radius for radial grids                                                     
   RDEPT  =    1.088    core radius for aug-charge                                                  
                                                                                                    
   Atomic configuration                                                                             
    4 entries                                                                                       
     n  l   j            E        occ.                                                              
     1  0  0.50      -514.6923   2.0000                                                             
     2  0  0.50       -23.9615   2.0000                                                             
     2  1  0.50        -9.0305   4.0000                                                             
     3  2  1.50        -9.5241   0.0000                                                             
   Description                                                                                      
     l       E           TYP  RCUT    TYP  RCUT                                                     
     0    -23.9615319     23  1.100                                                                 
     0    -25.3221145     23  1.100                                                                 
     1     -9.0304911     23  1.100                                                                 
     1     -5.4802209     23  1.100                                                                 
     2     -9.5240782      7  1.100                                                                 
  local pseudopotential read in
  partial core-charges read in
  partial kinetic energy density read in
  atomic valenz-charges read in
  non local Contribution for L=           0  read in
    real space projection operators read in
  non local Contribution for L=           0  read in
    real space projection operators read in
  non local Contribution for L=           1  read in
    real space projection operators read in
  non local Contribution for L=           1  read in
    real space projection operators read in
    PAW grid and wavefunctions read in
 
   number of l-projection  operators is LMAX  =           4
   number of lm-projection operators is LMMAX =           8
 
 -----------------------------------------------------------------------------
|                                                                             |
|               ----> ADVICE to this user running VASP <----                  |
|                                                                             |
|     You have a (more or less) 'large supercell' and for larger cells it     |
|     might be more efficient to use real-space projection operators.         |
|     Therefore, try LREAL= Auto in the INCAR file.                           |
|     Mind: For very accurate calculation, you might also keep the            |
|     reciprocal projection scheme (i.e. LREAL=.FALSE.).                      |
|                                                                             |
 -----------------------------------------------------------------------------

  PAW_PBE C_h 06Feb2004                 :
 energy of atom  1       EATOM= -147.1560
 kinetic energy error for atom=    0.0031 (will be added to EATOM!!)
  PAW_PBE O_h 06Feb2004                 :
 energy of atom  2       EATOM= -432.3788
 kinetic energy error for atom=    0.0171 (will be added to EATOM!!)
 
 
 POSCAR:  C  O
  positions in cartesian coordinates
  No initial velocities read in

 METAGGA = SCAN     LMAXTAU =  6    LMIXTAU =  F

 exchange correlation table for  LEXCH =        8
   RHO(1)=    0.500       N(1)  =     2000
   RHO(2)=  100.500       N(2)  =     4000
 


--------------------------------------------------------------------------------------------------------


 ion  position               nearest neighbor table
   1  0.972  0.000  0.001-  50 1.42   2 1.42  42 1.42
   2  0.039  0.134  0.000-   5 1.42   7 1.42   1 1.42
   3  0.172  0.000  0.000-  42 1.42  44 1.42   4 1.42
   4  0.239  0.134  0.000-   7 1.42   3 1.42  23 1.42
   5  0.972  0.200  0.000-   6 1.42   2 1.42  34 1.42
   6  0.039  0.334  0.000-   5 1.42  21 1.42  11 1.42
   7  0.172  0.200  0.000-   8 1.42   2 1.42   4 1.42
   8  0.239  0.334  0.000-  13 1.42   7 1.42  21 1.42
   9  0.372  0.000  0.000-  10 1.42  44 1.42  46 1.42
  10  0.439  0.134  0.000-  27 1.42   9 1.42  23 1.42
  11  0.972  0.400  0.001-  12 1.42  36 1.42   6 1.42
  12  0.039  0.534  0.001-  25 1.42  11 1.42  17 1.42
  13  0.372  0.400  0.000-   8 1.42  14 1.42  24 1.42
  14  0.439  0.534  0.000-  13 1.42  29 1.42  19 1.42
  15  0.572  0.000  0.001-  46 1.42  16 1.42  48 1.42
  16  0.639  0.134  0.001-  15 1.42  35 1.42  27 1.42
  17  0.972  0.600  0.001-  38 1.42  18 1.42  12 1.42
  18  0.039  0.734  0.001-  43 1.42  41 1.42  17 1.42
  19  0.572  0.600  0.000-  14 1.42  20 1.42  32 1.42
  20  0.639  0.734  0.001-  49 1.42  19 1.42  47 1.42
  21  0.172  0.400  0.000-  22 1.42   8 1.42   6 1.42
  22  0.239  0.534  0.000-  21 1.42  29 1.42  25 1.42
  23  0.372  0.200  0.000-  10 1.42   4 1.42  24 1.42
  24  0.439  0.334  0.000-  13 1.42  31 1.42  23 1.42
  25  0.172  0.600  0.001-  26 1.42  12 1.42  22 1.42
  26  0.239  0.734  0.001-  25 1.42  45 1.42  43 1.42
  27  0.572  0.200  0.000-  10 1.42  28 1.42  16 1.42
  28  0.639  0.334  0.000-  27 1.42  37 1.42  31 1.42
  29  0.372  0.600  0.000-  22 1.42  14 1.42  30 1.42
  30  0.439  0.734  0.000-  47 1.42  29 1.42  45 1.42
  31  0.572  0.400  0.000-  32 1.42  28 1.42  24 1.42
  32  0.639  0.534  0.000-  31 1.42  39 1.42  19 1.42
  33  0.772  0.000  0.001-  34 1.42  48 1.42  50 1.42
  34  0.839  0.134  0.001-  33 1.42   5 1.42  35 1.42
  35  0.772  0.200  0.001-  36 1.42  16 1.42  34 1.42
  36  0.839  0.334  0.001-  35 1.42  11 1.42  37 1.42
  37  0.772  0.400  0.001-  28 1.42  38 1.42  36 1.42
  38  0.839  0.534  0.001-  17 1.42  37 1.42  39 1.42
  39  0.772  0.600  0.001-  40 1.42  38 1.42  32 1.42
  40  0.839  0.734  0.001-  39 1.42  49 1.42  41 1.42
  41  0.972  0.800  0.001-  18 1.42  42 1.42  40 1.42
  42  0.039  0.934  0.001-   3 1.42  41 1.42   1 1.42
  43  0.172  0.800  0.001-  18 1.42  44 1.42  26 1.42
  44  0.239  0.934  0.001-   9 1.42  43 1.42   3 1.42
  45  0.372  0.800  0.001-  26 1.42  46 1.42  30 1.42
  46  0.439  0.934  0.001-  15 1.42  45 1.42   9 1.42
  47  0.572  0.800  0.001-  30 1.42  48 1.42  20 1.42
  48  0.639  0.934  0.001-  47 1.42  33 1.42  15 1.42
  49  0.772  0.800  0.001-  50 1.42  20 1.42  40 1.42
  50  0.839  0.934  0.001-  49 1.42   1 1.42  33 1.42
  51  0.373  0.251  0.378-  52 1.18  53 1.18
  52  0.421  0.189  0.380-  51 1.18
  53  0.325  0.313  0.375-  51 1.18
 
  LATTYP: Found a hexagonal cell.
 ALAT       =    12.3250000000
 C/A-ratio  =     2.0283975659
  
  Lattice vectors:
  
 A1 = (  12.3250000000,   0.0000000000,   0.0000000000)
 A2 = (  -6.1625000000,  10.6737631016,   0.0000000000)
 A3 = (   0.0000000000,   0.0000000000,  25.0000000000)


Analysis of symmetry for initial positions (statically):
=====================================================================
 Subroutine PRICEL returns:
 Original cell was already a primitive cell.
 

 Routine SETGRP: Setting up the symmetry group for a 
 hexagonal supercell.


 Subroutine GETGRP returns: Found  1 space group operations
 (whereof  1 operations were pure point group operations)
 out of a pool of 24 trial point group operations.


The static configuration has the point symmetry C_1 .


Analysis of symmetry for dynamics (positions and initial velocities):
=====================================================================
 Subroutine PRICEL returns:
 Original cell was already a primitive cell.
 

 Routine SETGRP: Setting up the symmetry group for a 
 hexagonal supercell.


 Subroutine GETGRP returns: Found  1 space group operations
 (whereof  1 operations were pure point group operations)
 out of a pool of 24 trial point group operations.


The dynamic configuration has the point symmetry C_1 .


 Subroutine INISYM returns: Found  1 space group operations
 (whereof  1 operations are pure point group operations),
 and found     1 'primitive' translations


----------------------------------------------------------------------------------------

                                     Primitive cell                                     

  volume of cell :    3288.8533

  direct lattice vectors                    reciprocal lattice vectors
    12.325000000  0.000000000  0.000000000     0.081135903  0.046843835  0.000000000
    -6.162500000 10.673763102  0.000000000     0.000000000  0.093687670  0.000000000
     0.000000000  0.000000000 25.000000000     0.000000000  0.000000000  0.040000000

  length of vectors
    12.325000000 12.325000000 25.000000000     0.093687670  0.093687670  0.040000000

  position of ions in fractional coordinates (direct lattice)
     0.972450841  0.000320818  0.000566711
     0.039118382  0.133659505  0.000440173
     0.172443627  0.000295449  0.000499628
     0.239096278  0.133647917  0.000256468
     0.972452058  0.200322012  0.000485219
     0.039128360  0.333643771  0.000444150
     0.172451764  0.200354552  0.000219167
     0.239124359  0.333665720  0.000072260
     0.372465565  0.000324403  0.000453913
     0.439137473  0.133619939  0.000258338
     0.972449824  0.400309362  0.000547611
     0.039124981  0.533636789  0.000573410
     0.372416176  0.400329481  0.000000000
     0.439099602  0.533638981  0.000232414
     0.572443676  0.000312125  0.000559580
     0.639110207  0.133631751  0.000547275
     0.972452703  0.600305653  0.000640289
     0.039124495  0.733640359  0.000654513
     0.572433471  0.600306242  0.000402895
     0.639111888  0.733641879  0.000527905
     0.172454630  0.400318228  0.000289045
     0.239120185  0.533636548  0.000378509
     0.372459750  0.200295993  0.000088997
     0.439107096  0.333673419  0.000055762
     0.172452155  0.600311506  0.000524340
     0.239123371  0.733638574  0.000575129
     0.572431082  0.200289171  0.000413296
     0.639112773  0.333618630  0.000462376
     0.372439808  0.600308022  0.000362844
     0.439116090  0.733637858  0.000494190
     0.572469358  0.400320504  0.000339918
     0.639119408  0.533650873  0.000459610
     0.772445723  0.000315427  0.000596161
     0.839116277  0.133640203  0.000575306
     0.772440513  0.200307432  0.000581033
     0.839120241  0.333635728  0.000585467
     0.772446320  0.400298367  0.000582978
     0.839118980  0.533633964  0.000621100
     0.772456143  0.600308173  0.000595712
     0.839115033  0.733643180  0.000631512
     0.972455313  0.800305582  0.000652233
     0.039114714  0.933643289  0.000598051
     0.172457971  0.800312211  0.000623372
     0.239134551  0.933647193  0.000544850
     0.372451396  0.800316674  0.000551399
     0.439124489  0.933644769  0.000541430
     0.572441101  0.800310054  0.000534535
     0.639115067  0.933638985  0.000587644
     0.772445098  0.800313187  0.000602062
     0.839116614  0.933644338  0.000606830
     0.373021009  0.251226878  0.377549725
     0.420879805  0.189313152  0.380126600
     0.325156981  0.313167186  0.375171530

  ion indices of the primitive-cell ions
   primitive index   ion index
                 1           1
                 2           2
                 3           3
                 4           4
                 5           5
                 6           6
                 7           7
                 8           8
                 9           9
                10          10
                11          11
                12          12
                13          13
                14          14
                15          15
                16          16
                17          17
                18          18
                19          19
                20          20
                21          21
                22          22
                23          23
                24          24
                25          25
                26          26
                27          27
                28          28
                29          29
                30          30
                31          31
                32          32
                33          33
                34          34
                35          35
                36          36
                37          37
                38          38
                39          39
                40          40
                41          41
                42          42
                43          43
                44          44
                45          45
                46          46
                47          47
                48          48
                49          49
                50          50
                51          51
                52          52
                53          53

----------------------------------------------------------------------------------------

 
 
 KPOINTS: auto                                    

Automatic generation of k-mesh.
 Grid dimensions read from file:
 generate k-points for:    1    1    1

 Generating k-lattice:

  Cartesian coordinates                     Fractional coordinates (reciprocal lattice)
     0.081135903  0.046843835  0.000000000     1.000000000 -0.000000000  0.000000000
     0.000000000  0.093687670  0.000000000     0.000000000  1.000000000  0.000000000
     0.000000000  0.000000000  0.040000000     0.000000000  0.000000000  1.000000000

  Length of vectors
     0.093687670  0.093687670  0.040000000

  Shift w.r.t. Gamma in fractional coordinates (k-lattice)
     0.000000000  0.000000000  0.000000000

 
 Subroutine IBZKPT returns following result:
 ===========================================
 
 Found      1 irreducible k-points:
 
 Following reciprocal coordinates:
            Coordinates               Weight
  0.000000  0.000000  0.000000      1.000000
 
 Following cartesian coordinates:
            Coordinates               Weight
  0.000000  0.000000  0.000000      1.000000
 


--------------------------------------------------------------------------------------------------------




 Dimension of arrays:
   k-points           NKPTS =      1   k-points in BZ     NKDIM =      1   number of bands    NBANDS=    168
   number of dos      NEDOS =    301   number of ions     NIONS =     53
   non local maximal  LDIM  =      4   non local SUM 2l+1 LMDIM =      8
   total plane-waves  NPLWV = ******
   max r-space proj   IRMAX =      1   max aug-charges    IRDMAX=  10008
   dimension x,y,z NGX =   128 NGY =  128 NGZ =  270
   dimension x,y,z NGXF=   256 NGYF=  256 NGZF=  540
   support grid    NGXF=   256 NGYF=  256 NGZF=  540
   ions per type =              51   2
   NGX,Y,Z   is equivalent  to a cutoff of  17.27, 17.27, 17.95 a.u.
   NGXF,Y,Z  is equivalent  to a cutoff of  34.53, 34.53, 35.91 a.u.

 SYSTEM =  unknown system                          
 POSCAR =   C  O                                   

 Startparameter for this run:
   NWRITE =      2    write-flag & timer
   PREC   = accura    normal or accurate (medium, high low for compatibility)
   ISTART =      0    job   : 0-new  1-cont  2-samecut
   ICHARG =      2    charge: 1-file 2-atom 10-const
   ISPIN  =      1    spin polarized calculation?
   LNONCOLLINEAR =      F non collinear calculations
   LSORBIT =      F    spin-orbit coupling
   INIWAV =      1    electr: 0-lowe 1-rand  2-diag
   LASPH  =      T    aspherical Exc in radial PAW
 Electronic Relaxation 1
   ENCUT  = 1000.0 eV  73.50 Ry    8.57 a.u.  31.78 31.78 64.46*2*pi/ulx,y,z
   ENINI  = 1000.0     initial cutoff
   ENAUG  =  946.8 eV  augmentation charge cutoff
   NELM   =    200;   NELMIN=  2; NELMDL= -5     # of ELM steps 
   EDIFF  = 0.1E-06   stopping-criterion for ELM
   LREAL  =      F    real-space projection
   NLSPLINE    = F    spline interpolate recip. space projectors
   LCOMPAT=      F    compatible to vasp.4.4
   GGA_COMPAT  = T    GGA compatible to vasp.4.4-vasp.4.6
   LMAXPAW     = -100 max onsite density
   LMAXMIX     =    2 max onsite mixed and CHGCAR
   VOSKOWN=      0    Vosko Wilk Nusair interpolation
   ROPT   =    0.00000   0.00000
 Ionic relaxation
   EDIFFG = 0.1E-05   stopping-criterion for IOM
   NSW    =      0    number of steps for IOM
   NBLOCK =      1;   KBLOCK =      1    inner block; outer block 
   IBRION =     -1    ionic relax: 0-MD 1-quasi-New 2-CG
   NFREE  =      0    steps in history (QN), initial steepest desc. (CG)
   ISIF   =      0    stress and relaxation
   IWAVPR =     10    prediction:  0-non 1-charg 2-wave 3-comb
   ISYM   =      2    0-nonsym 1-usesym 2-fastsym
   LCORR  =      T    Harris-Foulkes like correction to forces

   POTIM  = 0.5000    time-step for ionic-motion
   TEIN   =    0.0    initial temperature
   TEBEG  =    0.0;   TEEND  =   0.0 temperature during run
   SMASS  =  -3.00    Nose mass-parameter (am)
   estimated Nose-frequenzy (Omega)   =  0.10E-29 period in steps = 0.13E+47 mass=  -0.347E-26a.u.
   SCALEE = 1.0000    scale energy and forces
   NPACO  =    256;   APACO  = 16.0  distance and # of slots for P.C.
   PSTRESS=    0.0 pullay stress

  Mass of Ions in am
   POMASS =  12.01 16.00
  Ionic Valenz
   ZVAL   =   4.00  6.00
  Atomic Wigner-Seitz radii
   RWIGS  =  -1.00 -1.00
  virtual crystal weights 
   VCA    =   1.00  1.00
   NELECT =     216.0000    total number of electrons
   NUPDOWN=      -1.0000    fix difference up-down

 DOS related values:
   EMIN   =  10.00;   EMAX   =-10.00  energy-range for DOS
   EFERMI =   0.00
   ISMEAR =     0;   SIGMA  =   0.01  broadening in eV -4-tet -1-fermi 0-gaus

 Electronic relaxation 2 (details)
   IALGO  =     58    algorithm
   LDIAG  =      T    sub-space diagonalisation (order eigenvalues)
   LSUBROT=      F    optimize rotation matrix (better conditioning)
   TURBO    =      0    0=normal 1=particle mesh
   IRESTART =      0    0=no restart 2=restart with 2 vectors
   NREBOOT  =      0    no. of reboots
   NMIN     =      0    reboot dimension
   EREF     =   0.00    reference energy to select bands
   IMIX   =      4    mixing-type and parameters
     AMIX     =   0.40;   BMIX     =  1.00
     AMIX_MAG =   1.60;   BMIX_MAG =  1.00
     AMIN     =   0.10
     WC   =   100.;   INIMIX=   1;  MIXPRE=   1;  MAXMIX= -45

 Intra band minimization:
   WEIMIN = 0.0000     energy-eigenvalue tresh-hold
   EBREAK =  0.15E-09  absolut break condition
   DEPER  =   0.30     relativ break condition  

   TIME   =   0.40     timestep for ELM

  volume/ion in A,a.u.               =      62.05       418.76
  Fermi-wavevector in a.u.,A,eV,Ry     =   0.660508  1.248179  5.935820  0.436270
  Thomas-Fermi vector in A             =   1.732977
 
 Write flags
   LWAVE        =      T    write WAVECAR
   LDOWNSAMPLE  =      F    k-point downsampling of WAVECAR
   LCHARG       =      T    write CHGCAR
   LVTOT        =      F    write LOCPOT, total local potential
   LVHAR        =      F    write LOCPOT, Hartree potential only
   LELF         =      F    write electronic localiz. function (ELF)
   LORBIT       =      0    0 simple, 1 ext, 2 COOP (PROOUT), +10 PAW based schemes


 Dipole corrections
   LMONO  =      F    monopole corrections only (constant potential shift)
   LDIPOL =      F    correct potential (dipole corrections)
   IDIPOL =      0    1-x, 2-y, 3-z, 4-all directions 
   EPSILON=  1.0000000 bulk dielectric constant

 Exchange correlation treatment:
   GGA     =    --    GGA type
   LEXCH   =     8    internal setting for exchange type
   VOSKOWN=      0    Vosko Wilk Nusair interpolation
   LHFCALC =     F    Hartree Fock is set to
   LHFONE  =     F    Hartree Fock one center treatment
   AEXX    =    0.0000 exact exchange contribution

 vdW DFT:
   LUSE_VDW   =     T    switch on vdW DFT
   Zab_VDW    =-.8491    correlation parameter
   PARAM1     =0.1234
   PARAM2     =1.0000
   PARAM3     =0.0000
   -- rVV10 --
   BPARAM     =15.7000
   CPARAM     = 0.0093

 Linear response parameters
   LEPSILON=     F    determine dielectric tensor
   LRPA    =     F    only Hartree local field effects (RPA)
   LNABLA  =     F    use nabla operator in PAW spheres
   LVEL    =     F    velocity operator in full k-point grid
   LINTERFAST=   F  fast interpolation
   KINTER  =     0    interpolate to denser k-point grid
   CSHIFT  =0.1000    complex shift for real part using Kramers Kronig
   OMEGAMAX=  -1.0    maximum frequency
   DEG_THRESHOLD= 0.2000000E-02 threshold for treating states as degnerate
   RTIME   =   -0.100 relaxation time in fs
  (WPLASMAI=    0.000 imaginary part of plasma frequency in eV, 0.658/RTIME)
   DFIELD  = 0.0000000 0.0000000 0.0000000 field for delta impulse in time
 
 Orbital magnetization related:
   ORBITALMAG=     F  switch on orbital magnetization
   LCHIMAG   =     F  perturbation theory with respect to B field
   DQ        =  0.001000  dq finite difference perturbation B field
   LLRAUG    =     F  two centre corrections for induced B field



--------------------------------------------------------------------------------------------------------


 Static calculation
 charge density and potential will be updated during run
 non-spin polarized calculation
 Conjugate gradient for all bands (Freysoldt, et al. PRB 79, 241103 (2009))
 preconditioned conjugated gradient                                        
 perform sub-space diagonalisation
    before iterative eigenvector-optimisation
 modified Broyden-mixing scheme, WC =      100.0
 initial mixing is a Kerker type mixing with AMIX =  0.4000 and BMIX =      1.0000
 Hartree-type preconditioning will be used
 using additional bands           60
 reciprocal scheme for non local part
 use partial core corrections
 no Harris-corrections to forces 
 use gradient corrections 
 use of overlap-Matrix (Vanderbilt PP)
 Gauss-broadening in eV      SIGMA  =   0.01


--------------------------------------------------------------------------------------------------------


  energy-cutoff  :     1000.00
  volume of cell :     3288.85
      direct lattice vectors                 reciprocal lattice vectors
    12.325000000  0.000000000  0.000000000     0.081135903  0.046843835  0.000000000
    -6.162500000 10.673763102  0.000000000     0.000000000  0.093687670  0.000000000
     0.000000000  0.000000000 25.000000000     0.000000000  0.000000000  0.040000000

  length of vectors
    12.325000000 12.325000000 25.000000000     0.093687670  0.093687670  0.040000000


 
 k-points in units of 2pi/SCALE and weight: auto                                    
   0.00000000  0.00000000  0.00000000       1.000
 
 k-points in reciprocal lattice and weights: auto                                    
   0.00000000  0.00000000  0.00000000       1.000
 
 position of ions in fractional coordinates (direct lattice) 
   0.97245084  0.00032082  0.00056671
   0.03911838  0.13365950  0.00044017
   0.17244363  0.00029545  0.00049963
   0.23909628  0.13364792  0.00025647
   0.97245206  0.20032201  0.00048522
   0.03912836  0.33364377  0.00044415
   0.17245176  0.20035455  0.00021917
   0.23912436  0.33366572  0.00007226
   0.37246557  0.00032440  0.00045391
   0.43913747  0.13361994  0.00025834
   0.97244982  0.40030936  0.00054761
   0.03912498  0.53363679  0.00057341
   0.37241618  0.40032948  0.00000000
   0.43909960  0.53363898  0.00023241
   0.57244368  0.00031213  0.00055958
   0.63911021  0.13363175  0.00054727
   0.97245270  0.60030565  0.00064029
   0.03912449  0.73364036  0.00065451
   0.57243347  0.60030624  0.00040289
   0.63911189  0.73364188  0.00052791
   0.17245463  0.40031823  0.00028904
   0.23912018  0.53363655  0.00037851
   0.37245975  0.20029599  0.00008900
   0.43910710  0.33367342  0.00005576
   0.17245216  0.60031151  0.00052434
   0.23912337  0.73363857  0.00057513
   0.57243108  0.20028917  0.00041330
   0.63911277  0.33361863  0.00046238
   0.37243981  0.60030802  0.00036284
   0.43911609  0.73363786  0.00049419
   0.57246936  0.40032050  0.00033992
   0.63911941  0.53365087  0.00045961
   0.77244572  0.00031543  0.00059616
   0.83911628  0.13364020  0.00057531
   0.77244051  0.20030743  0.00058103
   0.83912024  0.33363573  0.00058547
   0.77244632  0.40029837  0.00058298
   0.83911898  0.53363396  0.00062110
   0.77245614  0.60030817  0.00059571
   0.83911503  0.73364318  0.00063151
   0.97245531  0.80030558  0.00065223
   0.03911471  0.93364329  0.00059805
   0.17245797  0.80031221  0.00062337
   0.23913455  0.93364719  0.00054485
   0.37245140  0.80031667  0.00055140
   0.43912449  0.93364477  0.00054143
   0.57244110  0.80031005  0.00053453
   0.63911507  0.93363899  0.00058764
   0.77244510  0.80031319  0.00060206
   0.83911661  0.93364434  0.00060683
   0.37302101  0.25122688  0.37754973
   0.42087980  0.18931315  0.38012660
   0.32515698  0.31316719  0.37517153
 
 position of ions in cartesian coordinates  (Angst):
  11.98347958  0.00342433  0.01416777
  -0.34154264  1.42664989  0.01100432
   2.12354700  0.00315355  0.01249070
   2.12325634  1.42652621  0.00641170
  10.75098721  2.13818970  0.01213047
  -1.57382270  3.56123457  0.01110375
   0.89078307  2.13853702  0.00547917
   0.89099273  3.56146885  0.00180651
   4.58863896  0.00346260  0.01134782
   4.58893648  1.42622757  0.00645846
   9.51853763  4.27280730  0.01369027
  -2.80632132  5.69591267  0.01433526
   2.12299894  4.27302204  0.00000000
   2.12335237  5.69593607  0.00581036
   7.05344483  0.00333155  0.01398950
   7.05352764  1.42635365  0.01368187
   8.28609598  6.40752033  0.01600723
  -4.03884931  7.83070339  0.01636283
   3.35585531  6.40752662  0.01007237
   3.35598594  7.83071962  0.01319763
  -0.34145776  4.27290193  0.00722612
  -0.34137895  5.69591010  0.00946273
   3.35624236  2.13791198  0.00222492
   3.35573251  3.56155103  0.00139405
  -1.57394684  6.40758280  0.01310850
  -1.57385216  7.83068434  0.01437823
   5.82093107  2.13783916  0.01033241
   5.82114012  3.56096622  0.01155939
   0.89092245  6.40754561  0.00907111
   0.89106251  7.83067670  0.01235474
   4.58870974  4.27292622  0.00849795
   4.58852320  5.69606300  0.01149026
   9.51844972  0.00336679  0.01490402
   9.51855036  1.42644387  0.01438264
   8.28593477  2.13803408  0.01452582
   8.28612680  3.56114872  0.01463668
   7.05356221  4.27268994  0.01457444
   7.05362213  5.69588251  0.01552751
   5.82112285  6.40754723  0.01489279
   5.82101669  7.83073350  0.01578780
   7.05362858  8.54227219  0.01630582
  -5.27148792  9.96548729  0.01495127
  -2.80637951  8.54234295  0.01558431
  -2.80626749  9.96552896  0.01362126
  -0.34148805  8.54239058  0.01378498
  -0.34137657  9.96550309  0.01353576
   2.12342586  8.54231992  0.01336337
   2.12354296  9.96544135  0.01469111
   4.58845581  8.54235337  0.01505154
   4.58852904  9.96549848  0.01517076
   3.04929830  2.68153618  9.43874313
   4.02070129  2.02068374  9.50316499
   2.07766701  3.34267235  9.37928826
 


--------------------------------------------------------------------------------------------------------


 k-point   1 :   0.0000 0.0000 0.0000  plane waves:  236157

 maximum and minimum number of plane-waves per node :    236157   236157

 maximum number of plane-waves:    236157
 maximum index in each direction: 
   IXMAX=   31   IYMAX=   31   IZMAX=   64
   IXMIN=  -31   IYMIN=  -31   IZMIN=  -64


 serial   3D FFT for wavefunctions
 parallel 3D FFT for charge:
    minimum data exchange during FFTs selected (reduces bandwidth)


 total amount of memory used by VASP MPI-rank0   698619. kBytes
=======================================================================

   base      :      30000. kBytes
   nonl-proj :     230539. kBytes
   fftplans  :      40716. kBytes
   grid      :     363125. kBytes
   one-center:        162. kBytes
   wavefun   :      34077. kBytes
 
     INWAV:  cpu time    0.0000: real time    0.0000
 Broyden mixing: mesh for mixing (old mesh)
   NGX = 63   NGY = 63   NGZ =129
  (NGX  =256   NGY  =256   NGZ  =540)
  gives a total of 512001 points

 initial charge density was supplied:
 charge density of overlapping atoms calculated
 number of electron     216.0000000 magnetization 
 keeping initial charge density in first step


--------------------------------------------------------------------------------------------------------


 Maximum index for augmentation-charges          471 (set IRDMAX)


--------------------------------------------------------------------------------------------------------


 First call to EWALD:  gamma=   0.119
 Maximum number of real-space cells 4x 4x 2
 Maximum number of reciprocal cells 2x 2x 4

    FEWALD:  cpu time    0.0065: real time    0.0065


--------------------------------------- Iteration      1(   1)  ---------------------------------------


    POTLOK:  cpu time    8.5199: real time    8.5793
    SETDIJ:  cpu time    0.0033: real time    0.0033
    TRIAL :  cpu time   31.6107: real time   31.8872
    CORREC:  cpu time    0.0005: real time    0.0007
    --------------------------------------------
      LOOP:  cpu time   40.1527: real time   40.4924

 eigenvalue-minimisations  :   336
 total energy-change (2. order) : 0.2533404E+04  (-0.1080252E+05)
 number of electron     216.0000000 magnetization 
 augmentation part      216.0000000 magnetization 

 Free energy of the ion-electron system (eV)
  ---------------------------------------------------
  alpha Z        PSCENC =        47.94900195
  Ewald energy   TEWEN  =     40658.92799854
  -Hartree energ DENC   =    -46728.16613704
  -exchange      EXHF   =         0.00000000
  -V(xc)+E(xc)   XCENC  =       604.23834504
  PAW double counting   =      6339.73130699    -6197.22120962
  entropy T*S    EENTRO =        -0.00000000
  eigenvalues    EBANDS =      -561.57922562
  atomic energy  EATOM  =      8369.52358910
  ---------------------------------------------------
  free energy    TOTEN  =      2533.40366935 eV

  energy without entropy =     2533.40366935  energy(sigma->0) =     2533.40366935


--------------------------------------------------------------------------------------------------------




--------------------------------------- Iteration      1(   2)  ---------------------------------------


    TRIAL :  cpu time   51.6190: real time   52.0108
    CORREC:  cpu time    0.0001: real time    0.0001
    --------------------------------------------
      LOOP:  cpu time   51.7290: real time   52.1252

 eigenvalue-minimisations  :   672
 total energy-change (2. order) :-0.2531211E+04  (-0.2413056E+04)
 number of electron     216.0000000 magnetization 
 augmentation part      216.0000000 magnetization 

 Free energy of the ion-electron system (eV)
  ---------------------------------------------------
  alpha Z        PSCENC =        47.94900195
  Ewald energy   TEWEN  =     40658.92799854
  -Hartree energ DENC   =    -46728.16613704
  -exchange      EXHF   =         0.00000000
  -V(xc)+E(xc)   XCENC  =       604.23834504
  PAW double counting   =      6339.73130699    -6197.22120962
  entropy T*S    EENTRO =        -0.00000000
  eigenvalues    EBANDS =     -3092.79063622
  atomic energy  EATOM  =      8369.52358910
  ---------------------------------------------------
  free energy    TOTEN  =         2.19225875 eV

  energy without entropy =        2.19225875  energy(sigma->0) =        2.19225875


--------------------------------------------------------------------------------------------------------




--------------------------------------- Iteration      1(   3)  ---------------------------------------


    TRIAL :  cpu time   34.8653: real time   35.1866
    CORREC:  cpu time    0.0001: real time    0.0001
    --------------------------------------------
      LOOP:  cpu time   34.9308: real time   35.2528

 eigenvalue-minimisations  :   392
 total energy-change (2. order) :-0.5866810E+03  (-0.5839579E+03)
 number of electron     216.0000000 magnetization 
 augmentation part      216.0000000 magnetization 

 Free energy of the ion-electron system (eV)
  ---------------------------------------------------
  alpha Z        PSCENC =        47.94900195
  Ewald energy   TEWEN  =     40658.92799854
  -Hartree energ DENC   =    -46728.16613704
  -exchange      EXHF   =         0.00000000
  -V(xc)+E(xc)   XCENC  =       604.23834504
  PAW double counting   =      6339.73130699    -6197.22120962
  entropy T*S    EENTRO =        -0.00000000
  eigenvalues    EBANDS =     -3679.47160357
  atomic energy  EATOM  =      8369.52358910
  ---------------------------------------------------
  free energy    TOTEN  =      -584.48870860 eV

  energy without entropy =     -584.48870860  energy(sigma->0) =     -584.48870860


--------------------------------------------------------------------------------------------------------




--------------------------------------- Iteration      1(   4)  ---------------------------------------


    TRIAL :  cpu time   38.2773: real time   38.5672
    CORREC:  cpu time    0.0001: real time    0.0001
    --------------------------------------------
      LOOP:  cpu time   38.3240: real time   38.6206

 eigenvalue-minimisations  :   448
 total energy-change (2. order) :-0.2980027E+02  (-0.2955920E+02)
 number of electron     216.0000000 magnetization 
 augmentation part      216.0000000 magnetization 

 Free energy of the ion-electron system (eV)
  ---------------------------------------------------
  alpha Z        PSCENC =        47.94900195
  Ewald energy   TEWEN  =     40658.92799854
  -Hartree energ DENC   =    -46728.16613704
  -exchange      EXHF   =         0.00000000
  -V(xc)+E(xc)   XCENC  =       604.23834504
  PAW double counting   =      6339.73130699    -6197.22120962
  entropy T*S    EENTRO =        -0.00000000
  eigenvalues    EBANDS =     -3709.27187418
  atomic energy  EATOM  =      8369.52358910
  ---------------------------------------------------
  free energy    TOTEN  =      -614.28897921 eV

  energy without entropy =     -614.28897921  energy(sigma->0) =     -614.28897921


--------------------------------------------------------------------------------------------------------




--------------------------------------- Iteration      1(   5)  ---------------------------------------


    TRIAL :  cpu time   34.8866: real time   35.1755
    CORREC:  cpu time    0.0001: real time    0.0001
    CHARGE:  cpu time    3.2569: real time    3.2919
    --------------------------------------------
      LOOP:  cpu time   38.1636: real time   38.5033

 eigenvalue-minimisations  :   392
 total energy-change (2. order) :-0.1022546E+01  (-0.1020917E+01)
 number of electron     216.0000000 magnetization 
 augmentation part       -0.4319104 magnetization 

 Free energy of the ion-electron system (eV)
  ---------------------------------------------------
  alpha Z        PSCENC =        47.94900195
  Ewald energy   TEWEN  =     40658.92799854
  -Hartree energ DENC   =    -46728.16613704
  -exchange      EXHF   =         0.00000000
  -V(xc)+E(xc)   XCENC  =       604.23834504
  PAW double counting   =      6339.73130699    -6197.22120962
  entropy T*S    EENTRO =        -0.00000000
  eigenvalues    EBANDS =     -3710.29442037
  atomic energy  EATOM  =      8369.52358910
  ---------------------------------------------------
  free energy    TOTEN  =      -615.31152540 eV

  energy without entropy =     -615.31152540  energy(sigma->0) =     -615.31152540


--------------------------------------------------------------------------------------------------------




--------------------------------------- Iteration      1(   6)  ---------------------------------------


    POTLOK:  cpu time    8.3852: real time    8.4415
    SETDIJ:  cpu time    0.0018: real time    0.0018
    TRIAL :  cpu time   22.4002: real time   22.5860
    CORREC:  cpu time   16.1133: real time   16.2419
    CHARGE:  cpu time    3.2512: real time    3.2751
    --------------------------------------------
      LOOP:  cpu time   50.1593: real time   50.6099

 eigenvalue-minimisations  :     0
 total energy-change (2. order) : 0.1039327E+03  (-0.1202452E+02)
 number of electron     216.0000000 magnetization 
 augmentation part       -0.4913394 magnetization 

 Free energy of the ion-electron system (eV)
  ---------------------------------------------------
  alpha Z        PSCENC =        47.94900195
  Ewald energy   TEWEN  =     40658.92799854
  -Hartree energ DENC   =    -48084.90230859
  -exchange      EXHF   =         0.00000000
  -V(xc)+E(xc)   XCENC  =       671.01848091
  PAW double counting   =    113930.40470402  -113793.61175482
  entropy T*S    EENTRO =        -0.00000000
  eigenvalues    EBANDS =     -2310.68856377
  atomic energy  EATOM  =      8369.52358910
  ---------------------------------------------------
  free energy    TOTEN  =      -511.37885265 eV

  energy without entropy =     -511.37885265  energy(sigma->0) =     -511.37885265


--------------------------------------------------------------------------------------------------------




--------------------------------------- Iteration      1(   7)  ---------------------------------------


    POTLOK:  cpu time    8.3741: real time    8.4262
    SETDIJ:  cpu time    0.0018: real time    0.0018
    TRIAL :  cpu time   22.4262: real time   22.6038
    CORREC:  cpu time   16.1669: real time   16.2755
    CHARGE:  cpu time    3.2440: real time    3.2672
    --------------------------------------------
      LOOP:  cpu time   50.2696: real time   50.6380

 eigenvalue-minimisations  :     0
 total energy-change (2. order) :-0.1203963E+02  (-0.1581185E+01)
 number of electron     216.0000000 magnetization 
 augmentation part       -0.5219310 magnetization 

 Free energy of the ion-electron system (eV)
  ---------------------------------------------------
  alpha Z        PSCENC =        47.94900195
  Ewald energy   TEWEN  =     40658.92799854
  -Hartree energ DENC   =    -47658.70492983
  -exchange      EXHF   =         0.00000000
  -V(xc)+E(xc)   XCENC  =       651.20955723
  PAW double counting   =    131999.67759645  -131860.14629231
  entropy T*S    EENTRO =        -0.00000000
  eigenvalues    EBANDS =     -2731.85500537
  atomic energy  EATOM  =      8369.52358910
  ---------------------------------------------------
  free energy    TOTEN  =      -523.41848424 eV

  energy without entropy =     -523.41848424  energy(sigma->0) =     -523.41848424


--------------------------------------------------------------------------------------------------------




--------------------------------------- Iteration      1(   8)  ---------------------------------------


    POTLOK:  cpu time    8.3717: real time    8.4277
    SETDIJ:  cpu time    0.0018: real time    0.0018
    TRIAL :  cpu time   22.4315: real time   22.5984
    CORREC:  cpu time   16.1387: real time   16.2671
    CHARGE:  cpu time    3.2391: real time    3.2636
    --------------------------------------------
      LOOP:  cpu time   50.2103: real time   50.6075

 eigenvalue-minimisations  :     0
 total energy-change (2. order) :-0.1580963E+01  (-0.5224736E+00)
 number of electron     216.0000000 magnetization 
 augmentation part       -0.5200178 magnetization 

 Free energy of the ion-electron system (eV)
  ---------------------------------------------------
  alpha Z        PSCENC =        47.94900195
  Ewald energy   TEWEN  =     40658.92799854
  -Hartree energ DENC   =    -47627.31028264
  -exchange      EXHF   =         0.00000000
  -V(xc)+E(xc)   XCENC  =       649.59085603
  PAW double counting   =    139963.72629014  -139823.71312567
  entropy T*S    EENTRO =        -0.00000000
  eigenvalues    EBANDS =     -2763.69377494
  atomic energy  EATOM  =      8369.52358910
  ---------------------------------------------------
  free energy    TOTEN  =      -524.99944749 eV

  energy without entropy =     -524.99944749  energy(sigma->0) =     -524.99944749


--------------------------------------------------------------------------------------------------------




--------------------------------------- Iteration      1(   9)  ---------------------------------------


    POTLOK:  cpu time    8.3848: real time    8.4369
    SETDIJ:  cpu time    0.0018: real time    0.0018
    TRIAL :  cpu time   22.4234: real time   22.5939
    CORREC:  cpu time   16.1295: real time   16.2770
    CHARGE:  cpu time    3.2456: real time    3.2717
    --------------------------------------------
      LOOP:  cpu time   50.2340: real time   50.6345

 eigenvalue-minimisations  :     0
 total energy-change (2. order) :-0.5221925E+00  (-0.2072636E+00)
 number of electron     216.0000000 magnetization 
 augmentation part       -0.5145777 magnetization 

 Free energy of the ion-electron system (eV)
  ---------------------------------------------------
  alpha Z        PSCENC =        47.94900195
  Ewald energy   TEWEN  =     40658.92799854
  -Hartree energ DENC   =    -47634.91693512
  -exchange      EXHF   =         0.00000000
  -V(xc)+E(xc)   XCENC  =       649.31414095
  PAW double counting   =    146255.97473640  -146115.75977566
  entropy T*S    EENTRO =        -0.00000000
  eigenvalues    EBANDS =     -2756.53439616
  atomic energy  EATOM  =      8369.52358910
  ---------------------------------------------------
  free energy    TOTEN  =      -525.52163999 eV

  energy without entropy =     -525.52163999  energy(sigma->0) =     -525.52163999


--------------------------------------------------------------------------------------------------------




--------------------------------------- Iteration      1(  10)  ---------------------------------------


    POTLOK:  cpu time    8.3860: real time    8.4382
    SETDIJ:  cpu time    0.0018: real time    0.0018
    TRIAL :  cpu time   22.4448: real time   22.6236
    CORREC:  cpu time   16.1563: real time   16.2645
    CHARGE:  cpu time    3.2439: real time    3.2702
    --------------------------------------------
      LOOP:  cpu time   50.2859: real time   50.6530

 eigenvalue-minimisations  :     0
 total energy-change (2. order) :-0.2070204E+00  (-0.8771928E-01)
 number of electron     216.0000000 magnetization 
 augmentation part       -0.5079645 magnetization 

 Free energy of the ion-electron system (eV)
  ---------------------------------------------------
  alpha Z        PSCENC =        47.94900195
  Ewald energy   TEWEN  =     40658.92799854
  -Hartree energ DENC   =    -47634.79712113
  -exchange      EXHF   =         0.00000000
  -V(xc)+E(xc)   XCENC  =       649.09953948
  PAW double counting   =    148775.00193504  -148634.68572813
  entropy T*S    EENTRO =        -0.00000000
  eigenvalues    EBANDS =     -2756.74787527
  atomic energy  EATOM  =      8369.52358910
  ---------------------------------------------------
  free energy    TOTEN  =      -525.72866042 eV

  energy without entropy =     -525.72866042  energy(sigma->0) =     -525.72866042


--------------------------------------------------------------------------------------------------------




--------------------------------------- Iteration      1(  11)  ---------------------------------------


    POTLOK:  cpu time    8.3821: real time    8.4502
    SETDIJ:  cpu time    0.0018: real time    0.0018
    TRIAL :  cpu time   22.4204: real time   22.6064
    CORREC:  cpu time   16.1699: real time   16.2854
    CHARGE:  cpu time    3.2472: real time    3.2741
    --------------------------------------------
      LOOP:  cpu time   50.3018: real time   50.7015

 eigenvalue-minimisations  :     0
 total energy-change (2. order) :-0.8748518E-01  (-0.3454103E-01)
 number of electron     216.0000000 magnetization 
 augmentation part       -0.5040475 magnetization 

 Free energy of the ion-electron system (eV)
  ---------------------------------------------------
  alpha Z        PSCENC =        47.94900195
  Ewald energy   TEWEN  =     40658.92799854
  -Hartree energ DENC   =    -47629.00788864
  -exchange      EXHF   =         0.00000000
  -V(xc)+E(xc)   XCENC  =       648.96550545
  PAW double counting   =    148660.32812343  -148520.01150165
  entropy T*S    EENTRO =        -0.00000000
  eigenvalues    EBANDS =     -2762.49097377
  atomic energy  EATOM  =      8369.52358910
  ---------------------------------------------------
  free energy    TOTEN  =      -525.81614560 eV

  energy without entropy =     -525.81614560  energy(sigma->0) =     -525.81614560


--------------------------------------------------------------------------------------------------------




--------------------------------------- Iteration      1(  12)  ---------------------------------------


    POTLOK:  cpu time    8.3903: real time    8.4543
    SETDIJ:  cpu time    0.0018: real time    0.0018
    TRIAL :  cpu time   22.4000: real time   22.6068
    CORREC:  cpu time   16.1532: real time   16.2886
    CHARGE:  cpu time    3.2462: real time    3.2693
    --------------------------------------------
      LOOP:  cpu time   50.2467: real time   50.6791

 eigenvalue-minimisations  :     0
 total energy-change (2. order) :-0.3445301E-01  (-0.1103176E-01)
 number of electron     216.0000000 magnetization 
 augmentation part       -0.5040634 magnetization 

 Free energy of the ion-electron system (eV)
  ---------------------------------------------------
  alpha Z        PSCENC =        47.94900195
  Ewald energy   TEWEN  =     40658.92799854
  -Hartree energ DENC   =    -47624.25248302
  -exchange      EXHF   =         0.00000000
  -V(xc)+E(xc)   XCENC  =       648.86861251
  PAW double counting   =    147934.78835657  -147794.49909217
  entropy T*S    EENTRO =        -0.00000000
  eigenvalues    EBANDS =     -2767.15658210
  atomic energy  EATOM  =      8369.52358910
  ---------------------------------------------------
  free energy    TOTEN  =      -525.85059861 eV

  energy without entropy =     -525.85059861  energy(sigma->0) =     -525.85059861


--------------------------------------------------------------------------------------------------------




--------------------------------------- Iteration      1(  13)  ---------------------------------------


    POTLOK:  cpu time    8.3882: real time    8.4383
    SETDIJ:  cpu time    0.0019: real time    0.0019
    TRIAL :  cpu time   22.4034: real time   22.5856
    CORREC:  cpu time   16.1627: real time   16.2791
    CHARGE:  cpu time    3.2412: real time    3.2672
    --------------------------------------------
      LOOP:  cpu time   50.2462: real time   50.6353

 eigenvalue-minimisations  :     0
 total energy-change (2. order) :-0.1101841E-01  (-0.3094097E-02)
 number of electron     216.0000000 magnetization 
 augmentation part       -0.5047697 magnetization 

 Free energy of the ion-electron system (eV)
  ---------------------------------------------------
  alpha Z        PSCENC =        47.94900195
  Ewald energy   TEWEN  =     40658.92799854
  -Hartree energ DENC   =    -47622.81260928
  -exchange      EXHF   =         0.00000000
  -V(xc)+E(xc)   XCENC  =       648.82210015
  PAW double counting   =    147376.91575118  -147236.64027873
  entropy T*S    EENTRO =        -0.00000000
  eigenvalues    EBANDS =     -2768.54716993
  atomic energy  EATOM  =      8369.52358910
  ---------------------------------------------------
  free energy    TOTEN  =      -525.86161702 eV

  energy without entropy =     -525.86161702  energy(sigma->0) =     -525.86161702


--------------------------------------------------------------------------------------------------------




--------------------------------------- Iteration      1(  14)  ---------------------------------------


    POTLOK:  cpu time    8.3854: real time    8.4412
    SETDIJ:  cpu time    0.0018: real time    0.0018
    TRIAL :  cpu time   22.4144: real time   22.5787
    CORREC:  cpu time   16.1550: real time   16.2689
    CHARGE:  cpu time    3.2474: real time    3.2736
    --------------------------------------------
      LOOP:  cpu time   50.2379: real time   50.6024

 eigenvalue-minimisations  :     0
 total energy-change (2. order) :-0.3097721E-02  (-0.8289423E-03)
 number of electron     216.0000000 magnetization 
 augmentation part       -0.5050986 magnetization 

 Free energy of the ion-electron system (eV)
  ---------------------------------------------------
  alpha Z        PSCENC =        47.94900195
  Ewald energy   TEWEN  =     40658.92799854
  -Hartree energ DENC   =    -47622.82784981
  -exchange      EXHF   =         0.00000000
  -V(xc)+E(xc)   XCENC  =       648.81796489
  PAW double counting   =    147124.36265315  -146984.09288082
  entropy T*S    EENTRO =        -0.00000000
  eigenvalues    EBANDS =     -2768.52519175
  atomic energy  EATOM  =      8369.52358910
  ---------------------------------------------------
  free energy    TOTEN  =      -525.86471474 eV

  energy without entropy =     -525.86471474  energy(sigma->0) =     -525.86471474


--------------------------------------------------------------------------------------------------------




--------------------------------------- Iteration      1(  15)  ---------------------------------------


    POTLOK:  cpu time    8.4167: real time    8.4704
    SETDIJ:  cpu time    0.0018: real time    0.0018
    TRIAL :  cpu time   22.4383: real time   22.6016
    CORREC:  cpu time   16.1535: real time   16.2697
    CHARGE:  cpu time    3.2561: real time    3.2798
    --------------------------------------------
      LOOP:  cpu time   50.3307: real time   50.6934

 eigenvalue-minimisations  :     0
 total energy-change (2. order) :-0.8350611E-03  (-0.2350480E-03)
 number of electron     216.0000000 magnetization 
 augmentation part       -0.5052607 magnetization 

 Free energy of the ion-electron system (eV)
  ---------------------------------------------------
  alpha Z        PSCENC =        47.94900195
  Ewald energy   TEWEN  =     40658.92799854
  -Hartree energ DENC   =    -47622.76679797
  -exchange      EXHF   =         0.00000000
  -V(xc)+E(xc)   XCENC  =       648.82008878
  PAW double counting   =    147024.14872639  -146883.88154851
  entropy T*S    EENTRO =        -0.00000000
  eigenvalues    EBANDS =     -2768.58660809
  atomic energy  EATOM  =      8369.52358910
  ---------------------------------------------------
  free energy    TOTEN  =      -525.86554981 eV

  energy without entropy =     -525.86554981  energy(sigma->0) =     -525.86554981


--------------------------------------------------------------------------------------------------------




--------------------------------------- Iteration      1(  16)  ---------------------------------------


    POTLOK:  cpu time    8.3893: real time    8.4438
    SETDIJ:  cpu time    0.0018: real time    0.0018
    TRIAL :  cpu time   22.4035: real time   22.5877
    CORREC:  cpu time   16.1539: real time   16.2804
    CHARGE:  cpu time    3.2448: real time    3.2687
    --------------------------------------------
      LOOP:  cpu time   50.2376: real time   50.6465

 eigenvalue-minimisations  :     0
 total energy-change (2. order) :-0.2382275E-03  (-0.9346190E-04)
 number of electron     216.0000000 magnetization 
 augmentation part       -0.5053234 magnetization 

 Free energy of the ion-electron system (eV)
  ---------------------------------------------------
  alpha Z        PSCENC =        47.94900195
  Ewald energy   TEWEN  =     40658.92799854
  -Hartree energ DENC   =    -47622.67606455
  -exchange      EXHF   =         0.00000000
  -V(xc)+E(xc)   XCENC  =       648.81896436
  PAW double counting   =    146965.69919912  -146825.43252407
  entropy T*S    EENTRO =        -0.00000000
  eigenvalues    EBANDS =     -2768.67595249
  atomic energy  EATOM  =      8369.52358910
  ---------------------------------------------------
  free energy    TOTEN  =      -525.86578803 eV

  energy without entropy =     -525.86578803  energy(sigma->0) =     -525.86578803


--------------------------------------------------------------------------------------------------------




--------------------------------------- Iteration      1(  17)  ---------------------------------------


    POTLOK:  cpu time    8.3840: real time    8.4415
    SETDIJ:  cpu time    0.0018: real time    0.0018
    TRIAL :  cpu time   22.4290: real time   22.5942
    CORREC:  cpu time   16.1577: real time   16.2792
    CHARGE:  cpu time    3.2506: real time    3.2778
    --------------------------------------------
      LOOP:  cpu time   50.2955: real time   50.6708

 eigenvalue-minimisations  :     0
 total energy-change (2. order) :-0.9109598E-04  (-0.4064565E-04)
 number of electron     216.0000000 magnetization 
 augmentation part       -0.5053582 magnetization 

 Free energy of the ion-electron system (eV)
  ---------------------------------------------------
  alpha Z        PSCENC =        47.94900195
  Ewald energy   TEWEN  =     40658.92799854
  -Hartree energ DENC   =    -47622.81780937
  -exchange      EXHF   =         0.00000000
  -V(xc)+E(xc)   XCENC  =       648.82697162
  PAW double counting   =    146918.01042462  -146777.74452913
  entropy T*S    EENTRO =        -0.00000000
  eigenvalues    EBANDS =     -2768.54152647
  atomic energy  EATOM  =      8369.52358910
  ---------------------------------------------------
  free energy    TOTEN  =      -525.86587913 eV

  energy without entropy =     -525.86587913  energy(sigma->0) =     -525.86587913


--------------------------------------------------------------------------------------------------------




--------------------------------------- Iteration      1(  18)  ---------------------------------------


    POTLOK:  cpu time    8.3770: real time    8.4483
    SETDIJ:  cpu time    0.0018: real time    0.0018
    TRIAL :  cpu time   22.3750: real time   22.6072
    CORREC:  cpu time   16.1627: real time   16.2799
    CHARGE:  cpu time    3.2536: real time    3.2754
    --------------------------------------------
      LOOP:  cpu time   50.1981: real time   50.6683

 eigenvalue-minimisations  :     0
 total energy-change (2. order) :-0.3883074E-04  (-0.1650896E-04)
 number of electron     216.0000000 magnetization 
 augmentation part       -0.5054024 magnetization 

 Free energy of the ion-electron system (eV)
  ---------------------------------------------------
  alpha Z        PSCENC =        47.94900195
  Ewald energy   TEWEN  =     40658.92799854
  -Hartree energ DENC   =    -47622.92347280
  -exchange      EXHF   =         0.00000000
  -V(xc)+E(xc)   XCENC  =       648.83182493
  PAW double counting   =    146898.51376821  -146758.24782639
  entropy T*S    EENTRO =        -0.00000000
  eigenvalues    EBANDS =     -2768.44080151
  atomic energy  EATOM  =      8369.52358910
  ---------------------------------------------------
  free energy    TOTEN  =      -525.86591796 eV

  energy without entropy =     -525.86591796  energy(sigma->0) =     -525.86591796


--------------------------------------------------------------------------------------------------------




--------------------------------------- Iteration      1(  19)  ---------------------------------------


    POTLOK:  cpu time    8.3884: real time    8.4431
    SETDIJ:  cpu time    0.0018: real time    0.0018
    TRIAL :  cpu time   22.4262: real time   22.5864
    CORREC:  cpu time   16.1822: real time   16.2962
    CHARGE:  cpu time    3.2447: real time    3.2681
    --------------------------------------------
      LOOP:  cpu time   50.2973: real time   50.6509

 eigenvalue-minimisations  :     0
 total energy-change (2. order) :-0.1633939E-04  (-0.1160720E-04)
 number of electron     216.0000000 magnetization 
 augmentation part       -0.5054102 magnetization 

 Free energy of the ion-electron system (eV)
  ---------------------------------------------------
  alpha Z        PSCENC =        47.94900195
  Ewald energy   TEWEN  =     40658.92799854
  -Hartree energ DENC   =    -47622.92086897
  -exchange      EXHF   =         0.00000000
  -V(xc)+E(xc)   XCENC  =       648.83071464
  PAW double counting   =    146905.68826302  -146765.42159541
  entropy T*S    EENTRO =        -0.00000000
  eigenvalues    EBANDS =     -2768.44303717
  atomic energy  EATOM  =      8369.52358910
  ---------------------------------------------------
  free energy    TOTEN  =      -525.86593430 eV

  energy without entropy =     -525.86593430  energy(sigma->0) =     -525.86593430


--------------------------------------------------------------------------------------------------------




--------------------------------------- Iteration      1(  20)  ---------------------------------------


    POTLOK:  cpu time    8.4068: real time    8.4587
    SETDIJ:  cpu time    0.0018: real time    0.0018
    TRIAL :  cpu time   22.4557: real time   22.6196
    CORREC:  cpu time   16.1524: real time   16.2778
    CHARGE:  cpu time    3.2541: real time    3.2786
    --------------------------------------------
      LOOP:  cpu time   50.3175: real time   50.6847

 eigenvalue-minimisations  :     0
 total energy-change (2. order) :-0.6231072E-05  (-0.4505346E-05)
 number of electron     216.0000000 magnetization 
 augmentation part       -0.5054111 magnetization 

 Free energy of the ion-electron system (eV)
  ---------------------------------------------------
  alpha Z        PSCENC =        47.94900195
  Ewald energy   TEWEN  =     40658.92799854
  -Hartree energ DENC   =    -47622.96355014
  -exchange      EXHF   =         0.00000000
  -V(xc)+E(xc)   XCENC  =       648.83194330
  PAW double counting   =    146927.81176116  -146787.54483407
  entropy T*S    EENTRO =        -0.00000000
  eigenvalues    EBANDS =     -2768.40185037
  atomic energy  EATOM  =      8369.52358910
  ---------------------------------------------------
  free energy    TOTEN  =      -525.86594053 eV

  energy without entropy =     -525.86594053  energy(sigma->0) =     -525.86594053


--------------------------------------------------------------------------------------------------------




--------------------------------------- Iteration      1(  21)  ---------------------------------------


    POTLOK:  cpu time    8.3857: real time    8.4460
    SETDIJ:  cpu time    0.0018: real time    0.0018
    TRIAL :  cpu time   22.4357: real time   22.5979
    CORREC:  cpu time   16.1345: real time   16.2812
    CHARGE:  cpu time    3.2540: real time    3.2763
    --------------------------------------------
      LOOP:  cpu time   50.2332: real time   50.6398

 eigenvalue-minimisations  :     0
 total energy-change (2. order) :-0.4248082E-05  (-0.7874590E-06)
 number of electron     216.0000000 magnetization 
 augmentation part       -0.5053986 magnetization 

 Free energy of the ion-electron system (eV)
  ---------------------------------------------------
  alpha Z        PSCENC =        47.94900195
  Ewald energy   TEWEN  =     40658.92799854
  -Hartree energ DENC   =    -47622.94202336
  -exchange      EXHF   =         0.00000000
  -V(xc)+E(xc)   XCENC  =       648.83059298
  PAW double counting   =    146927.19362121  -146786.92662505
  entropy T*S    EENTRO =        -0.00000000
  eigenvalues    EBANDS =     -2768.42210015
  atomic energy  EATOM  =      8369.52358910
  ---------------------------------------------------
  free energy    TOTEN  =      -525.86594478 eV

  energy without entropy =     -525.86594478  energy(sigma->0) =     -525.86594478


--------------------------------------------------------------------------------------------------------




--------------------------------------- Iteration      1(  22)  ---------------------------------------


    POTLOK:  cpu time    8.3988: real time    8.4566
    SETDIJ:  cpu time    0.0018: real time    0.0018
    TRIAL :  cpu time   22.3826: real time   22.5999
    CORREC:  cpu time   16.1495: real time   16.2804
    CHARGE:  cpu time    3.2399: real time    3.2645
    --------------------------------------------
      LOOP:  cpu time   50.2460: real time   50.6849

 eigenvalue-minimisations  :     0
 total energy-change (2. order) :-0.7414201E-06  (-0.2552940E-06)
 number of electron     216.0000000 magnetization 
 augmentation part       -0.5053903 magnetization 

 Free energy of the ion-electron system (eV)
  ---------------------------------------------------
  alpha Z        PSCENC =        47.94900195
  Ewald energy   TEWEN  =     40658.92799854
  -Hartree energ DENC   =    -47622.94091297
  -exchange      EXHF   =         0.00000000
  -V(xc)+E(xc)   XCENC  =       648.83064218
  PAW double counting   =    146926.82108496  -146786.55421129
  entropy T*S    EENTRO =        -0.00000000
  eigenvalues    EBANDS =     -2768.42313800
  atomic energy  EATOM  =      8369.52358910
  ---------------------------------------------------
  free energy    TOTEN  =      -525.86594552 eV

  energy without entropy =     -525.86594552  energy(sigma->0) =     -525.86594552


--------------------------------------------------------------------------------------------------------




--------------------------------------- Iteration      1(  23)  ---------------------------------------


    POTLOK:  cpu time    8.3849: real time    8.4373
    SETDIJ:  cpu time    0.0018: real time    0.0018
    TRIAL :  cpu time   22.3456: real time   22.5878
    CORREC:  cpu time   16.1709: real time   16.2811
    CHARGE:  cpu time    3.2518: real time    3.2758
    --------------------------------------------
      LOOP:  cpu time   50.2041: real time   50.6546

 eigenvalue-minimisations  :     0
 total energy-change (2. order) :-0.1899607E-06  (-0.6602781E-07)
 number of electron     216.0000000 magnetization 
 augmentation part       -0.5053894 magnetization 

 Free energy of the ion-electron system (eV)
  ---------------------------------------------------
  alpha Z        PSCENC =        47.94900195
  Ewald energy   TEWEN  =     40658.92799854
  -Hartree energ DENC   =    -47622.93873385
  -exchange      EXHF   =         0.00000000
  -V(xc)+E(xc)   XCENC  =       648.83062328
  PAW double counting   =    146926.92127878  -146786.65448440
  entropy T*S    EENTRO =        -0.00000000
  eigenvalues    EBANDS =     -2768.42521911
  atomic energy  EATOM  =      8369.52358910
  ---------------------------------------------------
  free energy    TOTEN  =      -525.86594571 eV

  energy without entropy =     -525.86594571  energy(sigma->0) =     -525.86594571


--------------------------------------------------------------------------------------------------------




--------------------------------------- Iteration      1(  24)  ---------------------------------------


    POTLOK:  cpu time    8.3992: real time    8.4629
    SETDIJ:  cpu time    0.0018: real time    0.0018
    TRIAL :  cpu time   22.4412: real time   22.6014
    CORREC:  cpu time   16.1740: real time   16.2827
    EDDIAG:  cpu time    4.6115: real time    4.6499
    CHARGE:  cpu time    3.2385: real time    3.2662
    --------------------------------------------
      LOOP:  cpu time   54.9094: real time   55.3242

 eigenvalue-minimisations  :     0
 total energy-change (2. order) :-0.7596100E-08  (-0.4562342E-07)
 number of electron     216.0000000 magnetization 
 augmentation part       -0.5053880 magnetization 

 Free energy of the ion-electron system (eV)
  ---------------------------------------------------
  alpha Z        PSCENC =        47.94900195
  Ewald energy   TEWEN  =     40658.92799854
  -Hartree energ DENC   =    -47622.93609341
  -exchange      EXHF   =         0.00000000
  -V(xc)+E(xc)   XCENC  =       648.83050014
  PAW double counting   =    146927.20708164  -146786.94028954
  entropy T*S    EENTRO =        -0.00000000
  eigenvalues    EBANDS =     -2768.42773414
  atomic energy  EATOM  =      8369.52358910
  ---------------------------------------------------
  free energy    TOTEN  =      -525.86594572 eV

  energy without entropy =     -525.86594572  energy(sigma->0) =     -525.86594572


--------------------------------------------------------------------------------------------------------


  average scaling for gradient   0.9973


 average (electrostatic) potential at core
  the test charge radii are     0.5770  0.5955
  (the norm of the test charge is              1.0000)
       1 -88.0711       2 -88.0698       3 -88.0710       4 -88.0704       5 -88.0673
       6 -88.0660       7 -88.0695       8 -88.0662       9 -88.0674      10 -88.0679
      11 -88.0650      12 -88.0660      13 -88.0672      14 -88.0637      15 -88.0646
      16 -88.0673      17 -88.0678      18 -88.0699      19 -88.0677      20 -88.0669
      21 -88.0669      22 -88.0633      23 -88.0684      24 -88.0669      25 -88.0670
      26 -88.0661      27 -88.0638      28 -88.0680      29 -88.0675      30 -88.0636
      31 -88.0654      32 -88.0667      33 -88.0674      34 -88.0678      35 -88.0638
      36 -88.0672      37 -88.0643      38 -88.0684      39 -88.0680      40 -88.0700
      41 -88.0708      42 -88.0713      43 -88.0693      44 -88.0699      45 -88.0669
      46 -88.0661      47 -88.0669      48 -88.0663      49 -88.0697      50 -88.0699
      51 -92.1281      52-124.2568      53-124.2595
 
 
 
 E-fermi :  -4.4115     XC(G=0):  -1.8898     alpha+bet : -1.6890

 Fermi energy:        -4.4114812091

 k-point     1 :       0.0000    0.0000    0.0000
  band No.  band energies     occupation 
      1     -29.1898      2.00000
      2     -28.1633      2.00000
      3     -23.5776      2.00000
      4     -22.5921      2.00000
      5     -22.5911      2.00000
      6     -22.5907      2.00000
      7     -22.5905      2.00000
      8     -22.5902      2.00000
      9     -22.5894      2.00000
     10     -20.6592      2.00000
     11     -20.6591      2.00000
     12     -20.6588      2.00000
     13     -20.6581      2.00000
     14     -20.6576      2.00000
     15     -20.6574      2.00000
     16     -19.7236      2.00000
     17     -19.7234      2.00000
     18     -19.7229      2.00000
     19     -19.7228      2.00000
     20     -19.7219      2.00000
     21     -19.7216      2.00000
     22     -17.5021      2.00000
     23     -17.5016      2.00000
     24     -17.5013      2.00000
     25     -17.5009      2.00000
     26     -17.5000      2.00000
     27     -17.4999      2.00000
     28     -16.3439      2.00000
     29     -16.3438      2.00000
     30     -16.3427      2.00000
     31     -16.3425      2.00000
     32     -16.3421      2.00000
     33     -16.3420      2.00000
     34     -14.9508      2.00000
     35     -14.9507      2.00000
     36     -14.9499      2.00000
     37     -14.9497      2.00000
     38     -14.9496      2.00000
     39     -14.9492      2.00000
     40     -13.1427      2.00000
     41     -12.4916      2.00000
     42     -12.4914      2.00000
     43     -12.4909      2.00000
     44     -12.4908      2.00000
     45     -12.4896      2.00000
     46     -12.4893      2.00000
     47     -12.2741      2.00000
     48     -12.2740      2.00000
     49     -12.2730      2.00000
     50     -12.2727      2.00000
     51     -12.2724      2.00000
     52     -12.2722      2.00000
     53     -11.8652      2.00000
     54     -11.6101      2.00000
     55     -11.6088      2.00000
     56     -10.9430      2.00000
     57     -10.8282      2.00000
     58     -10.8280      2.00000
     59     -10.8263      2.00000
     60     -10.8259      2.00000
     61     -10.8258      2.00000
     62     -10.8256      2.00000
     63      -9.7698      2.00000
     64      -9.7689      2.00000
     65      -9.7685      2.00000
     66      -9.7684      2.00000
     67      -9.7683      2.00000
     68      -9.7677      2.00000
     69      -9.5268      2.00000
     70      -9.5265      2.00000
     71      -9.5264      2.00000
     72      -9.5255      2.00000
     73      -9.5252      2.00000
     74      -9.5251      2.00000
     75      -9.5245      2.00000
     76      -9.5236      2.00000
     77      -9.5234      2.00000
     78      -9.5231      2.00000
     79      -9.5228      2.00000
     80      -9.5222      2.00000
     81      -8.0147      2.00000
     82      -8.0126      2.00000
     83      -7.8203      2.00000
     84      -7.8188      2.00000
     85      -7.8185      2.00000
     86      -7.8180      2.00000
     87      -7.8160      2.00000
     88      -7.8152      2.00000
     89      -7.5270      2.00000
     90      -7.5267      2.00000
     91      -7.5266      2.00000
     92      -7.5261      2.00000
     93      -7.5257      2.00000
     94      -7.5254      2.00000
     95      -6.5816      2.00000
     96      -6.5816      2.00000
     97      -6.5813      2.00000
     98      -6.5811      2.00000
     99      -6.5803      2.00000
    100      -6.5801      2.00000
    101      -6.3024      2.00000
    102      -6.3001      2.00000
    103      -4.4831      2.00000
    104      -4.4827      2.00000
    105      -4.4819      2.00000
    106      -4.4819      2.00000
    107      -4.4815      2.00000
    108      -4.4814      2.00000
    109      -1.5078      0.00000
    110      -1.5076      0.00000
    111      -1.5074      0.00000
    112      -1.5072      0.00000
    113      -1.5064      0.00000
    114      -1.5061      0.00000
    115       0.4711      0.00000
    116       0.4714      0.00000
    117       0.4717      0.00000
    118       0.4721      0.00000
    119       0.4723      0.00000
    120       0.4737      0.00000
    121       0.6321      0.00000
    122       0.9388      0.00000
    123       1.2648      0.00000
    124       1.2660      0.00000
    125       1.4058      0.00000
    126       1.8112      0.00000
    127       1.9330      0.00000
    128       1.9359      0.00000
    129       1.9379      0.00000
    130       1.9398      0.00000
    131       1.9404      0.00000
    132       1.9404      0.00000
    133       2.2678      0.00000
    134       2.3047      0.00000
    135       2.3519      0.00000
    136       2.3520      0.00000
    137       2.3523      0.00000
    138       2.3527      0.00000
    139       2.3529      0.00000
    140       2.3534      0.00000
    141       2.5930      0.00000
    142       2.6802      0.00000
    143       2.6932      0.00000
    144       2.6992      0.00000
    145       2.7032      0.00000
    146       2.7085      0.00000
    147       2.7215      0.00000
    148       2.7891      0.00000
    149       2.8201      0.00000
    150       2.8378      0.00000
    151       2.8619      0.00000
    152       3.1503      0.00000
    153       3.4539      0.00000
    154       3.6310      0.00000
    155       3.9447      0.00000
    156       4.1018      0.00000
    157       4.2503      0.00000
    158       4.3168      0.00000
    159       4.4500      0.00000
    160       4.4736      0.00000
    161       4.5427      0.00000
    162       4.5902      0.00000
    163       4.9232      0.00000
    164       4.9385      0.00000
    165       4.9530      0.00000
    166       4.9570      0.00000
    167       4.9597      0.00000
    168       4.9604      0.00000


--------------------------------------------------------------------------------------------------------


 soft charge-density along one line, spin component           1
         0         1         2         3         4         5         6         7         8         9
 total charge-density along one line
 
 pseudopotential strength for first ion, spin component:           1
 12.643  21.273  -0.000   0.000   0.000  -0.000   0.000   0.000
 21.273  35.792  -0.000   0.000   0.000  -0.000   0.000   0.000
 -0.000  -0.000  -3.239   0.000   0.000  -5.804   0.000   0.000
  0.000   0.000   0.000  -3.243   0.000   0.000  -5.810   0.000
  0.000   0.000   0.000   0.000  -3.239   0.000   0.000  -5.804
 -0.000  -0.000  -5.804   0.000   0.000 -10.375   0.000   0.000
  0.000   0.000   0.000  -5.810   0.000   0.000 -10.385   0.000
  0.000   0.000   0.000   0.000  -5.804   0.000   0.000 -10.375
 total augmentation occupancy for first ion, spin component:           1
  9.643  -3.599   0.000  -0.002  -0.001  -0.000   0.001   0.000
 -3.599   1.374  -0.000   0.001   0.001   0.000  -0.000  -0.000
  0.000  -0.000   8.197  -0.009   0.001  -2.896   0.003  -0.000
 -0.002   0.001  -0.009   3.783  -0.000   0.003  -1.107   0.000
 -0.001   0.001   0.001  -0.000   8.195  -0.000   0.000  -2.895
 -0.000   0.000  -2.896   0.003  -0.000   1.036  -0.001   0.000
  0.001  -0.000   0.003  -1.107   0.000  -0.001   0.329  -0.000
  0.000  -0.000  -0.000   0.000  -2.895   0.000  -0.000   1.035


------------------------ aborting loop because EDIFF is reached ----------------------------------------


    FORLOC:  cpu time    0.1403: real time    0.1412
    FORNL :  cpu time    4.1544: real time    4.1837
    FORCOR:  cpu time    8.3273: real time    8.3826
    OFIELD:  cpu time    0.0031: real time    0.0031

 VOLUME and BASIS-vectors are now :
 -----------------------------------------------------------------------------
  energy-cutoff  :     1000.00
  volume of cell :     3288.85
      direct lattice vectors                 reciprocal lattice vectors
    12.325000000  0.000000000  0.000000000     0.081135903  0.046843835  0.000000000
    -6.162500000 10.673763102  0.000000000     0.000000000  0.093687670  0.000000000
     0.000000000  0.000000000 25.000000000     0.000000000  0.000000000  0.040000000

  length of vectors
    12.325000000 12.325000000 25.000000000     0.093687670  0.093687670  0.040000000


 FORCES acting on ions:
    Electron-Ion                     Ewald-Force                    Non-Local-Force
 -----------------------------------------------------------------------------------------------
   0.344E+00 0.309E+00 0.101E+02   -.339E+00 -.314E+00 -.101E+02   -.437E-02 0.616E-02 0.803E-02
   0.465E+00 0.288E+00 0.109E+02   -.464E+00 -.296E+00 -.109E+02   -.442E-02 0.128E-01 -.496E-02
   0.174E+00 0.493E+00 0.107E+02   -.183E+00 -.498E+00 -.107E+02   0.967E-02 0.180E-01 -.125E-02
   0.223E+00 0.332E+00 0.126E+02   -.226E+00 -.343E+00 -.126E+02   0.199E-01 0.164E-01 -.180E-01
   0.421E+00 0.112E+00 0.106E+02   -.410E+00 -.123E+00 -.106E+02   -.125E-01 0.912E-02 0.512E-02
   0.424E+00 -.108E+00 0.107E+02   -.424E+00 0.101E+00 -.107E+02   -.113E-01 0.148E-01 -.333E-02
   0.419E+00 0.233E+00 0.128E+02   -.420E+00 -.247E+00 -.128E+02   0.120E-01 0.425E-03 -.713E-02
   0.464E+00 -.126E+00 0.140E+02   -.468E+00 0.116E+00 -.139E+02   -.743E-02 0.123E-01 -.396E-02
   -.213E+00 0.540E+00 0.111E+02   0.204E+00 -.547E+00 -.111E+02   0.182E-01 -.921E-02 -.514E-02
   -.221E+00 0.202E+00 0.130E+02   0.213E+00 -.209E+00 -.129E+02   -.116E-01 0.234E-01 0.202E-02
   0.111E+00 -.103E+00 0.101E+02   -.106E+00 0.104E+00 -.101E+02   0.230E-02 -.421E-02 -.356E-03
   0.116E+00 -.892E-01 0.993E+01   -.123E+00 0.956E-01 -.993E+01   0.109E-02 -.626E-02 0.652E-02
   0.522E-01 -.339E+00 0.147E+02   -.554E-01 0.334E+00 -.146E+02   0.294E-01 0.319E-02 -.144E-03
   0.462E-01 -.588E+00 0.124E+02   -.477E-01 0.589E+00 -.123E+02   0.657E-03 0.797E-02 -.160E-01
   -.400E+00 0.233E+00 0.102E+02   0.402E+00 -.237E+00 -.102E+02   0.690E-02 -.153E-02 0.831E-02
   -.477E+00 0.106E+00 0.102E+02   0.477E+00 -.107E+00 -.102E+02   -.177E-02 0.650E-02 -.968E-02
   -.650E-01 -.189E-01 0.952E+01   0.641E-01 0.293E-01 -.952E+01   0.612E-02 -.165E-01 0.289E-02
   0.305E-01 0.239E+00 0.953E+01   -.372E-01 -.231E+00 -.954E+01   0.667E-02 -.110E-01 0.114E-01
   -.111E+00 -.526E+00 0.111E+02   0.116E+00 0.534E+00 -.111E+02   -.233E-02 -.985E-02 -.327E-02
   -.614E-01 -.331E+00 0.102E+02   0.695E-01 0.337E+00 -.102E+02   -.157E-01 -.900E-02 0.635E-03
   0.534E+00 -.214E+00 0.118E+02   -.531E+00 0.208E+00 -.118E+02   -.485E-02 0.856E-02 -.200E-01
   0.395E+00 -.313E+00 0.112E+02   -.399E+00 0.313E+00 -.112E+02   -.463E-02 0.694E-02 0.129E-02
   -.876E-01 0.113E+00 0.143E+02   0.744E-01 -.121E+00 -.143E+02   0.171E-02 0.251E-01 0.102E-02
   -.144E+00 -.205E+00 0.143E+02   0.143E+00 0.196E+00 -.143E+02   0.182E-01 -.434E-02 -.124E-01
   0.200E+00 -.688E-01 0.101E+02   -.203E+00 0.731E-01 -.101E+02   0.110E-01 -.103E-01 -.524E-02
   0.654E-01 0.172E+00 0.994E+01   -.765E-01 -.166E+00 -.995E+01   0.101E-01 -.470E-02 0.843E-02
   -.567E+00 0.410E-02 0.115E+02   0.565E+00 -.939E-02 -.115E+02   0.204E-01 0.118E-01 -.103E-02
   -.480E+00 -.224E+00 0.110E+02   0.482E+00 0.225E+00 -.110E+02   -.766E-02 0.762E-02 -.574E-02
   0.191E+00 -.441E+00 0.113E+02   -.190E+00 0.441E+00 -.112E+02   0.371E-02 0.171E-02 -.112E-01
   0.259E-01 -.186E+00 0.103E+02   -.271E-01 0.191E+00 -.103E+02   -.594E-02 -.722E-03 0.602E-03
   -.348E+00 -.321E+00 0.118E+02   0.345E+00 0.324E+00 -.118E+02   -.113E-01 -.975E-02 -.184E-01
   -.259E+00 -.514E+00 0.108E+02   0.267E+00 0.520E+00 -.108E+02   -.691E-02 -.117E-01 -.939E-03
   0.207E-01 0.126E+00 0.980E+01   -.809E-02 -.131E+00 -.981E+01   -.125E-01 0.262E-03 0.953E-02
   0.709E-01 0.903E-01 0.990E+01   -.660E-01 -.949E-01 -.990E+01   -.146E-01 0.130E-01 -.158E-02
   -.247E+00 0.476E-01 0.997E+01   0.256E+00 -.517E-01 -.998E+01   -.338E-02 0.191E-02 0.966E-02
   -.216E+00 -.112E+00 0.992E+01   0.215E+00 0.113E+00 -.992E+01   -.407E-02 0.136E-02 0.485E-03
   -.397E+00 -.230E+00 0.999E+01   0.399E+00 0.235E+00 -.999E+01   0.236E-04 -.874E-02 0.511E-02
   -.268E+00 -.214E+00 0.974E+01   0.268E+00 0.224E+00 -.975E+01   -.283E-02 -.134E-01 0.857E-02
   -.251E+00 -.301E+00 0.987E+01   0.254E+00 0.315E+00 -.988E+01   -.780E-02 -.167E-01 0.520E-02
   -.292E-01 -.898E-01 0.965E+01   0.363E-01 0.975E-01 -.966E+01   -.623E-02 -.118E-01 0.904E-02
   0.101E+00 0.246E+00 0.956E+01   -.103E+00 -.240E+00 -.957E+01   -.318E-02 -.820E-02 0.859E-02
   0.301E+00 0.426E+00 0.995E+01   -.300E+00 -.428E+00 -.996E+01   -.304E-03 -.109E-03 0.879E-02
   0.357E-01 0.391E+00 0.969E+01   -.427E-01 -.388E+00 -.970E+01   0.152E-01 -.673E-02 0.380E-02
   0.809E-02 0.546E+00 0.104E+02   -.191E-01 -.547E+00 -.104E+02   0.896E-02 0.164E-02 0.614E-02
   -.875E-01 0.141E+00 0.101E+02   0.825E-01 -.143E+00 -.101E+02   0.138E-01 -.435E-02 -.927E-04
   -.260E+00 0.359E+00 0.103E+02   0.251E+00 -.357E+00 -.103E+02   0.552E-02 -.131E-02 -.252E-02
   -.933E-01 -.177E+00 0.102E+02   0.101E+00 0.177E+00 -.102E+02   -.495E-02 -.282E-02 0.485E-02
   -.155E+00 0.539E-01 0.978E+01   0.162E+00 -.514E-01 -.978E+01   -.160E-01 0.218E-02 -.389E-02
   0.126E-01 -.955E-01 0.977E+01   -.315E-02 0.100E+00 -.977E+01   -.103E-01 -.104E-01 0.783E-02
   0.175E+00 0.124E+00 0.972E+01   -.167E+00 -.122E+00 -.973E+01   -.161E-01 0.217E-02 0.527E-02
   -.133E-02 0.238E-01 -.134E+03   0.529E-03 -.264E-01 0.134E+03   -.170E-01 0.161E-01 -.367E-02
   -.228E+03 0.155E+03 -.214E+03   0.279E+03 -.190E+03 0.217E+03   -.527E+02 0.358E+02 -.354E+01
   0.228E+03 -.155E+03 -.192E+03   -.279E+03 0.190E+03 0.189E+03   0.527E+02 -.359E+02 0.318E+01
 -----------------------------------------------------------------------------------------------
   -.194E-01 0.449E-02 0.375E+00   0.114E-12 -.114E-12 0.341E-12   0.930E-02 0.275E-01 -.369E+00
 
 
 POSITION                                       TOTAL-FORCE (eV/Angst)
 -----------------------------------------------------------------------------------
     11.98348      0.00342      0.01417        -0.006505      0.005799     -0.000516
     -0.34154      1.42665      0.01100        -0.013431      0.018336     -0.002540
      2.12355      0.00315      0.01249         0.009747      0.018058     -0.006259
      2.12326      1.42653      0.00641         0.028575      0.019504     -0.007317
     10.75099      2.13819      0.01213        -0.007422      0.016144      0.000275
     -1.57382      3.56123      0.01110        -0.026511      0.013694     -0.002370
      0.89078      2.13854      0.00548         0.010533      0.010588      0.003561
      0.89099      3.56147      0.00181        -0.010636      0.011270      0.014033
      4.58864      0.00346      0.01135         0.025974     -0.018474     -0.002967
      4.58894      1.42623      0.00646         0.002991      0.028752      0.014621
      9.51854      4.27281      0.01369         0.016356      0.000916     -0.001018
     -2.80632      5.69591      0.01434        -0.006278     -0.017159     -0.000207
      2.12300      4.27302      0.00000         0.023926      0.015855      0.023202
      2.12335      5.69594      0.00581         0.004204      0.004811     -0.001002
      7.05344      0.00333      0.01399         0.008589     -0.015634     -0.001505
      7.05353      1.42635      0.01368        -0.003119      0.014073     -0.006546
      8.28610      6.40752      0.01601         0.017621     -0.021036     -0.000587
     -4.03885      7.83070      0.01636         0.007176     -0.018721      0.000280
      3.35586      6.40753      0.01007        -0.014701     -0.011454     -0.002894
      3.35599      7.83072      0.01320        -0.017891     -0.008253      0.000175
     -0.34146      4.27290      0.00723         0.000531      0.019621     -0.005678
     -0.34138      5.69591      0.00946        -0.012851      0.003689      0.000385
      3.35624      2.13791      0.00222        -0.005766      0.033574      0.018138
      3.35573      3.56155      0.00139         0.033118     -0.008510      0.010210
     -1.57395      6.40758      0.01311         0.025268     -0.014893     -0.002249
     -1.57385      7.83068      0.01438         0.009551     -0.002808      0.000550
      5.82093      2.13784      0.01033         0.020277      0.007160     -0.001382
      5.82114      3.56097      0.01156         0.000879      0.001925     -0.006951
      0.89092      6.40755      0.00907         0.004342      0.000083     -0.004561
      0.89106      7.83068      0.01235        -0.007534      0.008685      0.001473
      4.58871      4.27293      0.00850        -0.024483     -0.003456     -0.011934
      4.58852      5.69606      0.01149         0.001353     -0.024501     -0.005140
      9.51845      0.00337      0.01490        -0.016992     -0.006315      0.000371
      9.51855      1.42644      0.01438        -0.030557      0.020183     -0.000946
      8.28593      2.13803      0.01453         0.002595     -0.000193      0.001536
      8.28613      3.56115      0.01464        -0.012985     -0.003967     -0.002540
      7.05356      4.27269      0.01457         0.003574     -0.008321      0.000163
      7.05362      5.69588      0.01553        -0.002128     -0.028719     -0.000801
      5.82112      6.40755      0.01489        -0.015677     -0.018047      0.000190
      5.82102      7.83073      0.01579        -0.005012     -0.020026      0.000357
      7.05363      8.54227      0.01631        -0.003479     -0.010930      0.001619
     -5.27149      9.96549      0.01495         0.001594     -0.001333     -0.002019
     -2.80638      8.54234      0.01558         0.028290     -0.015020     -0.000606
     -2.80627      9.96553      0.01362         0.016515      0.004136     -0.003447
     -0.34149      8.54239      0.01378         0.023032     -0.017279     -0.001562
     -0.34138      9.96550      0.01354         0.010707      0.010322     -0.002541
      2.12343      8.54232      0.01336        -0.012711     -0.014106     -0.000909
      2.12354      9.96544      0.01469        -0.023630      0.013566     -0.002819
      4.58846      8.54235      0.01505        -0.019595     -0.016492      0.001885
      4.58853      9.96550      0.01517        -0.024370      0.006881      0.000956
      3.04930      2.68154      9.43874        -0.034442      0.022645      0.040080
      4.02070      2.02068      9.50316        -1.656502      1.103373     -0.122724
      2.07767      3.34267      9.37929         1.677891     -1.107998      0.080476
 -----------------------------------------------------------------------------------
    total drift:                               -0.010066      0.031983      0.006310


--------------------------------------------------------------------------------------------------------



  FREE ENERGIE OF THE ION-ELECTRON SYSTEM (eV)
  ---------------------------------------------------
  free  energy   TOTEN  =      -525.86594572 eV

  energy  without entropy=     -525.86594572  energy(sigma->0) =     -525.86594572
 


--------------------------------------------------------------------------------------------------------


    POTLOK:  cpu time    8.4245: real time    8.4780


--------------------------------------------------------------------------------------------------------


 writing wavefunctions
     LOOP+:  cpu time 1213.9175: real time 1224.0630
    4ORBIT:  cpu time    0.0000: real time    0.0000

 total amount of memory used by VASP MPI-rank0   698619. kBytes
=======================================================================

   base      :      30000. kBytes
   nonl-proj :     230539. kBytes
   fftplans  :      40716. kBytes
   grid      :     363125. kBytes
   one-center:        162. kBytes
   wavefun   :      34077. kBytes
 
  
  
 General timing and accounting informations for this job:
 ========================================================
  
                  Total CPU time used (sec):     1262.507
                            User time (sec):     1223.600
                          System time (sec):       38.907
                         Elapsed time (sec):     1273.895
  
                   Maximum memory used (kb):     1473092.
                   Average memory used (kb):          N/A
  
                          Minor page faults:       435551
                          Major page faults:           66
                 Voluntary context switches:         3544
