 vasp.6.2.1 16May21 (build Nov 06 2021 14:46:37) complex                        
  
 executed on             LinuxIFC date 2025.04.16  19:50:25
 running on  112 total cores
 distrk:  each k-point on   56 cores,    2 groups
 distr:  one band on NCORE=   1 cores,   56 groups


--------------------------------------------------------------------------------------------------------


 INCAR:
   ALGO = Conjugate
   KPAR = 2
   NCORE = 32
   ISMEAR = 0
   SIGMA = 0.01
   PREC = Accurate
   EDIFF = 1E-7
   ENCUT = 1000
   ISIF = 0
   METAGGA = SCAN
   LUSE_VDW = .TRUE.
   BPARAM = 15.7
   LASPH = .TRUE.
   SYMPREC = 1E-7
   NELM = 200

 POTCAR:    PAW_PBE C_h 06Feb2004                 
 POTCAR:    PAW_PBE O_h 06Feb2004                 
 -----------------------------------------------------------------------------
|                                                                             |
|           W    W    AA    RRRRR   N    N  II  N    N   GGGG   !!!           |
|           W    W   A  A   R    R  NN   N  II  NN   N  G    G  !!!           |
|           W    W  A    A  R    R  N N  N  II  N N  N  G       !!!           |
|           W WW W  AAAAAA  RRRRR   N  N N  II  N  N N  G  GGG   !            |
|           WW  WW  A    A  R   R   N   NN  II  N   NN  G    G                |
|           W    W  A    A  R    R  N    N  II  N    N   GGGG   !!!           |
|                                                                             |
|     The value NCORE = 32 specified in the INCAR file was overwritten,       |
|     because it was not compatible with the 56 processes available:          |
|     NCORE = 1                                                               |
|     was used instead, please check that this makes sense for your           |
|     machine.                                                                |
|                                                                             |
 -----------------------------------------------------------------------------

 -----------------------------------------------------------------------------
|                                                                             |
|           W    W    AA    RRRRR   N    N  II  N    N   GGGG   !!!           |
|           W    W   A  A   R    R  NN   N  II  NN   N  G    G  !!!           |
|           W    W  A    A  R    R  N N  N  II  N N  N  G       !!!           |
|           W WW W  AAAAAA  RRRRR   N  N N  II  N  N N  G  GGG   !            |
|           WW  WW  A    A  R   R   N   NN  II  N   NN  G    G                |
|           W    W  A    A  R    R  N    N  II  N    N   GGGG   !!!           |
|                                                                             |
|     For optimal performance we recommend to set                             |
|       NCORE = 2 up to number-of-cores-per-socket                            |
|     NCORE specifies how many cores store one orbital (NPAR=cpu/NCORE).      |
|     This setting can greatly improve the performance of VASP for DFT.       |
|     The default, NCORE=1 might be grossly inefficient on modern             |
|     multi-core architectures or massively parallel machines. Do your        |
|     own testing! More info at https://www.vasp.at/wiki/index.php/NCORE      |
|     Unfortunately you need to use the default for GW and RPA                |
|     calculations (for HF NCORE is supported but not extensively tested      |
|     yet).                                                                   |
|                                                                             |
 -----------------------------------------------------------------------------

 -----------------------------------------------------------------------------
|                                                                             |
|               ----> ADVICE to this user running VASP <----                  |
|                                                                             |
|     You have switched on vdW-DFT.                                           |
|     This routine was written and supplied by Jiri Klimes. We recommend      |
|     that you carefully read and cite the following publications:            |
|       J. Klimes, D.R. Bowler, A. Michelides                                 |
|          J. Phys.: Cond Matt. 22 022201 (2010)                              |
|       J. Klimes, D.R. Bowler, A. Michelides                                 |
|          Phys. Rev. B. 83, 195131 (2011)                                    |
|     and references therein.                                                 |
|                                                                             |
 -----------------------------------------------------------------------------

 POTCAR:    PAW_PBE C_h 06Feb2004                 
   VRHFIN =C: s2p2                                                                                  
   LEXCH  = PE                                                                                      
   EATOM  =   147.1560 eV,   10.8157 Ry                                                             
                                                                                                    
   TITEL  = PAW_PBE C_h 06Feb2004                                                                   
   LULTRA =        F    use ultrasoft PP ?                                                          
   IUNSCR =        1    unscreen: 0-lin 1-nonlin 2-no                                               
   RPACOR =    0.800    partial core radius                                                         
   POMASS =   12.011; ZVAL   =    4.000    mass and valenz                                          
   RCORE  =    1.100    outmost cutoff radius                                                       
   RWIGS  =    1.630; RWIGS  =    0.863    wigner-seitz radius (au A)                               
   ENMAX  =  700.000; ENMIN  =  500.000 eV                                                          
   ICORE  =        2    local potential                                                             
   LCOR   =        T    correct aug charges                                                         
   LPAW   =        T    paw PP                                                                      
   EAUG   =  946.768                                                                                
   DEXC   =    0.000                                                                                
   RMAX   =    1.128    core radius for proj-oper                                                   
   RAUG   =    1.300    factor for augmentation sphere                                              
   RDEP   =    1.162    radius for radial grids                                                     
   RDEPT  =    1.088    core radius for aug-charge                                                  
                                                                                                    
   Atomic configuration                                                                             
    4 entries                                                                                       
     n  l   j            E        occ.                                                              
     1  0  0.50      -273.3789   2.0000                                                             
     2  0  0.50       -13.7508   2.0000                                                             
     2  1  0.50        -5.2854   2.0000                                                             
     3  2  1.50        -5.4423   0.0000                                                             
   Description                                                                                      
     l       E           TYP  RCUT    TYP  RCUT                                                     
     0    -13.7508458     23  1.100                                                                 
     0     -8.2022199     23  1.100                                                                 
     1     -5.2854383     23  1.100                                                                 
     1      1.1560700     23  1.100                                                                 
     2     -5.4423304      7  1.100                                                                 
  local pseudopotential read in
  partial core-charges read in
  partial kinetic energy density read in
  atomic valenz-charges read in
  non local Contribution for L=           0  read in
    real space projection operators read in
  non local Contribution for L=           0  read in
    real space projection operators read in
  non local Contribution for L=           1  read in
    real space projection operators read in
  non local Contribution for L=           1  read in
    real space projection operators read in
    PAW grid and wavefunctions read in
 
   number of l-projection  operators is LMAX  =           4
   number of lm-projection operators is LMMAX =           8
 
 POTCAR:    PAW_PBE O_h 06Feb2004                 
   VRHFIN =O: s2p4                                                                                  
   LEXCH  = PE                                                                                      
   EATOM  =   432.3788 eV,   31.7789 Ry                                                             
                                                                                                    
   TITEL  = PAW_PBE O_h 06Feb2004                                                                   
   LULTRA =        F    use ultrasoft PP ?                                                          
   IUNSCR =        1    unscreen: 0-lin 1-nonlin 2-no                                               
   RPACOR =    0.800    partial core radius                                                         
   POMASS =   16.000; ZVAL   =    6.000    mass and valenz                                          
   RCORE  =    1.100    outmost cutoff radius                                                       
   RWIGS  =    1.400; RWIGS  =    0.741    wigner-seitz radius (au A)                               
   ENMAX  =  700.000; ENMIN  =  500.000 eV                                                          
   ICORE  =        2    local potential                                                             
   LCOR   =        T    correct aug charges                                                         
   LPAW   =        T    paw PP                                                                      
   EAUG   =  888.804                                                                                
   DEXC   =    0.000                                                                                
   RMAX   =    1.128    core radius for proj-oper                                                   
   RAUG   =    1.300    factor for augmentation sphere                                              
   RDEP   =    1.125    radius for radial grids                                                     
   RDEPT  =    1.088    core radius for aug-charge                                                  
                                                                                                    
   Atomic configuration                                                                             
    4 entries                                                                                       
     n  l   j            E        occ.                                                              
     1  0  0.50      -514.6923   2.0000                                                             
     2  0  0.50       -23.9615   2.0000                                                             
     2  1  0.50        -9.0305   4.0000                                                             
     3  2  1.50        -9.5241   0.0000                                                             
   Description                                                                                      
     l       E           TYP  RCUT    TYP  RCUT                                                     
     0    -23.9615319     23  1.100                                                                 
     0    -25.3221145     23  1.100                                                                 
     1     -9.0304911     23  1.100                                                                 
     1     -5.4802209     23  1.100                                                                 
     2     -9.5240782      7  1.100                                                                 
  local pseudopotential read in
  partial core-charges read in
  partial kinetic energy density read in
  atomic valenz-charges read in
  non local Contribution for L=           0  read in
    real space projection operators read in
  non local Contribution for L=           0  read in
    real space projection operators read in
  non local Contribution for L=           1  read in
    real space projection operators read in
  non local Contribution for L=           1  read in
    real space projection operators read in
    PAW grid and wavefunctions read in
 
   number of l-projection  operators is LMAX  =           4
   number of lm-projection operators is LMMAX =           8
 
 -----------------------------------------------------------------------------
|                                                                             |
|               ----> ADVICE to this user running VASP <----                  |
|                                                                             |
|     You have a (more or less) 'large supercell' and for larger cells it     |
|     might be more efficient to use real-space projection operators.         |
|     Therefore, try LREAL= Auto in the INCAR file.                           |
|     Mind: For very accurate calculation, you might also keep the            |
|     reciprocal projection scheme (i.e. LREAL=.FALSE.).                      |
|                                                                             |
 -----------------------------------------------------------------------------

  PAW_PBE C_h 06Feb2004                 :
 energy of atom  1       EATOM= -147.1560
 kinetic energy error for atom=    0.0031 (will be added to EATOM!!)
  PAW_PBE O_h 06Feb2004                 :
 energy of atom  2       EATOM= -432.3788
 kinetic energy error for atom=    0.0171 (will be added to EATOM!!)
 
 
 POSCAR:  C  O
  positions in cartesian coordinates
  No initial velocities read in

 METAGGA = SCAN     LMAXTAU =  6    LMIXTAU =  F

 exchange correlation table for  LEXCH =        8
   RHO(1)=    0.500       N(1)  =     2000
   RHO(2)=  100.500       N(2)  =     4000
 


--------------------------------------------------------------------------------------------------------


 ion  position               nearest neighbor table
   1  0.972  0.000  0.001-  50 1.42   2 1.42  42 1.42
   2  0.039  0.134  0.000-   5 1.42   7 1.42   1 1.42
   3  0.172  0.000  0.000-  42 1.42  44 1.42   4 1.42
   4  0.239  0.134  0.000-   7 1.42   3 1.42  23 1.42
   5  0.972  0.200  0.000-   6 1.42   2 1.42  34 1.42
   6  0.039  0.334  0.000-   5 1.42  21 1.42  11 1.42
   7  0.172  0.200  0.000-   8 1.42   2 1.42   4 1.42
   8  0.239  0.334  0.000-  13 1.42   7 1.42  21 1.42
   9  0.372  0.000  0.000-  10 1.42  44 1.42  46 1.42
  10  0.439  0.134  0.000-  27 1.42   9 1.42  23 1.42
  11  0.972  0.400  0.001-  12 1.42  36 1.42   6 1.42
  12  0.039  0.534  0.001-  25 1.42  11 1.42  17 1.42
  13  0.372  0.400  0.000-   8 1.42  14 1.42  24 1.42
  14  0.439  0.534  0.000-  13 1.42  29 1.42  19 1.42
  15  0.572  0.000  0.001-  46 1.42  16 1.42  48 1.42
  16  0.639  0.134  0.001-  15 1.42  35 1.42  27 1.42
  17  0.972  0.600  0.001-  38 1.42  18 1.42  12 1.42
  18  0.039  0.734  0.001-  43 1.42  41 1.42  17 1.42
  19  0.572  0.600  0.000-  14 1.42  20 1.42  32 1.42
  20  0.639  0.734  0.001-  49 1.42  19 1.42  47 1.42
  21  0.172  0.400  0.000-  22 1.42   8 1.42   6 1.42
  22  0.239  0.534  0.000-  21 1.42  29 1.42  25 1.42
  23  0.372  0.200  0.000-  10 1.42   4 1.42  24 1.42
  24  0.439  0.334  0.000-  13 1.42  31 1.42  23 1.42
  25  0.172  0.600  0.001-  26 1.42  12 1.42  22 1.42
  26  0.239  0.734  0.001-  25 1.42  45 1.42  43 1.42
  27  0.572  0.200  0.000-  10 1.42  28 1.42  16 1.42
  28  0.639  0.334  0.000-  27 1.42  37 1.42  31 1.42
  29  0.372  0.600  0.000-  22 1.42  14 1.42  30 1.42
  30  0.439  0.734  0.000-  47 1.42  29 1.42  45 1.42
  31  0.572  0.400  0.000-  32 1.42  28 1.42  24 1.42
  32  0.639  0.534  0.000-  31 1.42  39 1.42  19 1.42
  33  0.772  0.000  0.001-  34 1.42  48 1.42  50 1.42
  34  0.839  0.134  0.001-  33 1.42   5 1.42  35 1.42
  35  0.772  0.200  0.001-  36 1.42  16 1.42  34 1.42
  36  0.839  0.334  0.001-  35 1.42  11 1.42  37 1.42
  37  0.772  0.400  0.001-  28 1.42  38 1.42  36 1.42
  38  0.839  0.534  0.001-  17 1.42  37 1.42  39 1.42
  39  0.772  0.600  0.001-  40 1.42  38 1.42  32 1.42
  40  0.839  0.734  0.001-  39 1.42  49 1.42  41 1.42
  41  0.972  0.800  0.001-  18 1.42  42 1.42  40 1.42
  42  0.039  0.934  0.001-   3 1.42  41 1.42   1 1.42
  43  0.172  0.800  0.001-  18 1.42  44 1.42  26 1.42
  44  0.239  0.934  0.001-   9 1.42  43 1.42   3 1.42
  45  0.372  0.800  0.001-  26 1.42  46 1.42  30 1.42
  46  0.439  0.934  0.001-  15 1.42  45 1.42   9 1.42
  47  0.572  0.800  0.001-  30 1.42  48 1.42  20 1.42
  48  0.639  0.934  0.001-  47 1.42  33 1.42  15 1.42
  49  0.772  0.800  0.001-  50 1.42  20 1.42  40 1.42
  50  0.839  0.934  0.001-  49 1.42   1 1.42  33 1.42
  51  0.373  0.251  0.133-  52 1.18  53 1.18
  52  0.421  0.189  0.136-  51 1.18
  53  0.325  0.313  0.131-  51 1.18
 
  LATTYP: Found a hexagonal cell.
 ALAT       =    12.3250000000
 C/A-ratio  =     2.0283975659
  
  Lattice vectors:
  
 A1 = (  12.3250000000,   0.0000000000,   0.0000000000)
 A2 = (  -6.1625000000,  10.6737631016,   0.0000000000)
 A3 = (   0.0000000000,   0.0000000000,  25.0000000000)


Analysis of symmetry for initial positions (statically):
=====================================================================
 Subroutine PRICEL returns:
 Original cell was already a primitive cell.
 

 Routine SETGRP: Setting up the symmetry group for a 
 hexagonal supercell.


 Subroutine GETGRP returns: Found  1 space group operations
 (whereof  1 operations were pure point group operations)
 out of a pool of 24 trial point group operations.


The static configuration has the point symmetry C_1 .


Analysis of symmetry for dynamics (positions and initial velocities):
=====================================================================
 Subroutine PRICEL returns:
 Original cell was already a primitive cell.
 

 Routine SETGRP: Setting up the symmetry group for a 
 hexagonal supercell.


 Subroutine GETGRP returns: Found  1 space group operations
 (whereof  1 operations were pure point group operations)
 out of a pool of 24 trial point group operations.


The dynamic configuration has the point symmetry C_1 .


 Subroutine INISYM returns: Found  1 space group operations
 (whereof  1 operations are pure point group operations),
 and found     1 'primitive' translations


----------------------------------------------------------------------------------------

                                     Primitive cell                                     

  volume of cell :    3288.8533

  direct lattice vectors                    reciprocal lattice vectors
    12.325000000  0.000000000  0.000000000     0.081135903  0.046843835  0.000000000
    -6.162500000 10.673763102  0.000000000     0.000000000  0.093687670  0.000000000
     0.000000000  0.000000000 25.000000000     0.000000000  0.000000000  0.040000000

  length of vectors
    12.325000000 12.325000000 25.000000000     0.093687670  0.093687670  0.040000000

  position of ions in fractional coordinates (direct lattice)
     0.972450841  0.000320818  0.000566711
     0.039118382  0.133659505  0.000440173
     0.172443627  0.000295449  0.000499628
     0.239096278  0.133647917  0.000256468
     0.972452058  0.200322012  0.000485219
     0.039128360  0.333643771  0.000444150
     0.172451764  0.200354552  0.000219167
     0.239124359  0.333665720  0.000072260
     0.372465565  0.000324403  0.000453913
     0.439137473  0.133619939  0.000258338
     0.972449824  0.400309362  0.000547611
     0.039124981  0.533636789  0.000573410
     0.372416176  0.400329481  0.000000000
     0.439099602  0.533638981  0.000232414
     0.572443676  0.000312125  0.000559580
     0.639110207  0.133631751  0.000547275
     0.972452703  0.600305653  0.000640289
     0.039124495  0.733640359  0.000654513
     0.572433471  0.600306242  0.000402895
     0.639111888  0.733641879  0.000527905
     0.172454630  0.400318228  0.000289045
     0.239120185  0.533636548  0.000378509
     0.372459750  0.200295993  0.000088997
     0.439107096  0.333673419  0.000055762
     0.172452155  0.600311506  0.000524340
     0.239123371  0.733638574  0.000575129
     0.572431082  0.200289171  0.000413296
     0.639112773  0.333618630  0.000462376
     0.372439808  0.600308022  0.000362844
     0.439116090  0.733637858  0.000494190
     0.572469358  0.400320504  0.000339918
     0.639119408  0.533650873  0.000459610
     0.772445723  0.000315427  0.000596161
     0.839116277  0.133640203  0.000575306
     0.772440513  0.200307432  0.000581033
     0.839120241  0.333635728  0.000585467
     0.772446320  0.400298367  0.000582978
     0.839118980  0.533633964  0.000621100
     0.772456143  0.600308173  0.000595712
     0.839115033  0.733643180  0.000631512
     0.972455313  0.800305582  0.000652233
     0.039114714  0.933643289  0.000598051
     0.172457971  0.800312211  0.000623372
     0.239134551  0.933647193  0.000544850
     0.372451396  0.800316674  0.000551399
     0.439124489  0.933644769  0.000541430
     0.572441101  0.800310054  0.000534535
     0.639115067  0.933638985  0.000587644
     0.772445098  0.800313187  0.000602062
     0.839116614  0.933644338  0.000606830
     0.373021009  0.251226878  0.133483986
     0.420879805  0.189313152  0.136060860
     0.325156981  0.313167186  0.131105791

  ion indices of the primitive-cell ions
   primitive index   ion index
                 1           1
                 2           2
                 3           3
                 4           4
                 5           5
                 6           6
                 7           7
                 8           8
                 9           9
                10          10
                11          11
                12          12
                13          13
                14          14
                15          15
                16          16
                17          17
                18          18
                19          19
                20          20
                21          21
                22          22
                23          23
                24          24
                25          25
                26          26
                27          27
                28          28
                29          29
                30          30
                31          31
                32          32
                33          33
                34          34
                35          35
                36          36
                37          37
                38          38
                39          39
                40          40
                41          41
                42          42
                43          43
                44          44
                45          45
                46          46
                47          47
                48          48
                49          49
                50          50
                51          51
                52          52
                53          53

----------------------------------------------------------------------------------------

 
 
 KPOINTS: auto                                    

Automatic generation of k-mesh.
 Grid dimensions read from file:
 generate k-points for:    1    1    1

 Generating k-lattice:

  Cartesian coordinates                     Fractional coordinates (reciprocal lattice)
     0.081135903  0.046843835  0.000000000     1.000000000 -0.000000000  0.000000000
     0.000000000  0.093687670  0.000000000     0.000000000  1.000000000  0.000000000
     0.000000000  0.000000000  0.040000000     0.000000000  0.000000000  1.000000000

  Length of vectors
     0.093687670  0.093687670  0.040000000

  Shift w.r.t. Gamma in fractional coordinates (k-lattice)
     0.000000000  0.000000000  0.000000000

 
 Subroutine IBZKPT returns following result:
 ===========================================
 
 Found      1 irreducible k-points:
 
 Following reciprocal coordinates:
            Coordinates               Weight
  0.000000  0.000000  0.000000      1.000000
 
 Following cartesian coordinates:
            Coordinates               Weight
  0.000000  0.000000  0.000000      1.000000
 


--------------------------------------------------------------------------------------------------------




 Dimension of arrays:
   k-points           NKPTS =      1   k-points in BZ     NKDIM =      1   number of bands    NBANDS=    168
   number of dos      NEDOS =    301   number of ions     NIONS =     53
   non local maximal  LDIM  =      4   non local SUM 2l+1 LMDIM =      8
   total plane-waves  NPLWV = ******
   max r-space proj   IRMAX =      1   max aug-charges    IRDMAX=  10008
   dimension x,y,z NGX =   128 NGY =  128 NGZ =  270
   dimension x,y,z NGXF=   256 NGYF=  256 NGZF=  540
   support grid    NGXF=   256 NGYF=  256 NGZF=  540
   ions per type =              51   2
   NGX,Y,Z   is equivalent  to a cutoff of  17.27, 17.27, 17.95 a.u.
   NGXF,Y,Z  is equivalent  to a cutoff of  34.53, 34.53, 35.91 a.u.

 SYSTEM =  unknown system                          
 POSCAR =   C  O                                   

 Startparameter for this run:
   NWRITE =      2    write-flag & timer
   PREC   = accura    normal or accurate (medium, high low for compatibility)
   ISTART =      0    job   : 0-new  1-cont  2-samecut
   ICHARG =      2    charge: 1-file 2-atom 10-const
   ISPIN  =      1    spin polarized calculation?
   LNONCOLLINEAR =      F non collinear calculations
   LSORBIT =      F    spin-orbit coupling
   INIWAV =      1    electr: 0-lowe 1-rand  2-diag
   LASPH  =      T    aspherical Exc in radial PAW
 Electronic Relaxation 1
   ENCUT  = 1000.0 eV  73.50 Ry    8.57 a.u.  31.78 31.78 64.46*2*pi/ulx,y,z
   ENINI  = 1000.0     initial cutoff
   ENAUG  =  946.8 eV  augmentation charge cutoff
   NELM   =    200;   NELMIN=  2; NELMDL= -5     # of ELM steps 
   EDIFF  = 0.1E-06   stopping-criterion for ELM
   LREAL  =      F    real-space projection
   NLSPLINE    = F    spline interpolate recip. space projectors
   LCOMPAT=      F    compatible to vasp.4.4
   GGA_COMPAT  = T    GGA compatible to vasp.4.4-vasp.4.6
   LMAXPAW     = -100 max onsite density
   LMAXMIX     =    2 max onsite mixed and CHGCAR
   VOSKOWN=      0    Vosko Wilk Nusair interpolation
   ROPT   =    0.00000   0.00000
 Ionic relaxation
   EDIFFG = 0.1E-05   stopping-criterion for IOM
   NSW    =      0    number of steps for IOM
   NBLOCK =      1;   KBLOCK =      1    inner block; outer block 
   IBRION =     -1    ionic relax: 0-MD 1-quasi-New 2-CG
   NFREE  =      0    steps in history (QN), initial steepest desc. (CG)
   ISIF   =      0    stress and relaxation
   IWAVPR =     10    prediction:  0-non 1-charg 2-wave 3-comb
   ISYM   =      2    0-nonsym 1-usesym 2-fastsym
   LCORR  =      T    Harris-Foulkes like correction to forces

   POTIM  = 0.5000    time-step for ionic-motion
   TEIN   =    0.0    initial temperature
   TEBEG  =    0.0;   TEEND  =   0.0 temperature during run
   SMASS  =  -3.00    Nose mass-parameter (am)
   estimated Nose-frequenzy (Omega)   =  0.10E-29 period in steps = 0.13E+47 mass=  -0.347E-26a.u.
   SCALEE = 1.0000    scale energy and forces
   NPACO  =    256;   APACO  = 16.0  distance and # of slots for P.C.
   PSTRESS=    0.0 pullay stress

  Mass of Ions in am
   POMASS =  12.01 16.00
  Ionic Valenz
   ZVAL   =   4.00  6.00
  Atomic Wigner-Seitz radii
   RWIGS  =  -1.00 -1.00
  virtual crystal weights 
   VCA    =   1.00  1.00
   NELECT =     216.0000    total number of electrons
   NUPDOWN=      -1.0000    fix difference up-down

 DOS related values:
   EMIN   =  10.00;   EMAX   =-10.00  energy-range for DOS
   EFERMI =   0.00
   ISMEAR =     0;   SIGMA  =   0.01  broadening in eV -4-tet -1-fermi 0-gaus

 Electronic relaxation 2 (details)
   IALGO  =     58    algorithm
   LDIAG  =      T    sub-space diagonalisation (order eigenvalues)
   LSUBROT=      F    optimize rotation matrix (better conditioning)
   TURBO    =      0    0=normal 1=particle mesh
   IRESTART =      0    0=no restart 2=restart with 2 vectors
   NREBOOT  =      0    no. of reboots
   NMIN     =      0    reboot dimension
   EREF     =   0.00    reference energy to select bands
   IMIX   =      4    mixing-type and parameters
     AMIX     =   0.40;   BMIX     =  1.00
     AMIX_MAG =   1.60;   BMIX_MAG =  1.00
     AMIN     =   0.10
     WC   =   100.;   INIMIX=   1;  MIXPRE=   1;  MAXMIX= -45

 Intra band minimization:
   WEIMIN = 0.0000     energy-eigenvalue tresh-hold
   EBREAK =  0.15E-09  absolut break condition
   DEPER  =   0.30     relativ break condition  

   TIME   =   0.40     timestep for ELM

  volume/ion in A,a.u.               =      62.05       418.76
  Fermi-wavevector in a.u.,A,eV,Ry     =   0.660508  1.248179  5.935820  0.436270
  Thomas-Fermi vector in A             =   1.732977
 
 Write flags
   LWAVE        =      T    write WAVECAR
   LDOWNSAMPLE  =      F    k-point downsampling of WAVECAR
   LCHARG       =      T    write CHGCAR
   LVTOT        =      F    write LOCPOT, total local potential
   LVHAR        =      F    write LOCPOT, Hartree potential only
   LELF         =      F    write electronic localiz. function (ELF)
   LORBIT       =      0    0 simple, 1 ext, 2 COOP (PROOUT), +10 PAW based schemes


 Dipole corrections
   LMONO  =      F    monopole corrections only (constant potential shift)
   LDIPOL =      F    correct potential (dipole corrections)
   IDIPOL =      0    1-x, 2-y, 3-z, 4-all directions 
   EPSILON=  1.0000000 bulk dielectric constant

 Exchange correlation treatment:
   GGA     =    --    GGA type
   LEXCH   =     8    internal setting for exchange type
   VOSKOWN=      0    Vosko Wilk Nusair interpolation
   LHFCALC =     F    Hartree Fock is set to
   LHFONE  =     F    Hartree Fock one center treatment
   AEXX    =    0.0000 exact exchange contribution

 vdW DFT:
   LUSE_VDW   =     T    switch on vdW DFT
   Zab_VDW    =-.8491    correlation parameter
   PARAM1     =0.1234
   PARAM2     =1.0000
   PARAM3     =0.0000
   -- rVV10 --
   BPARAM     =15.7000
   CPARAM     = 0.0093

 Linear response parameters
   LEPSILON=     F    determine dielectric tensor
   LRPA    =     F    only Hartree local field effects (RPA)
   LNABLA  =     F    use nabla operator in PAW spheres
   LVEL    =     F    velocity operator in full k-point grid
   LINTERFAST=   F  fast interpolation
   KINTER  =     0    interpolate to denser k-point grid
   CSHIFT  =0.1000    complex shift for real part using Kramers Kronig
   OMEGAMAX=  -1.0    maximum frequency
   DEG_THRESHOLD= 0.2000000E-02 threshold for treating states as degnerate
   RTIME   =   -0.100 relaxation time in fs
  (WPLASMAI=    0.000 imaginary part of plasma frequency in eV, 0.658/RTIME)
   DFIELD  = 0.0000000 0.0000000 0.0000000 field for delta impulse in time
 
 Orbital magnetization related:
   ORBITALMAG=     F  switch on orbital magnetization
   LCHIMAG   =     F  perturbation theory with respect to B field
   DQ        =  0.001000  dq finite difference perturbation B field
   LLRAUG    =     F  two centre corrections for induced B field



--------------------------------------------------------------------------------------------------------


 Static calculation
 charge density and potential will be updated during run
 non-spin polarized calculation
 Conjugate gradient for all bands (Freysoldt, et al. PRB 79, 241103 (2009))
 preconditioned conjugated gradient                                        
 perform sub-space diagonalisation
    before iterative eigenvector-optimisation
 modified Broyden-mixing scheme, WC =      100.0
 initial mixing is a Kerker type mixing with AMIX =  0.4000 and BMIX =      1.0000
 Hartree-type preconditioning will be used
 using additional bands           60
 reciprocal scheme for non local part
 use partial core corrections
 no Harris-corrections to forces 
 use gradient corrections 
 use of overlap-Matrix (Vanderbilt PP)
 Gauss-broadening in eV      SIGMA  =   0.01


--------------------------------------------------------------------------------------------------------


  energy-cutoff  :     1000.00
  volume of cell :     3288.85
      direct lattice vectors                 reciprocal lattice vectors
    12.325000000  0.000000000  0.000000000     0.081135903  0.046843835  0.000000000
    -6.162500000 10.673763102  0.000000000     0.000000000  0.093687670  0.000000000
     0.000000000  0.000000000 25.000000000     0.000000000  0.000000000  0.040000000

  length of vectors
    12.325000000 12.325000000 25.000000000     0.093687670  0.093687670  0.040000000


 
 k-points in units of 2pi/SCALE and weight: auto                                    
   0.00000000  0.00000000  0.00000000       1.000
 
 k-points in reciprocal lattice and weights: auto                                    
   0.00000000  0.00000000  0.00000000       1.000
 
 position of ions in fractional coordinates (direct lattice) 
   0.97245084  0.00032082  0.00056671
   0.03911838  0.13365950  0.00044017
   0.17244363  0.00029545  0.00049963
   0.23909628  0.13364792  0.00025647
   0.97245206  0.20032201  0.00048522
   0.03912836  0.33364377  0.00044415
   0.17245176  0.20035455  0.00021917
   0.23912436  0.33366572  0.00007226
   0.37246557  0.00032440  0.00045391
   0.43913747  0.13361994  0.00025834
   0.97244982  0.40030936  0.00054761
   0.03912498  0.53363679  0.00057341
   0.37241618  0.40032948  0.00000000
   0.43909960  0.53363898  0.00023241
   0.57244368  0.00031213  0.00055958
   0.63911021  0.13363175  0.00054727
   0.97245270  0.60030565  0.00064029
   0.03912449  0.73364036  0.00065451
   0.57243347  0.60030624  0.00040289
   0.63911189  0.73364188  0.00052791
   0.17245463  0.40031823  0.00028904
   0.23912018  0.53363655  0.00037851
   0.37245975  0.20029599  0.00008900
   0.43910710  0.33367342  0.00005576
   0.17245216  0.60031151  0.00052434
   0.23912337  0.73363857  0.00057513
   0.57243108  0.20028917  0.00041330
   0.63911277  0.33361863  0.00046238
   0.37243981  0.60030802  0.00036284
   0.43911609  0.73363786  0.00049419
   0.57246936  0.40032050  0.00033992
   0.63911941  0.53365087  0.00045961
   0.77244572  0.00031543  0.00059616
   0.83911628  0.13364020  0.00057531
   0.77244051  0.20030743  0.00058103
   0.83912024  0.33363573  0.00058547
   0.77244632  0.40029837  0.00058298
   0.83911898  0.53363396  0.00062110
   0.77245614  0.60030817  0.00059571
   0.83911503  0.73364318  0.00063151
   0.97245531  0.80030558  0.00065223
   0.03911471  0.93364329  0.00059805
   0.17245797  0.80031221  0.00062337
   0.23913455  0.93364719  0.00054485
   0.37245140  0.80031667  0.00055140
   0.43912449  0.93364477  0.00054143
   0.57244110  0.80031005  0.00053453
   0.63911507  0.93363899  0.00058764
   0.77244510  0.80031319  0.00060206
   0.83911661  0.93364434  0.00060683
   0.37302101  0.25122688  0.13348399
   0.42087980  0.18931315  0.13606086
   0.32515698  0.31316719  0.13110579
 
 position of ions in cartesian coordinates  (Angst):
  11.98347958  0.00342433  0.01416777
  -0.34154264  1.42664989  0.01100432
   2.12354700  0.00315355  0.01249070
   2.12325634  1.42652621  0.00641170
  10.75098721  2.13818970  0.01213047
  -1.57382270  3.56123457  0.01110375
   0.89078307  2.13853702  0.00547917
   0.89099273  3.56146885  0.00180651
   4.58863896  0.00346260  0.01134782
   4.58893648  1.42622757  0.00645846
   9.51853763  4.27280730  0.01369027
  -2.80632132  5.69591267  0.01433526
   2.12299894  4.27302204  0.00000000
   2.12335237  5.69593607  0.00581036
   7.05344483  0.00333155  0.01398950
   7.05352764  1.42635365  0.01368187
   8.28609598  6.40752033  0.01600723
  -4.03884931  7.83070339  0.01636283
   3.35585531  6.40752662  0.01007237
   3.35598594  7.83071962  0.01319763
  -0.34145776  4.27290193  0.00722612
  -0.34137895  5.69591010  0.00946273
   3.35624236  2.13791198  0.00222492
   3.35573251  3.56155103  0.00139405
  -1.57394684  6.40758280  0.01310850
  -1.57385216  7.83068434  0.01437823
   5.82093107  2.13783916  0.01033241
   5.82114012  3.56096622  0.01155939
   0.89092245  6.40754561  0.00907111
   0.89106251  7.83067670  0.01235474
   4.58870974  4.27292622  0.00849795
   4.58852320  5.69606300  0.01149026
   9.51844972  0.00336679  0.01490402
   9.51855036  1.42644387  0.01438264
   8.28593477  2.13803408  0.01452582
   8.28612680  3.56114872  0.01463668
   7.05356221  4.27268994  0.01457444
   7.05362213  5.69588251  0.01552751
   5.82112285  6.40754723  0.01489279
   5.82101669  7.83073350  0.01578780
   7.05362858  8.54227219  0.01630582
  -5.27148792  9.96548729  0.01495127
  -2.80637951  8.54234295  0.01558431
  -2.80626749  9.96552896  0.01362126
  -0.34148805  8.54239058  0.01378498
  -0.34137657  9.96550309  0.01353576
   2.12342586  8.54231992  0.01336337
   2.12354296  9.96544135  0.01469111
   4.58845581  8.54235337  0.01505154
   4.58852904  9.96549848  0.01517076
   3.04929830  2.68153618  3.33709964
   4.02070129  2.02068374  3.40152150
   2.07766701  3.34267235  3.27764477
 


--------------------------------------------------------------------------------------------------------


 k-point   1 :   0.0000 0.0000 0.0000  plane waves:  236157

 maximum and minimum number of plane-waves per node :    236157   236157

 maximum number of plane-waves:    236157
 maximum index in each direction: 
   IXMAX=   31   IYMAX=   31   IZMAX=   64
   IXMIN=  -31   IYMIN=  -31   IZMIN=  -64


 serial   3D FFT for wavefunctions
 parallel 3D FFT for charge:
    minimum data exchange during FFTs selected (reduces bandwidth)


 total amount of memory used by VASP MPI-rank0   698619. kBytes
=======================================================================

   base      :      30000. kBytes
   nonl-proj :     230539. kBytes
   fftplans  :      40716. kBytes
   grid      :     363125. kBytes
   one-center:        162. kBytes
   wavefun   :      34077. kBytes
 
     INWAV:  cpu time    0.0000: real time    0.0000
 Broyden mixing: mesh for mixing (old mesh)
   NGX = 63   NGY = 63   NGZ =129
  (NGX  =256   NGY  =256   NGZ  =540)
  gives a total of 512001 points

 initial charge density was supplied:
 charge density of overlapping atoms calculated
 number of electron     216.0000000 magnetization 
 keeping initial charge density in first step


--------------------------------------------------------------------------------------------------------


 Maximum index for augmentation-charges          471 (set IRDMAX)


--------------------------------------------------------------------------------------------------------


 First call to EWALD:  gamma=   0.119
 Maximum number of real-space cells 4x 4x 2
 Maximum number of reciprocal cells 2x 2x 4

    FEWALD:  cpu time    0.0032: real time    0.0032


--------------------------------------- Iteration      1(   1)  ---------------------------------------


    POTLOK:  cpu time    8.4843: real time    8.5557
    SETDIJ:  cpu time    0.0030: real time    0.0031
    TRIAL :  cpu time   31.5893: real time   31.8630
    CORREC:  cpu time    0.0007: real time    0.0009
    --------------------------------------------
      LOOP:  cpu time   40.0943: real time   40.4467

 eigenvalue-minimisations  :   336
 total energy-change (2. order) : 0.2546742E+04  (-0.1079817E+05)
 number of electron     216.0000000 magnetization 
 augmentation part      216.0000000 magnetization 

 Free energy of the ion-electron system (eV)
  ---------------------------------------------------
  alpha Z        PSCENC =        47.94900195
  Ewald energy   TEWEN  =     47232.99051633
  -Hartree energ DENC   =    -53301.77898108
  -exchange      EXHF   =         0.00000000
  -V(xc)+E(xc)   XCENC  =       604.45378624
  PAW double counting   =      6339.73130699    -6197.22120962
  entropy T*S    EENTRO =        -0.00000000
  eigenvalues    EBANDS =      -548.90629351
  atomic energy  EATOM  =      8369.52358910
  ---------------------------------------------------
  free energy    TOTEN  =      2546.74171641 eV

  energy without entropy =     2546.74171641  energy(sigma->0) =     2546.74171641


--------------------------------------------------------------------------------------------------------




--------------------------------------- Iteration      1(   2)  ---------------------------------------


    TRIAL :  cpu time   44.9455: real time   45.2738
    CORREC:  cpu time    0.0001: real time    0.0001
    --------------------------------------------
      LOOP:  cpu time   44.9942: real time   45.3309

 eigenvalue-minimisations  :   560
 total energy-change (2. order) :-0.2485516E+04  (-0.2324307E+04)
 number of electron     216.0000000 magnetization 
 augmentation part      216.0000000 magnetization 

 Free energy of the ion-electron system (eV)
  ---------------------------------------------------
  alpha Z        PSCENC =        47.94900195
  Ewald energy   TEWEN  =     47232.99051633
  -Hartree energ DENC   =    -53301.77898108
  -exchange      EXHF   =         0.00000000
  -V(xc)+E(xc)   XCENC  =       604.45378624
  PAW double counting   =      6339.73130699    -6197.22120962
  entropy T*S    EENTRO =        -0.00000000
  eigenvalues    EBANDS =     -3034.42276611
  atomic energy  EATOM  =      8369.52358910
  ---------------------------------------------------
  free energy    TOTEN  =        61.22524381 eV

  energy without entropy =       61.22524381  energy(sigma->0) =       61.22524381


--------------------------------------------------------------------------------------------------------




--------------------------------------- Iteration      1(   3)  ---------------------------------------


    TRIAL :  cpu time   38.1823: real time   38.5003
    CORREC:  cpu time    0.0001: real time    0.0001
    --------------------------------------------
      LOOP:  cpu time   38.2222: real time   38.5536

 eigenvalue-minimisations  :   448
 total energy-change (2. order) :-0.6534047E+03  (-0.6507853E+03)
 number of electron     216.0000000 magnetization 
 augmentation part      216.0000000 magnetization 

 Free energy of the ion-electron system (eV)
  ---------------------------------------------------
  alpha Z        PSCENC =        47.94900195
  Ewald energy   TEWEN  =     47232.99051633
  -Hartree energ DENC   =    -53301.77898108
  -exchange      EXHF   =         0.00000000
  -V(xc)+E(xc)   XCENC  =       604.45378624
  PAW double counting   =      6339.73130699    -6197.22120962
  entropy T*S    EENTRO =        -0.00000000
  eigenvalues    EBANDS =     -3687.82744999
  atomic energy  EATOM  =      8369.52358910
  ---------------------------------------------------
  free energy    TOTEN  =      -592.17944008 eV

  energy without entropy =     -592.17944008  energy(sigma->0) =     -592.17944008


--------------------------------------------------------------------------------------------------------




--------------------------------------- Iteration      1(   4)  ---------------------------------------


    TRIAL :  cpu time   38.2115: real time   38.5345
    CORREC:  cpu time    0.0001: real time    0.0001
    --------------------------------------------
      LOOP:  cpu time   38.3083: real time   38.6351

 eigenvalue-minimisations  :   448
 total energy-change (2. order) :-0.2246176E+02  (-0.2235566E+02)
 number of electron     216.0000000 magnetization 
 augmentation part      216.0000000 magnetization 

 Free energy of the ion-electron system (eV)
  ---------------------------------------------------
  alpha Z        PSCENC =        47.94900195
  Ewald energy   TEWEN  =     47232.99051633
  -Hartree energ DENC   =    -53301.77898108
  -exchange      EXHF   =         0.00000000
  -V(xc)+E(xc)   XCENC  =       604.45378624
  PAW double counting   =      6339.73130699    -6197.22120962
  entropy T*S    EENTRO =        -0.00000000
  eigenvalues    EBANDS =     -3710.28921423
  atomic energy  EATOM  =      8369.52358910
  ---------------------------------------------------
  free energy    TOTEN  =      -614.64120431 eV

  energy without entropy =     -614.64120431  energy(sigma->0) =     -614.64120431


--------------------------------------------------------------------------------------------------------




--------------------------------------- Iteration      1(   5)  ---------------------------------------


    TRIAL :  cpu time   38.1428: real time   38.4998
    CORREC:  cpu time    0.0001: real time    0.0001
    CHARGE:  cpu time    3.2606: real time    3.2827
    --------------------------------------------
      LOOP:  cpu time   41.4545: real time   41.8352

 eigenvalue-minimisations  :   448
 total energy-change (2. order) :-0.7104186E+00  (-0.7088244E+00)
 number of electron     216.0000000 magnetization 
 augmentation part       -0.4305826 magnetization 

 Free energy of the ion-electron system (eV)
  ---------------------------------------------------
  alpha Z        PSCENC =        47.94900195
  Ewald energy   TEWEN  =     47232.99051633
  -Hartree energ DENC   =    -53301.77898108
  -exchange      EXHF   =         0.00000000
  -V(xc)+E(xc)   XCENC  =       604.45378624
  PAW double counting   =      6339.73130699    -6197.22120962
  entropy T*S    EENTRO =        -0.00000000
  eigenvalues    EBANDS =     -3710.99963278
  atomic energy  EATOM  =      8369.52358910
  ---------------------------------------------------
  free energy    TOTEN  =      -615.35162286 eV

  energy without entropy =     -615.35162286  energy(sigma->0) =     -615.35162286


--------------------------------------------------------------------------------------------------------




--------------------------------------- Iteration      1(   6)  ---------------------------------------


    POTLOK:  cpu time    8.4417: real time    8.4961
    SETDIJ:  cpu time    0.0019: real time    0.0019
    TRIAL :  cpu time   22.4439: real time   22.6075
    CORREC:  cpu time   16.1684: real time   16.2810
    CHARGE:  cpu time    3.2521: real time    3.2747
    --------------------------------------------
      LOOP:  cpu time   50.3672: real time   50.7209

 eigenvalue-minimisations  :     0
 total energy-change (2. order) : 0.1037340E+03  (-0.1204821E+02)
 number of electron     216.0000000 magnetization 
 augmentation part       -0.4894941 magnetization 

 Free energy of the ion-electron system (eV)
  ---------------------------------------------------
  alpha Z        PSCENC =        47.94900195
  Ewald energy   TEWEN  =     47232.99051633
  -Hartree energ DENC   =    -54658.55932384
  -exchange      EXHF   =         0.00000000
  -V(xc)+E(xc)   XCENC  =       670.91248231
  PAW double counting   =    113898.46943581  -113761.67815381
  entropy T*S    EENTRO =        -0.00000000
  eigenvalues    EBANDS =     -2311.22519371
  atomic energy  EATOM  =      8369.52358910
  ---------------------------------------------------
  free energy    TOTEN  =      -511.61764585 eV

  energy without entropy =     -511.61764585  energy(sigma->0) =     -511.61764585


--------------------------------------------------------------------------------------------------------




--------------------------------------- Iteration      1(   7)  ---------------------------------------


    POTLOK:  cpu time    8.4136: real time    8.4675
    SETDIJ:  cpu time    0.0021: real time    0.0021
    TRIAL :  cpu time   22.3958: real time   22.5909
    CORREC:  cpu time   16.1613: real time   16.2790
    CHARGE:  cpu time    3.2380: real time    3.2804
    --------------------------------------------
      LOOP:  cpu time   50.2287: real time   50.6770

 eigenvalue-minimisations  :     0
 total energy-change (2. order) :-0.1205970E+02  (-0.1537914E+01)
 number of electron     216.0000000 magnetization 
 augmentation part       -0.5200561 magnetization 

 Free energy of the ion-electron system (eV)
  ---------------------------------------------------
  alpha Z        PSCENC =        47.94900195
  Ewald energy   TEWEN  =     47232.99051633
  -Hartree energ DENC   =    -54227.14171950
  -exchange      EXHF   =         0.00000000
  -V(xc)+E(xc)   XCENC  =       651.07492021
  PAW double counting   =    132093.30183424  -131953.75777169
  entropy T*S    EENTRO =        -0.00000000
  eigenvalues    EBANDS =     -2737.61771875
  atomic energy  EATOM  =      8369.52358910
  ---------------------------------------------------
  free energy    TOTEN  =      -523.67734811 eV

  energy without entropy =     -523.67734811  energy(sigma->0) =     -523.67734811


--------------------------------------------------------------------------------------------------------




--------------------------------------- Iteration      1(   8)  ---------------------------------------


    POTLOK:  cpu time    8.4020: real time    8.4623
    SETDIJ:  cpu time    0.0019: real time    0.0020
    TRIAL :  cpu time   22.3825: real time   22.5897
    CORREC:  cpu time   16.1667: real time   16.2957
    CHARGE:  cpu time    3.2434: real time    3.2692
    --------------------------------------------
      LOOP:  cpu time   50.2606: real time   50.6865

 eigenvalue-minimisations  :     0
 total energy-change (2. order) :-0.1538839E+01  (-0.4924664E+00)
 number of electron     216.0000000 magnetization 
 augmentation part       -0.5188102 magnetization 

 Free energy of the ion-electron system (eV)
  ---------------------------------------------------
  alpha Z        PSCENC =        47.94900195
  Ewald energy   TEWEN  =     47232.99051633
  -Hartree energ DENC   =    -54201.20078780
  -exchange      EXHF   =         0.00000000
  -V(xc)+E(xc)   XCENC  =       649.55014680
  PAW double counting   =    140327.60006083  -140187.57687573
  entropy T*S    EENTRO =        -0.00000000
  eigenvalues    EBANDS =     -2764.05183852
  atomic energy  EATOM  =      8369.52358910
  ---------------------------------------------------
  free energy    TOTEN  =      -525.21618705 eV

  energy without entropy =     -525.21618705  energy(sigma->0) =     -525.21618705


--------------------------------------------------------------------------------------------------------




--------------------------------------- Iteration      1(   9)  ---------------------------------------


    POTLOK:  cpu time    8.4131: real time    8.4652
    SETDIJ:  cpu time    0.0021: real time    0.0021
    TRIAL :  cpu time   22.4239: real time   22.5822
    CORREC:  cpu time   16.1590: real time   16.2992
    CHARGE:  cpu time    3.2551: real time    3.2785
    --------------------------------------------
      LOOP:  cpu time   50.2822: real time   50.6572

 eigenvalue-minimisations  :     0
 total energy-change (2. order) :-0.4921727E+00  (-0.1894693E+00)
 number of electron     216.0000000 magnetization 
 augmentation part       -0.5140375 magnetization 

 Free energy of the ion-electron system (eV)
  ---------------------------------------------------
  alpha Z        PSCENC =        47.94900195
  Ewald energy   TEWEN  =     47232.99051633
  -Hartree energ DENC   =    -54208.48335455
  -exchange      EXHF   =         0.00000000
  -V(xc)+E(xc)   XCENC  =       649.30701374
  PAW double counting   =    146392.16434673  -146251.94402666
  entropy T*S    EENTRO =        -0.00000000
  eigenvalues    EBANDS =     -2757.21544637
  atomic energy  EATOM  =      8369.52358910
  ---------------------------------------------------
  free energy    TOTEN  =      -525.70835972 eV

  energy without entropy =     -525.70835972  energy(sigma->0) =     -525.70835972


--------------------------------------------------------------------------------------------------------




--------------------------------------- Iteration      1(  10)  ---------------------------------------


    POTLOK:  cpu time    8.4138: real time    8.4687
    SETDIJ:  cpu time    0.0019: real time    0.0019
    TRIAL :  cpu time   22.4316: real time   22.5984
    CORREC:  cpu time   16.1849: real time   16.3114
    CHARGE:  cpu time    3.2479: real time    3.2850
    --------------------------------------------
      LOOP:  cpu time   50.3565: real time   50.7424

 eigenvalue-minimisations  :     0
 total energy-change (2. order) :-0.1892947E+00  (-0.7949961E-01)
 number of electron     216.0000000 magnetization 
 augmentation part       -0.5082186 magnetization 

 Free energy of the ion-electron system (eV)
  ---------------------------------------------------
  alpha Z        PSCENC =        47.94900195
  Ewald energy   TEWEN  =     47232.99051633
  -Hartree energ DENC   =    -54208.08445491
  -exchange      EXHF   =         0.00000000
  -V(xc)+E(xc)   XCENC  =       649.12016603
  PAW double counting   =    148684.95394061  -148544.63986023
  entropy T*S    EENTRO =        -0.00000000
  eigenvalues    EBANDS =     -2757.71055325
  atomic energy  EATOM  =      8369.52358910
  ---------------------------------------------------
  free energy    TOTEN  =      -525.89765437 eV

  energy without entropy =     -525.89765437  energy(sigma->0) =     -525.89765437


--------------------------------------------------------------------------------------------------------




--------------------------------------- Iteration      1(  11)  ---------------------------------------


    POTLOK:  cpu time    8.4166: real time    8.4698
    SETDIJ:  cpu time    0.0022: real time    0.0023
    TRIAL :  cpu time   22.4120: real time   22.5857
    CORREC:  cpu time   16.2186: real time   16.3334
    CHARGE:  cpu time    3.2584: real time    3.2818
    --------------------------------------------
      LOOP:  cpu time   50.3478: real time   50.7175

 eigenvalue-minimisations  :     0
 total energy-change (2. order) :-0.7929426E-01  (-0.3138875E-01)
 number of electron     216.0000000 magnetization 
 augmentation part       -0.5046814 magnetization 

 Free energy of the ion-electron system (eV)
  ---------------------------------------------------
  alpha Z        PSCENC =        47.94900195
  Ewald energy   TEWEN  =     47232.99051633
  -Hartree energ DENC   =    -54202.57454407
  -exchange      EXHF   =         0.00000000
  -V(xc)+E(xc)   XCENC  =       648.99242246
  PAW double counting   =    148559.61758979  -148419.30218054
  entropy T*S    EENTRO =        -0.00000000
  eigenvalues    EBANDS =     -2763.17334366
  atomic energy  EATOM  =      8369.52358910
  ---------------------------------------------------
  free energy    TOTEN  =      -525.97694864 eV

  energy without entropy =     -525.97694864  energy(sigma->0) =     -525.97694864


--------------------------------------------------------------------------------------------------------




--------------------------------------- Iteration      1(  12)  ---------------------------------------


    POTLOK:  cpu time    8.4074: real time    8.4715
    SETDIJ:  cpu time    0.0021: real time    0.0022
    TRIAL :  cpu time   22.4253: real time   22.5840
    CORREC:  cpu time   16.2137: real time   16.3399
    CHARGE:  cpu time    3.2510: real time    3.2737
    --------------------------------------------
      LOOP:  cpu time   50.3787: real time   50.7532

 eigenvalue-minimisations  :     0
 total energy-change (2. order) :-0.3130091E-01  (-0.1018951E-01)
 number of electron     216.0000000 magnetization 
 augmentation part       -0.5047200 magnetization 

 Free energy of the ion-electron system (eV)
  ---------------------------------------------------
  alpha Z        PSCENC =        47.94900195
  Ewald energy   TEWEN  =     47232.99051633
  -Hartree energ DENC   =    -54198.02244065
  -exchange      EXHF   =         0.00000000
  -V(xc)+E(xc)   XCENC  =       648.89581738
  PAW double counting   =    147853.61228502  -147713.32177454
  entropy T*S    EENTRO =        -0.00000000
  eigenvalues    EBANDS =     -2767.63524413
  atomic energy  EATOM  =      8369.52358910
  ---------------------------------------------------
  free energy    TOTEN  =      -526.00824954 eV

  energy without entropy =     -526.00824954  energy(sigma->0) =     -526.00824954


--------------------------------------------------------------------------------------------------------




--------------------------------------- Iteration      1(  13)  ---------------------------------------


    POTLOK:  cpu time    8.4412: real time    8.4925
    SETDIJ:  cpu time    0.0020: real time    0.0020
    TRIAL :  cpu time   22.3965: real time   22.5999
    CORREC:  cpu time   16.1925: real time   16.3443
    CHARGE:  cpu time    3.2421: real time    3.2693
    --------------------------------------------
      LOOP:  cpu time   50.3333: real time   50.7908

 eigenvalue-minimisations  :     0
 total energy-change (2. order) :-0.1017799E-01  (-0.2802486E-02)
 number of electron     216.0000000 magnetization 
 augmentation part       -0.5053504 magnetization 

 Free energy of the ion-electron system (eV)
  ---------------------------------------------------
  alpha Z        PSCENC =        47.94900195
  Ewald energy   TEWEN  =     47232.99051633
  -Hartree energ DENC   =    -54196.53156996
  -exchange      EXHF   =         0.00000000
  -V(xc)+E(xc)   XCENC  =       648.84489673
  PAW double counting   =    147324.34929034  -147184.07102168
  entropy T*S    EENTRO =        -0.00000000
  eigenvalues    EBANDS =     -2769.07313034
  atomic energy  EATOM  =      8369.52358910
  ---------------------------------------------------
  free energy    TOTEN  =      -526.01842754 eV

  energy without entropy =     -526.01842754  energy(sigma->0) =     -526.01842754


--------------------------------------------------------------------------------------------------------




--------------------------------------- Iteration      1(  14)  ---------------------------------------


    POTLOK:  cpu time    8.4313: real time    8.4861
    SETDIJ:  cpu time    0.0019: real time    0.0019
    TRIAL :  cpu time   22.4004: real time   22.5711
    CORREC:  cpu time   16.2049: real time   16.3161
    CHARGE:  cpu time    3.2540: real time    3.2834
    --------------------------------------------
      LOOP:  cpu time   50.3396: real time   50.7195

 eigenvalue-minimisations  :     0
 total energy-change (2. order) :-0.2807999E-02  (-0.7138579E-03)
 number of electron     216.0000000 magnetization 
 augmentation part       -0.5055712 magnetization 

 Free energy of the ion-electron system (eV)
  ---------------------------------------------------
  alpha Z        PSCENC =        47.94900195
  Ewald energy   TEWEN  =     47232.99051633
  -Hartree energ DENC   =    -54196.51999064
  -exchange      EXHF   =         0.00000000
  -V(xc)+E(xc)   XCENC  =       648.84033190
  PAW double counting   =    147094.81230285  -146954.53931202
  entropy T*S    EENTRO =        -0.00000000
  eigenvalues    EBANDS =     -2769.07767501
  atomic energy  EATOM  =      8369.52358910
  ---------------------------------------------------
  free energy    TOTEN  =      -526.02123554 eV

  energy without entropy =     -526.02123554  energy(sigma->0) =     -526.02123554


--------------------------------------------------------------------------------------------------------




--------------------------------------- Iteration      1(  15)  ---------------------------------------


    POTLOK:  cpu time    8.4138: real time    8.4704
    SETDIJ:  cpu time    0.0020: real time    0.0020
    TRIAL :  cpu time   22.4303: real time   22.5967
    CORREC:  cpu time   16.1923: real time   16.3243
    CHARGE:  cpu time    3.2559: real time    3.2783
    --------------------------------------------
      LOOP:  cpu time   50.3112: real time   50.6946

 eigenvalue-minimisations  :     0
 total energy-change (2. order) :-0.7194756E-03  (-0.1799012E-03)
 number of electron     216.0000000 magnetization 
 augmentation part       -0.5056682 magnetization 

 Free energy of the ion-electron system (eV)
  ---------------------------------------------------
  alpha Z        PSCENC =        47.94900195
  Ewald energy   TEWEN  =     47232.99051633
  -Hartree energ DENC   =    -54196.44348363
  -exchange      EXHF   =         0.00000000
  -V(xc)+E(xc)   XCENC  =       648.84204659
  PAW double counting   =    147007.11883512  -146866.84837036
  entropy T*S    EENTRO =        -0.00000000
  eigenvalues    EBANDS =     -2769.15409010
  atomic energy  EATOM  =      8369.52358910
  ---------------------------------------------------
  free energy    TOTEN  =      -526.02195501 eV

  energy without entropy =     -526.02195501  energy(sigma->0) =     -526.02195501


--------------------------------------------------------------------------------------------------------




--------------------------------------- Iteration      1(  16)  ---------------------------------------


    POTLOK:  cpu time    8.4452: real time    8.5001
    SETDIJ:  cpu time    0.0022: real time    0.0022
    TRIAL :  cpu time   22.4604: real time   22.6227
    CORREC:  cpu time   16.1852: real time   16.3121
    CHARGE:  cpu time    3.2633: real time    3.2860
    --------------------------------------------
      LOOP:  cpu time   50.3999: real time   50.7720

 eigenvalue-minimisations  :     0
 total energy-change (2. order) :-0.1834503E-03  (-0.5810813E-04)
 number of electron     216.0000000 magnetization 
 augmentation part       -0.5057041 magnetization 

 Free energy of the ion-electron system (eV)
  ---------------------------------------------------
  alpha Z        PSCENC =        47.94900195
  Ewald energy   TEWEN  =     47232.99051633
  -Hartree energ DENC   =    -54196.35549894
  -exchange      EXHF   =         0.00000000
  -V(xc)+E(xc)   XCENC  =       648.84088995
  PAW double counting   =    146956.78823577  -146816.51830053
  entropy T*S    EENTRO =        -0.00000000
  eigenvalues    EBANDS =     -2769.24057210
  atomic energy  EATOM  =      8369.52358910
  ---------------------------------------------------
  free energy    TOTEN  =      -526.02213846 eV

  energy without entropy =     -526.02213846  energy(sigma->0) =     -526.02213846


--------------------------------------------------------------------------------------------------------




--------------------------------------- Iteration      1(  17)  ---------------------------------------


    POTLOK:  cpu time    8.4212: real time    8.4751
    SETDIJ:  cpu time    0.0031: real time    0.0031
    TRIAL :  cpu time   22.4048: real time   22.6019
    CORREC:  cpu time   16.1621: real time   16.2922
    CHARGE:  cpu time    3.2537: real time    3.2799
    --------------------------------------------
      LOOP:  cpu time   50.2811: real time   50.7253

 eigenvalue-minimisations  :     0
 total energy-change (2. order) :-0.5744290E-04  (-0.2116424E-04)
 number of electron     216.0000000 magnetization 
 augmentation part       -0.5057179 magnetization 

 Free energy of the ion-electron system (eV)
  ---------------------------------------------------
  alpha Z        PSCENC =        47.94900195
  Ewald energy   TEWEN  =     47232.99051633
  -Hartree energ DENC   =    -54196.46741981
  -exchange      EXHF   =         0.00000000
  -V(xc)+E(xc)   XCENC  =       648.84672600
  PAW double counting   =    146917.22965709  -146776.96035923
  entropy T*S    EENTRO =        -0.00000000
  eigenvalues    EBANDS =     -2769.13390733
  atomic energy  EATOM  =      8369.52358910
  ---------------------------------------------------
  free energy    TOTEN  =      -526.02219590 eV

  energy without entropy =     -526.02219590  energy(sigma->0) =     -526.02219590


--------------------------------------------------------------------------------------------------------




--------------------------------------- Iteration      1(  18)  ---------------------------------------


    POTLOK:  cpu time    8.4132: real time    8.4674
    SETDIJ:  cpu time    0.0022: real time    0.0022
    TRIAL :  cpu time   22.3928: real time   22.5593
    CORREC:  cpu time   16.1777: real time   16.3209
    CHARGE:  cpu time    3.2535: real time    3.2783
    --------------------------------------------
      LOOP:  cpu time   50.3012: real time   50.6938

 eigenvalue-minimisations  :     0
 total energy-change (2. order) :-0.2000041E-04  (-0.6294468E-05)
 number of electron     216.0000000 magnetization 
 augmentation part       -0.5057453 magnetization 

 Free energy of the ion-electron system (eV)
  ---------------------------------------------------
  alpha Z        PSCENC =        47.94900195
  Ewald energy   TEWEN  =     47232.99051633
  -Hartree energ DENC   =    -54196.56005421
  -exchange      EXHF   =         0.00000000
  -V(xc)+E(xc)   XCENC  =       648.85097043
  PAW double counting   =    146897.39622101  -146757.12706641
  entropy T*S    EENTRO =        -0.00000000
  eigenvalues    EBANDS =     -2769.04539411
  atomic energy  EATOM  =      8369.52358910
  ---------------------------------------------------
  free energy    TOTEN  =      -526.02221590 eV

  energy without entropy =     -526.02221590  energy(sigma->0) =     -526.02221590


--------------------------------------------------------------------------------------------------------




--------------------------------------- Iteration      1(  19)  ---------------------------------------


    POTLOK:  cpu time    8.4324: real time    8.4869
    SETDIJ:  cpu time    0.0019: real time    0.0019
    TRIAL :  cpu time   22.3796: real time   22.5785
    CORREC:  cpu time   16.2035: real time   16.3267
    CHARGE:  cpu time    3.2630: real time    3.2860
    --------------------------------------------
      LOOP:  cpu time   50.3110: real time   50.7390

 eigenvalue-minimisations  :     0
 total energy-change (2. order) :-0.6447401E-05  (-0.6160941E-05)
 number of electron     216.0000000 magnetization 
 augmentation part       -0.5057829 magnetization 

 Free energy of the ion-electron system (eV)
  ---------------------------------------------------
  alpha Z        PSCENC =        47.94900195
  Ewald energy   TEWEN  =     47232.99051633
  -Hartree energ DENC   =    -54196.56242098
  -exchange      EXHF   =         0.00000000
  -V(xc)+E(xc)   XCENC  =       648.85062928
  PAW double counting   =    146897.43825239  -146757.16870853
  entropy T*S    EENTRO =        -0.00000000
  eigenvalues    EBANDS =     -2769.04308190
  atomic energy  EATOM  =      8369.52358910
  ---------------------------------------------------
  free energy    TOTEN  =      -526.02222235 eV

  energy without entropy =     -526.02222235  energy(sigma->0) =     -526.02222235


--------------------------------------------------------------------------------------------------------




--------------------------------------- Iteration      1(  20)  ---------------------------------------


    POTLOK:  cpu time    8.4132: real time    8.4635
    SETDIJ:  cpu time    0.0020: real time    0.0020
    TRIAL :  cpu time   22.4366: real time   22.5975
    CORREC:  cpu time   16.2124: real time   16.3219
    CHARGE:  cpu time    3.2435: real time    3.2665
    --------------------------------------------
      LOOP:  cpu time   50.3453: real time   50.6933

 eigenvalue-minimisations  :     0
 total energy-change (2. order) :-0.8539064E-06  (-0.4354267E-05)
 number of electron     216.0000000 magnetization 
 augmentation part       -0.5057776 magnetization 

 Free energy of the ion-electron system (eV)
  ---------------------------------------------------
  alpha Z        PSCENC =        47.94900195
  Ewald energy   TEWEN  =     47232.99051633
  -Hartree energ DENC   =    -54196.58981717
  -exchange      EXHF   =         0.00000000
  -V(xc)+E(xc)   XCENC  =       648.85114965
  PAW double counting   =    146911.47998332  -146771.20999511
  entropy T*S    EENTRO =        -0.00000000
  eigenvalues    EBANDS =     -2769.01665128
  atomic energy  EATOM  =      8369.52358910
  ---------------------------------------------------
  free energy    TOTEN  =      -526.02222321 eV

  energy without entropy =     -526.02222321  energy(sigma->0) =     -526.02222321


--------------------------------------------------------------------------------------------------------




--------------------------------------- Iteration      1(  21)  ---------------------------------------


    POTLOK:  cpu time    8.4045: real time    8.4881
    SETDIJ:  cpu time    0.0019: real time    0.0019
    TRIAL :  cpu time   22.4217: real time   22.5882
    CORREC:  cpu time   16.1783: real time   16.3060
    CHARGE:  cpu time    3.2554: real time    3.2790
    --------------------------------------------
      LOOP:  cpu time   50.2990: real time   50.7030

 eigenvalue-minimisations  :     0
 total energy-change (2. order) :-0.4305650E-05  (-0.5481042E-06)
 number of electron     216.0000000 magnetization 
 augmentation part       -0.5057685 magnetization 

 Free energy of the ion-electron system (eV)
  ---------------------------------------------------
  alpha Z        PSCENC =        47.94900195
  Ewald energy   TEWEN  =     47232.99051633
  -Hartree energ DENC   =    -54196.58953183
  -exchange      EXHF   =         0.00000000
  -V(xc)+E(xc)   XCENC  =       648.85100736
  PAW double counting   =    146910.25964885  -146769.98973109
  entropy T*S    EENTRO =        -0.00000000
  eigenvalues    EBANDS =     -2769.01672818
  atomic energy  EATOM  =      8369.52358910
  ---------------------------------------------------
  free energy    TOTEN  =      -526.02222751 eV

  energy without entropy =     -526.02222751  energy(sigma->0) =     -526.02222751


--------------------------------------------------------------------------------------------------------




--------------------------------------- Iteration      1(  22)  ---------------------------------------


    POTLOK:  cpu time    8.4179: real time    8.4913
    SETDIJ:  cpu time    0.0019: real time    0.0020
    TRIAL :  cpu time   22.4147: real time   22.5957
    CORREC:  cpu time   16.1833: real time   16.3274
    CHARGE:  cpu time    3.2605: real time    3.2831
    --------------------------------------------
      LOOP:  cpu time   50.3352: real time   50.7610

 eigenvalue-minimisations  :     0
 total energy-change (2. order) :-0.5205220E-06  (-0.3979259E-07)
 number of electron     216.0000000 magnetization 
 augmentation part       -0.5057676 magnetization 

 Free energy of the ion-electron system (eV)
  ---------------------------------------------------
  alpha Z        PSCENC =        47.94900195
  Ewald energy   TEWEN  =     47232.99051633
  -Hartree energ DENC   =    -54196.58885735
  -exchange      EXHF   =         0.00000000
  -V(xc)+E(xc)   XCENC  =       648.85106838
  PAW double counting   =    146909.58311132  -146769.31330761
  entropy T*S    EENTRO =        -0.00000000
  eigenvalues    EBANDS =     -2769.01735015
  atomic energy  EATOM  =      8369.52358910
  ---------------------------------------------------
  free energy    TOTEN  =      -526.02222803 eV

  energy without entropy =     -526.02222803  energy(sigma->0) =     -526.02222803


--------------------------------------------------------------------------------------------------------




--------------------------------------- Iteration      1(  23)  ---------------------------------------


    POTLOK:  cpu time    8.4233: real time    8.4777
    SETDIJ:  cpu time    0.0019: real time    0.0019
    TRIAL :  cpu time   22.3623: real time   22.5792
    CORREC:  cpu time   16.1623: real time   16.2932
    EDDIAG:  cpu time    4.6040: real time    4.6494
    CHARGE:  cpu time    3.2430: real time    3.2703
    --------------------------------------------
      LOOP:  cpu time   54.8574: real time   55.3553

 eigenvalue-minimisations  :     0
 total energy-change (2. order) : 0.1746230E-07  (-0.2192962E-07)
 number of electron     216.0000000 magnetization 
 augmentation part       -0.5057674 magnetization 

 Free energy of the ion-electron system (eV)
  ---------------------------------------------------
  alpha Z        PSCENC =        47.94900195
  Ewald energy   TEWEN  =     47232.99051633
  -Hartree energ DENC   =    -54196.58677822
  -exchange      EXHF   =         0.00000000
  -V(xc)+E(xc)   XCENC  =       648.85098764
  PAW double counting   =    146909.69469699  -146769.42490132
  entropy T*S    EENTRO =        -0.00000000
  eigenvalues    EBANDS =     -2769.01934049
  atomic energy  EATOM  =      8369.52358910
  ---------------------------------------------------
  free energy    TOTEN  =      -526.02222801 eV

  energy without entropy =     -526.02222801  energy(sigma->0) =     -526.02222801


--------------------------------------------------------------------------------------------------------


  average scaling for gradient   0.8495


 average (electrostatic) potential at core
  the test charge radii are     0.5770  0.5955
  (the norm of the test charge is              1.0000)
       1 -88.0778       2 -88.0720       3 -88.0837       4 -88.0916       5 -88.0668
       6 -88.0623       7 -88.0791       8 -88.0627       9 -88.0672      10 -88.0742
      11 -88.0636      12 -88.0689      13 -88.0718      14 -88.0624      15 -88.0610
      16 -88.0639      17 -88.0692      18 -88.0734      19 -88.0737      20 -88.0682
      21 -88.0601      22 -88.0578      23 -88.0905      24 -88.0874      25 -88.0650
      26 -88.0663      27 -88.0647      28 -88.0780      29 -88.0638      30 -88.0615
      31 -88.0831      32 -88.0755      33 -88.0712      34 -88.0672      35 -88.0618
      36 -88.0679      37 -88.0664      38 -88.0734      39 -88.0730      40 -88.0733
      41 -88.0748      42 -88.0780      43 -88.0701      44 -88.0768      45 -88.0643
      46 -88.0626      47 -88.0690      48 -88.0654      49 -88.0737      50 -88.0719
      51 -92.1284      52-124.2540      53-124.2624
 
 
 
 E-fermi :  -4.4071     XC(G=0):  -1.8563     alpha+bet : -1.6890

 Fermi energy:        -4.4070661720

 k-point     1 :       0.0000    0.0000    0.0000
  band No.  band energies     occupation 
      1     -29.1840      2.00000
      2     -28.1591      2.00000
      3     -23.5804      2.00000
      4     -22.6020      2.00000
      5     -22.5980      2.00000
      6     -22.5922      2.00000
      7     -22.5921      2.00000
      8     -22.5890      2.00000
      9     -22.5875      2.00000
     10     -20.6653      2.00000
     11     -20.6644      2.00000
     12     -20.6605      2.00000
     13     -20.6599      2.00000
     14     -20.6588      2.00000
     15     -20.6586      2.00000
     16     -19.7281      2.00000
     17     -19.7271      2.00000
     18     -19.7261      2.00000
     19     -19.7243      2.00000
     20     -19.7240      2.00000
     21     -19.7236      2.00000
     22     -17.5074      2.00000
     23     -17.5065      2.00000
     24     -17.5045      2.00000
     25     -17.5040      2.00000
     26     -17.5004      2.00000
     27     -17.5001      2.00000
     28     -16.3485      2.00000
     29     -16.3480      2.00000
     30     -16.3451      2.00000
     31     -16.3449      2.00000
     32     -16.3442      2.00000
     33     -16.3439      2.00000
     34     -14.9542      2.00000
     35     -14.9541      2.00000
     36     -14.9539      2.00000
     37     -14.9524      2.00000
     38     -14.9522      2.00000
     39     -14.9509      2.00000
     40     -13.1463      2.00000
     41     -12.4951      2.00000
     42     -12.4950      2.00000
     43     -12.4931      2.00000
     44     -12.4930      2.00000
     45     -12.4927      2.00000
     46     -12.4925      2.00000
     47     -12.2791      2.00000
     48     -12.2787      2.00000
     49     -12.2764      2.00000
     50     -12.2763      2.00000
     51     -12.2732      2.00000
     52     -12.2728      2.00000
     53     -11.8721      2.00000
     54     -11.6574      2.00000
     55     -11.6119      2.00000
     56     -10.9275      2.00000
     57     -10.8304      2.00000
     58     -10.8303      2.00000
     59     -10.8300      2.00000
     60     -10.8298      2.00000
     61     -10.8286      2.00000
     62     -10.8285      2.00000
     63      -9.7770      2.00000
     64      -9.7699      2.00000
     65      -9.7696      2.00000
     66      -9.7651      2.00000
     67      -9.7638      2.00000
     68      -9.7588      2.00000
     69      -9.5327      2.00000
     70      -9.5306      2.00000
     71      -9.5300      2.00000
     72      -9.5290      2.00000
     73      -9.5287      2.00000
     74      -9.5277      2.00000
     75      -9.5268      2.00000
     76      -9.5265      2.00000
     77      -9.5263      2.00000
     78      -9.5251      2.00000
     79      -9.5244      2.00000
     80      -9.5231      2.00000
     81      -8.0498      2.00000
     82      -8.0211      2.00000
     83      -7.8240      2.00000
     84      -7.8233      2.00000
     85      -7.8225      2.00000
     86      -7.8207      2.00000
     87      -7.8174      2.00000
     88      -7.8169      2.00000
     89      -7.5361      2.00000
     90      -7.5349      2.00000
     91      -7.5251      2.00000
     92      -7.5244      2.00000
     93      -7.5231      2.00000
     94      -7.4934      2.00000
     95      -6.5915      2.00000
     96      -6.5884      2.00000
     97      -6.5845      2.00000
     98      -6.5797      2.00000
     99      -6.5785      2.00000
    100      -6.5691      2.00000
    101      -6.3055      2.00000
    102      -6.3031      2.00000
    103      -4.4928      2.00000
    104      -4.4898      2.00000
    105      -4.4862      2.00000
    106      -4.4848      2.00000
    107      -4.4798      2.00000
    108      -4.4793      2.00000
    109      -1.5197      0.00000
    110      -1.5187      0.00000
    111      -1.5101      0.00000
    112      -1.5089      0.00000
    113      -1.5069      0.00000
    114      -1.5059      0.00000
    115       0.4560      0.00000
    116       0.4594      0.00000
    117       0.4626      0.00000
    118       0.4695      0.00000
    119       0.4713      0.00000
    120       0.4738      0.00000
    121       0.4928      0.00000
    122       1.1501      0.00000
    123       1.2448      0.00000
    124       1.2464      0.00000
    125       1.5288      0.00000
    126       1.6265      0.00000
    127       1.8714      0.00000
    128       1.9345      0.00000
    129       1.9420      0.00000
    130       1.9440      0.00000
    131       2.0104      0.00000
    132       2.0932      0.00000
    133       2.3223      0.00000
    134       2.3416      0.00000
    135       2.3438      0.00000
    136       2.3512      0.00000
    137       2.3528      0.00000
    138       2.3536      0.00000
    139       2.3571      0.00000
    140       2.4562      0.00000
    141       2.6124      0.00000
    142       2.6892      0.00000
    143       2.7005      0.00000
    144       2.7020      0.00000
    145       2.7337      0.00000
    146       2.8375      0.00000
    147       2.8381      0.00000
    148       2.8515      0.00000
    149       2.8990      0.00000
    150       3.1807      0.00000
    151       3.3661      0.00000
    152       3.6129      0.00000
    153       3.6682      0.00000
    154       3.7722      0.00000
    155       3.8643      0.00000
    156       4.0252      0.00000
    157       4.3377      0.00000
    158       4.4616      0.00000
    159       4.6272      0.00000
    160       4.7303      0.00000
    161       4.8485      0.00000
    162       4.8955      0.00000
    163       4.9168      0.00000
    164       4.9430      0.00000
    165       4.9491      0.00000
    166       4.9494      0.00000
    167       4.9572      0.00000
    168       5.0281      0.00000


--------------------------------------------------------------------------------------------------------


 soft charge-density along one line, spin component           1
         0         1         2         3         4         5         6         7         8         9
 total charge-density along one line
 
 pseudopotential strength for first ion, spin component:           1
 12.643  21.273  -0.000   0.000   0.000  -0.000   0.000   0.000
 21.273  35.793  -0.000   0.000   0.000  -0.000   0.000   0.000
 -0.000  -0.000  -3.239   0.000   0.000  -5.804   0.000   0.000
  0.000   0.000   0.000  -3.243   0.000   0.000  -5.810   0.000
  0.000   0.000   0.000   0.000  -3.239   0.000   0.000  -5.804
 -0.000  -0.000  -5.804   0.000   0.000 -10.376   0.000   0.000
  0.000   0.000   0.000  -5.810   0.000   0.000 -10.386   0.000
  0.000   0.000   0.000   0.000  -5.804   0.000   0.000 -10.376
 total augmentation occupancy for first ion, spin component:           1
  9.642  -3.598   0.000  -0.002  -0.000  -0.000   0.001   0.000
 -3.598   1.374  -0.000   0.001   0.000   0.000  -0.000  -0.000
  0.000  -0.000   8.196  -0.009   0.001  -2.895   0.003  -0.000
 -0.002   0.001  -0.009   3.781  -0.000   0.004  -1.106   0.000
 -0.000   0.000   0.001  -0.000   8.195  -0.000   0.000  -2.895
 -0.000   0.000  -2.895   0.004  -0.000   1.036  -0.001   0.000
  0.001  -0.000   0.003  -1.106   0.000  -0.001   0.329   0.000
  0.000  -0.000  -0.000   0.000  -2.895   0.000   0.000   1.035


------------------------ aborting loop because EDIFF is reached ----------------------------------------


    FORLOC:  cpu time    0.1407: real time    0.1416
    FORNL :  cpu time    4.1478: real time    4.1787
    FORCOR:  cpu time    8.3000: real time    8.3515
    OFIELD:  cpu time    0.0032: real time    0.0032

 VOLUME and BASIS-vectors are now :
 -----------------------------------------------------------------------------
  energy-cutoff  :     1000.00
  volume of cell :     3288.85
      direct lattice vectors                 reciprocal lattice vectors
    12.325000000  0.000000000  0.000000000     0.081135903  0.046843835  0.000000000
    -6.162500000 10.673763102  0.000000000     0.000000000  0.093687670  0.000000000
     0.000000000  0.000000000 25.000000000     0.000000000  0.000000000  0.040000000

  length of vectors
    12.325000000 12.325000000 25.000000000     0.093687670  0.093687670  0.040000000


 FORCES acting on ions:
    Electron-Ion                     Ewald-Force                    Non-Local-Force
 -----------------------------------------------------------------------------------------------
   0.103E+02 0.901E+01 0.256E+02   -.103E+02 -.901E+01 -.257E+02   0.575E-02 0.214E-02 0.124E-01
   0.167E+02 0.822E+01 0.329E+02   -.167E+02 -.822E+01 -.329E+02   0.149E-01 0.421E-02 -.838E-02
   0.811E+01 0.209E+02 0.402E+02   -.812E+01 -.209E+02 -.402E+02   0.803E-02 0.509E-01 0.308E-01
   0.126E+02 0.185E+02 0.621E+02   -.127E+02 -.185E+02 -.622E+02   0.570E-01 0.365E-01 0.849E-01
   0.112E+02 0.263E+01 0.258E+02   -.112E+02 -.263E+01 -.257E+02   -.722E-02 -.209E-02 -.620E-02
   0.117E+02 -.202E+01 0.263E+02   -.117E+02 0.203E+01 -.263E+02   -.223E-01 0.827E-02 -.184E-01
   0.219E+02 0.876E+01 0.539E+02   -.219E+02 -.872E+01 -.539E+02   0.520E-01 -.361E-01 0.190E-02
   0.215E+02 -.735E+01 0.570E+02   -.215E+02 0.737E+01 -.569E+02   0.115E-01 -.117E-01 -.703E-01
   -.909E+01 0.192E+02 0.410E+02   0.911E+01 -.192E+02 -.410E+02   -.294E-02 0.912E-03 -.322E-01
   -.162E+02 0.138E+02 0.602E+02   0.163E+02 -.139E+02 -.601E+02   -.564E-01 0.507E-01 -.392E-01
   0.276E+01 -.246E+01 0.211E+02   -.274E+01 0.245E+01 -.211E+02   -.616E-02 0.177E-02 -.772E-02
   0.221E+01 -.179E+01 0.197E+02   -.220E+01 0.180E+01 -.197E+02   -.774E-02 -.297E-02 0.706E-03
   0.834E+01 -.196E+02 0.645E+02   -.843E+01 0.196E+02 -.644E+02   0.862E-01 -.180E-01 -.436E-01
   0.394E+01 -.210E+02 0.410E+02   -.397E+01 0.210E+02 -.409E+02   0.232E-01 -.138E-02 -.360E-01
   -.997E+01 0.626E+01 0.252E+02   0.996E+01 -.626E+01 -.252E+02   0.133E-01 -.463E-02 -.951E-02
   -.147E+02 0.416E+01 0.291E+02   0.147E+02 -.417E+01 -.291E+02   -.429E-02 0.137E-01 -.319E-01
   -.152E+01 -.607E+00 0.190E+02   0.152E+01 0.616E+00 -.190E+02   -.151E-03 -.159E-01 0.145E-02
   0.819E+00 0.556E+01 0.202E+02   -.819E+00 -.555E+01 -.202E+02   0.391E-03 -.805E-02 0.108E-01
   -.301E+01 -.175E+02 0.316E+02   0.299E+01 0.176E+02 -.316E+02   0.173E-01 -.164E-01 0.127E-02
   -.130E+01 -.858E+01 0.222E+02   0.130E+01 0.860E+01 -.222E+02   -.915E-02 -.149E-01 -.116E-02
   0.172E+02 -.752E+01 0.355E+02   -.172E+02 0.751E+01 -.354E+02   -.545E-02 0.320E-02 -.531E-01
   0.103E+02 -.889E+01 0.281E+02   -.103E+02 0.888E+01 -.281E+02   -.102E-01 0.161E-01 -.187E-01
   -.414E+01 0.902E+01 0.779E+02   0.418E+01 -.907E+01 -.780E+02   -.432E-01 0.610E-01 0.103E+00
   -.697E+01 -.143E+02 0.740E+02   0.692E+01 0.144E+02 -.741E+02   0.443E-01 -.489E-01 0.907E-01
   0.483E+01 -.211E+01 0.212E+02   -.481E+01 0.211E+01 -.212E+02   -.199E-02 -.615E-02 -.139E-01
   0.898E+00 0.433E+01 0.214E+02   -.901E+00 -.433E+01 -.214E+02   0.184E-02 -.142E-02 0.126E-03
   -.220E+02 0.262E+01 0.451E+02   0.220E+02 -.265E+01 -.451E+02   0.162E-02 0.313E-01 -.305E-01
   -.202E+02 -.858E+01 0.409E+02   0.203E+02 0.855E+01 -.410E+02   -.372E-01 0.280E-01 0.677E-02
   0.628E+01 -.128E+02 0.294E+02   -.629E+01 0.128E+02 -.294E+02   0.121E-01 0.667E-02 -.303E-01
   0.584E+00 -.479E+01 0.226E+02   -.594E+00 0.478E+01 -.225E+02   0.738E-03 0.517E-02 -.874E-02
   -.163E+02 -.175E+02 0.502E+02   0.163E+02 0.176E+02 -.503E+02   -.420E-01 -.294E-01 0.492E-01
   -.941E+01 -.172E+02 0.337E+02   0.942E+01 0.172E+02 -.337E+02   -.803E-02 -.371E-01 0.155E-01
   0.584E+00 0.233E+01 0.196E+02   -.578E+00 -.233E+01 -.196E+02   -.520E-02 -.360E-02 0.508E-02
   0.162E+01 0.235E+01 0.210E+02   -.162E+01 -.235E+01 -.210E+02   -.114E-01 0.537E-02 -.802E-02
   -.696E+01 0.879E+00 0.229E+02   0.696E+01 -.890E+00 -.229E+02   0.143E-02 0.628E-02 -.928E-03
   -.600E+01 -.240E+01 0.223E+02   0.600E+01 0.240E+01 -.223E+02   -.118E-01 0.737E-02 -.772E-02
   -.122E+02 -.634E+01 0.262E+02   0.122E+02 0.634E+01 -.262E+02   -.164E-01 -.601E-02 0.176E-02
   -.707E+01 -.572E+01 0.220E+02   0.708E+01 0.573E+01 -.220E+02   -.108E-01 -.116E-01 0.953E-02
   -.663E+01 -.865E+01 0.235E+02   0.664E+01 0.867E+01 -.235E+02   -.162E-01 -.245E-01 0.834E-02
   -.972E+00 -.206E+01 0.201E+02   0.976E+00 0.207E+01 -.201E+02   -.570E-02 -.146E-01 0.105E-01
   0.249E+01 0.598E+01 0.210E+02   -.249E+01 -.599E+01 -.210E+02   -.360E-02 -.395E-03 0.101E-01
   0.824E+01 0.129E+02 0.272E+02   -.825E+01 -.129E+02 -.273E+02   0.115E-01 0.126E-01 0.157E-01
   0.652E+00 0.106E+02 0.233E+02   -.651E+00 -.106E+02 -.233E+02   0.632E-02 0.239E-02 -.714E-03
   0.599E-01 0.196E+02 0.346E+02   -.417E-01 -.196E+02 -.346E+02   -.162E-01 0.131E-01 0.836E-02
   -.202E+01 0.400E+01 0.225E+02   0.202E+01 -.399E+01 -.225E+02   0.106E-01 -.828E-02 -.107E-01
   -.846E+01 0.107E+02 0.280E+02   0.845E+01 -.107E+02 -.279E+02   -.385E-03 -.197E-02 -.233E-01
   -.146E+01 -.410E+01 0.209E+02   0.146E+01 0.410E+01 -.209E+02   0.352E-02 -.421E-02 -.139E-02
   -.379E+01 0.154E+01 0.200E+02   0.378E+01 -.153E+01 -.200E+02   -.441E-02 -.165E-02 -.109E-01
   0.313E+00 -.254E+01 0.198E+02   -.307E+00 0.255E+01 -.198E+02   -.572E-02 -.115E-01 0.801E-02
   0.403E+01 0.295E+01 0.200E+02   -.403E+01 -.294E+01 -.200E+02   -.899E-02 0.269E-02 0.507E-02
   0.136E+00 -.100E+00 -.402E+03   -.117E+00 0.838E-01 0.402E+03   -.243E-01 0.192E-01 -.574E-01
   -.228E+03 0.155E+03 -.617E+03   0.279E+03 -.190E+03 0.620E+03   -.526E+02 0.358E+02 -.341E+01
   0.228E+03 -.155E+03 -.594E+03   -.279E+03 0.190E+03 0.591E+03   0.526E+02 -.358E+02 0.327E+01
 -----------------------------------------------------------------------------------------------
   0.157E-01 -.107E-01 0.207E+00   0.114E-12 -.853E-13 0.568E-12   -.494E-01 0.354E-01 -.226E+00
 
 
 POSITION                                       TOTAL-FORCE (eV/Angst)
 -----------------------------------------------------------------------------------
     11.98348      0.00342      0.01417        -0.006993      0.008088     -0.000043
     -0.34154      1.42665      0.01100        -0.013157      0.019368      0.001234
      2.12355      0.00315      0.01249         0.013347      0.002018      0.002971
      2.12326      1.42653      0.00641         0.013538      0.019366      0.014662
     10.75099      2.13819      0.01213        -0.006592      0.018151      0.002202
     -1.57382      3.56123      0.01110        -0.021722      0.015601     -0.000698
      0.89078      2.13854      0.00548        -0.001424      0.030206      0.009228
      0.89099      3.56147      0.00181        -0.006699      0.019525      0.007763
      4.58864      0.00346      0.01135         0.029062     -0.005392      0.002102
      4.58894      1.42623      0.00646         0.026010      0.016027      0.006815
      9.51854      4.27281      0.01369         0.017866     -0.002665     -0.000359
     -2.80632      5.69591      0.01434        -0.007224     -0.016092      0.000714
      2.12300      4.27302      0.00000        -0.002273      0.026387      0.009582
      2.12335      5.69594      0.00581         0.001924     -0.006991      0.004112
      7.05344      0.00333      0.01399         0.005350     -0.012825      0.000345
      7.05353      1.42635      0.01368        -0.005078      0.013559     -0.003336
      8.28610      6.40752      0.01601         0.018861     -0.021475      0.000311
     -4.03885      7.83070      0.01636         0.007656     -0.016733      0.000926
      3.35586      6.40753      0.01007        -0.017718     -0.011880     -0.000820
      3.35599      7.83072      0.01320        -0.017231     -0.008271      0.001493
     -0.34146      4.27290      0.00723         0.009934      0.015835     -0.000678
     -0.34138      5.69591      0.00946        -0.009849      0.000431      0.003325
      3.35624      2.13791      0.00222         0.012503      0.020869      0.022203
      3.35573      3.56155      0.00139         0.018321      0.009184      0.020917
     -1.57395      6.40758      0.01311         0.030188     -0.014893     -0.001763
     -1.57385      7.83068      0.01438         0.010047     -0.002275      0.001482
      5.82093      2.13784      0.01033         0.010852     -0.001922      0.003051
      5.82114      3.56097      0.01156         0.006895     -0.005987      0.000098
      0.89092      6.40755      0.00907         0.003572     -0.002302     -0.001030
      0.89106      7.83068      0.01235        -0.008761      0.004932      0.001965
      4.58871      4.27293      0.00850        -0.008138      0.001068      0.004782
      4.58852      5.69606      0.01149         0.000619     -0.015513     -0.001166
      9.51845      0.00337      0.01490        -0.015892     -0.007045      0.001209
      9.51855      1.42644      0.01438        -0.029336      0.023594     -0.000388
      8.28593      2.13803      0.01453        -0.000545     -0.001999      0.002388
      8.28613      3.56115      0.01464        -0.012776     -0.004511     -0.001571
      7.05356      4.27269      0.01457         0.004805     -0.007636      0.002008
      7.05362      5.69588      0.01553        -0.001892     -0.029971     -0.000372
      5.82112      6.40755      0.01489        -0.013387     -0.018224      0.000746
      5.82102      7.83073      0.01579        -0.006161     -0.018523      0.000924
      7.05363      8.54227      0.01631        -0.001191     -0.012736      0.002301
     -5.27149      9.96549      0.01495         0.000082     -0.001631     -0.001133
     -2.80638      8.54234      0.01558         0.028218     -0.014678      0.000679
     -2.80627      9.96553      0.01362         0.021019      0.004841      0.000613
     -0.34149      8.54239      0.01378         0.023816     -0.013631     -0.000784
     -0.34138      9.96550      0.01354         0.010870      0.013243      0.000100
      2.12343      8.54232      0.01336        -0.012007     -0.013883     -0.000008
      2.12354      9.96544      0.01469        -0.026075      0.014303     -0.002305
      4.58846      8.54235      0.01505        -0.018266     -0.017530      0.002538
      4.58853      9.96550      0.01517        -0.024378      0.007158      0.002053
      3.04930      2.68154      3.33710        -0.020902      0.011315     -0.055696
      4.02070      2.02068      3.40152        -1.620066      1.072188     -0.128752
      2.07767      3.34267      3.27764         1.610377     -1.080045      0.063055
 -----------------------------------------------------------------------------------
    total drift:                               -0.033630      0.024715     -0.018701


--------------------------------------------------------------------------------------------------------



  FREE ENERGIE OF THE ION-ELECTRON SYSTEM (eV)
  ---------------------------------------------------
  free  energy   TOTEN  =      -526.02222801 eV

  energy  without entropy=     -526.02222801  energy(sigma->0) =     -526.02222801
 


--------------------------------------------------------------------------------------------------------


    POTLOK:  cpu time    8.4183: real time    8.4726


--------------------------------------------------------------------------------------------------------


 writing wavefunctions
     LOOP+:  cpu time 1164.3324: real time 1173.8184
    4ORBIT:  cpu time    0.0000: real time    0.0000

 total amount of memory used by VASP MPI-rank0   698619. kBytes
=======================================================================

   base      :      30000. kBytes
   nonl-proj :     230539. kBytes
   fftplans  :      40716. kBytes
   grid      :     363125. kBytes
   one-center:        162. kBytes
   wavefun   :      34077. kBytes
 
  
  
 General timing and accounting informations for this job:
 ========================================================
  
                  Total CPU time used (sec):     1211.384
                            User time (sec):     1169.880
                          System time (sec):       41.504
                         Elapsed time (sec):     1222.104
  
                   Maximum memory used (kb):     1478696.
                   Average memory used (kb):          N/A
  
                          Minor page faults:       397989
                          Major page faults:           69
                 Voluntary context switches:         3678
