 vasp.6.2.1 16May21 (build Nov 06 2021 14:46:37) complex                        
  
 executed on             LinuxIFC date 2025.04.16  21:12:34
 running on  112 total cores
 distrk:  each k-point on   56 cores,    2 groups
 distr:  one band on NCORE=   1 cores,   56 groups


--------------------------------------------------------------------------------------------------------


 INCAR:
   ALGO = Conjugate
   KPAR = 2
   NCORE = 32
   ISMEAR = 0
   SIGMA = 0.01
   PREC = Accurate
   EDIFF = 1E-7
   ENCUT = 1000
   ISIF = 0
   METAGGA = SCAN
   LUSE_VDW = .TRUE.
   BPARAM = 15.7
   LASPH = .TRUE.
   SYMPREC = 1E-7
   NELM = 200

 POTCAR:    PAW_PBE C_h 06Feb2004                 
 POTCAR:    PAW_PBE O_h 06Feb2004                 
 -----------------------------------------------------------------------------
|                                                                             |
|           W    W    AA    RRRRR   N    N  II  N    N   GGGG   !!!           |
|           W    W   A  A   R    R  NN   N  II  NN   N  G    G  !!!           |
|           W    W  A    A  R    R  N N  N  II  N N  N  G       !!!           |
|           W WW W  AAAAAA  RRRRR   N  N N  II  N  N N  G  GGG   !            |
|           WW  WW  A    A  R   R   N   NN  II  N   NN  G    G                |
|           W    W  A    A  R    R  N    N  II  N    N   GGGG   !!!           |
|                                                                             |
|     The value NCORE = 32 specified in the INCAR file was overwritten,       |
|     because it was not compatible with the 56 processes available:          |
|     NCORE = 1                                                               |
|     was used instead, please check that this makes sense for your           |
|     machine.                                                                |
|                                                                             |
 -----------------------------------------------------------------------------

 -----------------------------------------------------------------------------
|                                                                             |
|           W    W    AA    RRRRR   N    N  II  N    N   GGGG   !!!           |
|           W    W   A  A   R    R  NN   N  II  NN   N  G    G  !!!           |
|           W    W  A    A  R    R  N N  N  II  N N  N  G       !!!           |
|           W WW W  AAAAAA  RRRRR   N  N N  II  N  N N  G  GGG   !            |
|           WW  WW  A    A  R   R   N   NN  II  N   NN  G    G                |
|           W    W  A    A  R    R  N    N  II  N    N   GGGG   !!!           |
|                                                                             |
|     For optimal performance we recommend to set                             |
|       NCORE = 2 up to number-of-cores-per-socket                            |
|     NCORE specifies how many cores store one orbital (NPAR=cpu/NCORE).      |
|     This setting can greatly improve the performance of VASP for DFT.       |
|     The default, NCORE=1 might be grossly inefficient on modern             |
|     multi-core architectures or massively parallel machines. Do your        |
|     own testing! More info at https://www.vasp.at/wiki/index.php/NCORE      |
|     Unfortunately you need to use the default for GW and RPA                |
|     calculations (for HF NCORE is supported but not extensively tested      |
|     yet).                                                                   |
|                                                                             |
 -----------------------------------------------------------------------------

 -----------------------------------------------------------------------------
|                                                                             |
|               ----> ADVICE to this user running VASP <----                  |
|                                                                             |
|     You have switched on vdW-DFT.                                           |
|     This routine was written and supplied by Jiri Klimes. We recommend      |
|     that you carefully read and cite the following publications:            |
|       J. Klimes, D.R. Bowler, A. Michelides                                 |
|          J. Phys.: Cond Matt. 22 022201 (2010)                              |
|       J. Klimes, D.R. Bowler, A. Michelides                                 |
|          Phys. Rev. B. 83, 195131 (2011)                                    |
|     and references therein.                                                 |
|                                                                             |
 -----------------------------------------------------------------------------

 POTCAR:    PAW_PBE C_h 06Feb2004                 
   VRHFIN =C: s2p2                                                                                  
   LEXCH  = PE                                                                                      
   EATOM  =   147.1560 eV,   10.8157 Ry                                                             
                                                                                                    
   TITEL  = PAW_PBE C_h 06Feb2004                                                                   
   LULTRA =        F    use ultrasoft PP ?                                                          
   IUNSCR =        1    unscreen: 0-lin 1-nonlin 2-no                                               
   RPACOR =    0.800    partial core radius                                                         
   POMASS =   12.011; ZVAL   =    4.000    mass and valenz                                          
   RCORE  =    1.100    outmost cutoff radius                                                       
   RWIGS  =    1.630; RWIGS  =    0.863    wigner-seitz radius (au A)                               
   ENMAX  =  700.000; ENMIN  =  500.000 eV                                                          
   ICORE  =        2    local potential                                                             
   LCOR   =        T    correct aug charges                                                         
   LPAW   =        T    paw PP                                                                      
   EAUG   =  946.768                                                                                
   DEXC   =    0.000                                                                                
   RMAX   =    1.128    core radius for proj-oper                                                   
   RAUG   =    1.300    factor for augmentation sphere                                              
   RDEP   =    1.162    radius for radial grids                                                     
   RDEPT  =    1.088    core radius for aug-charge                                                  
                                                                                                    
   Atomic configuration                                                                             
    4 entries                                                                                       
     n  l   j            E        occ.                                                              
     1  0  0.50      -273.3789   2.0000                                                             
     2  0  0.50       -13.7508   2.0000                                                             
     2  1  0.50        -5.2854   2.0000                                                             
     3  2  1.50        -5.4423   0.0000                                                             
   Description                                                                                      
     l       E           TYP  RCUT    TYP  RCUT                                                     
     0    -13.7508458     23  1.100                                                                 
     0     -8.2022199     23  1.100                                                                 
     1     -5.2854383     23  1.100                                                                 
     1      1.1560700     23  1.100                                                                 
     2     -5.4423304      7  1.100                                                                 
  local pseudopotential read in
  partial core-charges read in
  partial kinetic energy density read in
  atomic valenz-charges read in
  non local Contribution for L=           0  read in
    real space projection operators read in
  non local Contribution for L=           0  read in
    real space projection operators read in
  non local Contribution for L=           1  read in
    real space projection operators read in
  non local Contribution for L=           1  read in
    real space projection operators read in
    PAW grid and wavefunctions read in
 
   number of l-projection  operators is LMAX  =           4
   number of lm-projection operators is LMMAX =           8
 
 POTCAR:    PAW_PBE O_h 06Feb2004                 
   VRHFIN =O: s2p4                                                                                  
   LEXCH  = PE                                                                                      
   EATOM  =   432.3788 eV,   31.7789 Ry                                                             
                                                                                                    
   TITEL  = PAW_PBE O_h 06Feb2004                                                                   
   LULTRA =        F    use ultrasoft PP ?                                                          
   IUNSCR =        1    unscreen: 0-lin 1-nonlin 2-no                                               
   RPACOR =    0.800    partial core radius                                                         
   POMASS =   16.000; ZVAL   =    6.000    mass and valenz                                          
   RCORE  =    1.100    outmost cutoff radius                                                       
   RWIGS  =    1.400; RWIGS  =    0.741    wigner-seitz radius (au A)                               
   ENMAX  =  700.000; ENMIN  =  500.000 eV                                                          
   ICORE  =        2    local potential                                                             
   LCOR   =        T    correct aug charges                                                         
   LPAW   =        T    paw PP                                                                      
   EAUG   =  888.804                                                                                
   DEXC   =    0.000                                                                                
   RMAX   =    1.128    core radius for proj-oper                                                   
   RAUG   =    1.300    factor for augmentation sphere                                              
   RDEP   =    1.125    radius for radial grids                                                     
   RDEPT  =    1.088    core radius for aug-charge                                                  
                                                                                                    
   Atomic configuration                                                                             
    4 entries                                                                                       
     n  l   j            E        occ.                                                              
     1  0  0.50      -514.6923   2.0000                                                             
     2  0  0.50       -23.9615   2.0000                                                             
     2  1  0.50        -9.0305   4.0000                                                             
     3  2  1.50        -9.5241   0.0000                                                             
   Description                                                                                      
     l       E           TYP  RCUT    TYP  RCUT                                                     
     0    -23.9615319     23  1.100                                                                 
     0    -25.3221145     23  1.100                                                                 
     1     -9.0304911     23  1.100                                                                 
     1     -5.4802209     23  1.100                                                                 
     2     -9.5240782      7  1.100                                                                 
  local pseudopotential read in
  partial core-charges read in
  partial kinetic energy density read in
  atomic valenz-charges read in
  non local Contribution for L=           0  read in
    real space projection operators read in
  non local Contribution for L=           0  read in
    real space projection operators read in
  non local Contribution for L=           1  read in
    real space projection operators read in
  non local Contribution for L=           1  read in
    real space projection operators read in
    PAW grid and wavefunctions read in
 
   number of l-projection  operators is LMAX  =           4
   number of lm-projection operators is LMMAX =           8
 
 -----------------------------------------------------------------------------
|                                                                             |
|               ----> ADVICE to this user running VASP <----                  |
|                                                                             |
|     You have a (more or less) 'large supercell' and for larger cells it     |
|     might be more efficient to use real-space projection operators.         |
|     Therefore, try LREAL= Auto in the INCAR file.                           |
|     Mind: For very accurate calculation, you might also keep the            |
|     reciprocal projection scheme (i.e. LREAL=.FALSE.).                      |
|                                                                             |
 -----------------------------------------------------------------------------

  PAW_PBE C_h 06Feb2004                 :
 energy of atom  1       EATOM= -147.1560
 kinetic energy error for atom=    0.0031 (will be added to EATOM!!)
  PAW_PBE O_h 06Feb2004                 :
 energy of atom  2       EATOM= -432.3788
 kinetic energy error for atom=    0.0171 (will be added to EATOM!!)
 
 
 POSCAR:  C  O
  positions in cartesian coordinates
  No initial velocities read in

 METAGGA = SCAN     LMAXTAU =  6    LMIXTAU =  F

 exchange correlation table for  LEXCH =        8
   RHO(1)=    0.500       N(1)  =     2000
   RHO(2)=  100.500       N(2)  =     4000
 


--------------------------------------------------------------------------------------------------------


 ion  position               nearest neighbor table
   1  0.972  0.000  0.001-  50 1.42   2 1.42  42 1.42
   2  0.039  0.134  0.000-   5 1.42   7 1.42   1 1.42
   3  0.172  0.000  0.000-  42 1.42  44 1.42   4 1.42
   4  0.239  0.134  0.000-   7 1.42   3 1.42  23 1.42
   5  0.972  0.200  0.000-   6 1.42   2 1.42  34 1.42
   6  0.039  0.334  0.000-   5 1.42  21 1.42  11 1.42
   7  0.172  0.200  0.000-   8 1.42   2 1.42   4 1.42
   8  0.239  0.334  0.000-  13 1.42   7 1.42  21 1.42
   9  0.372  0.000  0.000-  10 1.42  44 1.42  46 1.42
  10  0.439  0.134  0.000-  27 1.42   9 1.42  23 1.42
  11  0.972  0.400  0.001-  12 1.42  36 1.42   6 1.42
  12  0.039  0.534  0.001-  25 1.42  11 1.42  17 1.42
  13  0.372  0.400  0.000-   8 1.42  14 1.42  24 1.42
  14  0.439  0.534  0.000-  13 1.42  29 1.42  19 1.42
  15  0.572  0.000  0.001-  46 1.42  16 1.42  48 1.42
  16  0.639  0.134  0.001-  15 1.42  35 1.42  27 1.42
  17  0.972  0.600  0.001-  38 1.42  18 1.42  12 1.42
  18  0.039  0.734  0.001-  43 1.42  41 1.42  17 1.42
  19  0.572  0.600  0.000-  14 1.42  20 1.42  32 1.42
  20  0.639  0.734  0.001-  49 1.42  19 1.42  47 1.42
  21  0.172  0.400  0.000-  22 1.42   8 1.42   6 1.42
  22  0.239  0.534  0.000-  21 1.42  29 1.42  25 1.42
  23  0.372  0.200  0.000-  10 1.42   4 1.42  24 1.42
  24  0.439  0.334  0.000-  13 1.42  31 1.42  23 1.42
  25  0.172  0.600  0.001-  26 1.42  12 1.42  22 1.42
  26  0.239  0.734  0.001-  25 1.42  45 1.42  43 1.42
  27  0.572  0.200  0.000-  10 1.42  28 1.42  16 1.42
  28  0.639  0.334  0.000-  27 1.42  37 1.42  31 1.42
  29  0.372  0.600  0.000-  22 1.42  14 1.42  30 1.42
  30  0.439  0.734  0.000-  47 1.42  29 1.42  45 1.42
  31  0.572  0.400  0.000-  32 1.42  28 1.42  24 1.42
  32  0.639  0.534  0.000-  31 1.42  39 1.42  19 1.42
  33  0.772  0.000  0.001-  34 1.42  48 1.42  50 1.42
  34  0.839  0.134  0.001-  33 1.42   5 1.42  35 1.42
  35  0.772  0.200  0.001-  36 1.42  16 1.42  34 1.42
  36  0.839  0.334  0.001-  35 1.42  11 1.42  37 1.42
  37  0.772  0.400  0.001-  28 1.42  38 1.42  36 1.42
  38  0.839  0.534  0.001-  17 1.42  37 1.42  39 1.42
  39  0.772  0.600  0.001-  40 1.42  38 1.42  32 1.42
  40  0.839  0.734  0.001-  39 1.42  49 1.42  41 1.42
  41  0.972  0.800  0.001-  18 1.42  42 1.42  40 1.42
  42  0.039  0.934  0.001-   3 1.42  41 1.42   1 1.42
  43  0.172  0.800  0.001-  18 1.42  44 1.42  26 1.42
  44  0.239  0.934  0.001-   9 1.42  43 1.42   3 1.42
  45  0.372  0.800  0.001-  26 1.42  46 1.42  30 1.42
  46  0.439  0.934  0.001-  15 1.42  45 1.42   9 1.42
  47  0.572  0.800  0.001-  30 1.42  48 1.42  20 1.42
  48  0.639  0.934  0.001-  47 1.42  33 1.42  15 1.42
  49  0.772  0.800  0.001-  50 1.42  20 1.42  40 1.42
  50  0.839  0.934  0.001-  49 1.42   1 1.42  33 1.42
  51  0.373  0.251  0.168-  52 1.18  53 1.18
  52  0.421  0.189  0.171-  51 1.18
  53  0.325  0.313  0.166-  51 1.18
 
  LATTYP: Found a hexagonal cell.
 ALAT       =    12.3250000000
 C/A-ratio  =     2.0283975659
  
  Lattice vectors:
  
 A1 = (  12.3250000000,   0.0000000000,   0.0000000000)
 A2 = (  -6.1625000000,  10.6737631016,   0.0000000000)
 A3 = (   0.0000000000,   0.0000000000,  25.0000000000)


Analysis of symmetry for initial positions (statically):
=====================================================================
 Subroutine PRICEL returns:
 Original cell was already a primitive cell.
 

 Routine SETGRP: Setting up the symmetry group for a 
 hexagonal supercell.


 Subroutine GETGRP returns: Found  1 space group operations
 (whereof  1 operations were pure point group operations)
 out of a pool of 24 trial point group operations.


The static configuration has the point symmetry C_1 .


Analysis of symmetry for dynamics (positions and initial velocities):
=====================================================================
 Subroutine PRICEL returns:
 Original cell was already a primitive cell.
 

 Routine SETGRP: Setting up the symmetry group for a 
 hexagonal supercell.


 Subroutine GETGRP returns: Found  1 space group operations
 (whereof  1 operations were pure point group operations)
 out of a pool of 24 trial point group operations.


The dynamic configuration has the point symmetry C_1 .


 Subroutine INISYM returns: Found  1 space group operations
 (whereof  1 operations are pure point group operations),
 and found     1 'primitive' translations


----------------------------------------------------------------------------------------

                                     Primitive cell                                     

  volume of cell :    3288.8533

  direct lattice vectors                    reciprocal lattice vectors
    12.325000000  0.000000000  0.000000000     0.081135903  0.046843835  0.000000000
    -6.162500000 10.673763102  0.000000000     0.000000000  0.093687670  0.000000000
     0.000000000  0.000000000 25.000000000     0.000000000  0.000000000  0.040000000

  length of vectors
    12.325000000 12.325000000 25.000000000     0.093687670  0.093687670  0.040000000

  position of ions in fractional coordinates (direct lattice)
     0.972450841  0.000320818  0.000566711
     0.039118382  0.133659505  0.000440173
     0.172443627  0.000295449  0.000499628
     0.239096278  0.133647917  0.000256468
     0.972452058  0.200322012  0.000485219
     0.039128360  0.333643771  0.000444150
     0.172451764  0.200354552  0.000219167
     0.239124359  0.333665720  0.000072260
     0.372465565  0.000324403  0.000453913
     0.439137473  0.133619939  0.000258338
     0.972449824  0.400309362  0.000547611
     0.039124981  0.533636789  0.000573410
     0.372416176  0.400329481  0.000000000
     0.439099602  0.533638981  0.000232414
     0.572443676  0.000312125  0.000559580
     0.639110207  0.133631751  0.000547275
     0.972452703  0.600305653  0.000640289
     0.039124495  0.733640359  0.000654513
     0.572433471  0.600306242  0.000402895
     0.639111888  0.733641879  0.000527905
     0.172454630  0.400318228  0.000289045
     0.239120185  0.533636548  0.000378509
     0.372459750  0.200295993  0.000088997
     0.439107096  0.333673419  0.000055762
     0.172452155  0.600311506  0.000524340
     0.239123371  0.733638574  0.000575129
     0.572431082  0.200289171  0.000413296
     0.639112773  0.333618630  0.000462376
     0.372439808  0.600308022  0.000362844
     0.439116090  0.733637858  0.000494190
     0.572469358  0.400320504  0.000339918
     0.639119408  0.533650873  0.000459610
     0.772445723  0.000315427  0.000596161
     0.839116277  0.133640203  0.000575306
     0.772440513  0.200307432  0.000581033
     0.839120241  0.333635728  0.000585467
     0.772446320  0.400298367  0.000582978
     0.839118980  0.533633964  0.000621100
     0.772456143  0.600308173  0.000595712
     0.839115033  0.733643180  0.000631512
     0.972455313  0.800305582  0.000652233
     0.039114714  0.933643289  0.000598051
     0.172457971  0.800312211  0.000623372
     0.239134551  0.933647193  0.000544850
     0.372451396  0.800316674  0.000551399
     0.439124489  0.933644769  0.000541430
     0.572441101  0.800310054  0.000534535
     0.639115067  0.933638985  0.000587644
     0.772445098  0.800313187  0.000602062
     0.839116614  0.933644338  0.000606830
     0.373021009  0.251226878  0.168179283
     0.420879805  0.189313152  0.170756158
     0.325156981  0.313167186  0.165801088

  ion indices of the primitive-cell ions
   primitive index   ion index
                 1           1
                 2           2
                 3           3
                 4           4
                 5           5
                 6           6
                 7           7
                 8           8
                 9           9
                10          10
                11          11
                12          12
                13          13
                14          14
                15          15
                16          16
                17          17
                18          18
                19          19
                20          20
                21          21
                22          22
                23          23
                24          24
                25          25
                26          26
                27          27
                28          28
                29          29
                30          30
                31          31
                32          32
                33          33
                34          34
                35          35
                36          36
                37          37
                38          38
                39          39
                40          40
                41          41
                42          42
                43          43
                44          44
                45          45
                46          46
                47          47
                48          48
                49          49
                50          50
                51          51
                52          52
                53          53

----------------------------------------------------------------------------------------

 
 
 KPOINTS: auto                                    

Automatic generation of k-mesh.
 Grid dimensions read from file:
 generate k-points for:    1    1    1

 Generating k-lattice:

  Cartesian coordinates                     Fractional coordinates (reciprocal lattice)
     0.081135903  0.046843835  0.000000000     1.000000000 -0.000000000  0.000000000
     0.000000000  0.093687670  0.000000000     0.000000000  1.000000000  0.000000000
     0.000000000  0.000000000  0.040000000     0.000000000  0.000000000  1.000000000

  Length of vectors
     0.093687670  0.093687670  0.040000000

  Shift w.r.t. Gamma in fractional coordinates (k-lattice)
     0.000000000  0.000000000  0.000000000

 
 Subroutine IBZKPT returns following result:
 ===========================================
 
 Found      1 irreducible k-points:
 
 Following reciprocal coordinates:
            Coordinates               Weight
  0.000000  0.000000  0.000000      1.000000
 
 Following cartesian coordinates:
            Coordinates               Weight
  0.000000  0.000000  0.000000      1.000000
 


--------------------------------------------------------------------------------------------------------




 Dimension of arrays:
   k-points           NKPTS =      1   k-points in BZ     NKDIM =      1   number of bands    NBANDS=    168
   number of dos      NEDOS =    301   number of ions     NIONS =     53
   non local maximal  LDIM  =      4   non local SUM 2l+1 LMDIM =      8
   total plane-waves  NPLWV = ******
   max r-space proj   IRMAX =      1   max aug-charges    IRDMAX=  10008
   dimension x,y,z NGX =   128 NGY =  128 NGZ =  270
   dimension x,y,z NGXF=   256 NGYF=  256 NGZF=  540
   support grid    NGXF=   256 NGYF=  256 NGZF=  540
   ions per type =              51   2
   NGX,Y,Z   is equivalent  to a cutoff of  17.27, 17.27, 17.95 a.u.
   NGXF,Y,Z  is equivalent  to a cutoff of  34.53, 34.53, 35.91 a.u.

 SYSTEM =  unknown system                          
 POSCAR =   C  O                                   

 Startparameter for this run:
   NWRITE =      2    write-flag & timer
   PREC   = accura    normal or accurate (medium, high low for compatibility)
   ISTART =      0    job   : 0-new  1-cont  2-samecut
   ICHARG =      2    charge: 1-file 2-atom 10-const
   ISPIN  =      1    spin polarized calculation?
   LNONCOLLINEAR =      F non collinear calculations
   LSORBIT =      F    spin-orbit coupling
   INIWAV =      1    electr: 0-lowe 1-rand  2-diag
   LASPH  =      T    aspherical Exc in radial PAW
 Electronic Relaxation 1
   ENCUT  = 1000.0 eV  73.50 Ry    8.57 a.u.  31.78 31.78 64.46*2*pi/ulx,y,z
   ENINI  = 1000.0     initial cutoff
   ENAUG  =  946.8 eV  augmentation charge cutoff
   NELM   =    200;   NELMIN=  2; NELMDL= -5     # of ELM steps 
   EDIFF  = 0.1E-06   stopping-criterion for ELM
   LREAL  =      F    real-space projection
   NLSPLINE    = F    spline interpolate recip. space projectors
   LCOMPAT=      F    compatible to vasp.4.4
   GGA_COMPAT  = T    GGA compatible to vasp.4.4-vasp.4.6
   LMAXPAW     = -100 max onsite density
   LMAXMIX     =    2 max onsite mixed and CHGCAR
   VOSKOWN=      0    Vosko Wilk Nusair interpolation
   ROPT   =    0.00000   0.00000
 Ionic relaxation
   EDIFFG = 0.1E-05   stopping-criterion for IOM
   NSW    =      0    number of steps for IOM
   NBLOCK =      1;   KBLOCK =      1    inner block; outer block 
   IBRION =     -1    ionic relax: 0-MD 1-quasi-New 2-CG
   NFREE  =      0    steps in history (QN), initial steepest desc. (CG)
   ISIF   =      0    stress and relaxation
   IWAVPR =     10    prediction:  0-non 1-charg 2-wave 3-comb
   ISYM   =      2    0-nonsym 1-usesym 2-fastsym
   LCORR  =      T    Harris-Foulkes like correction to forces

   POTIM  = 0.5000    time-step for ionic-motion
   TEIN   =    0.0    initial temperature
   TEBEG  =    0.0;   TEEND  =   0.0 temperature during run
   SMASS  =  -3.00    Nose mass-parameter (am)
   estimated Nose-frequenzy (Omega)   =  0.10E-29 period in steps = 0.13E+47 mass=  -0.347E-26a.u.
   SCALEE = 1.0000    scale energy and forces
   NPACO  =    256;   APACO  = 16.0  distance and # of slots for P.C.
   PSTRESS=    0.0 pullay stress

  Mass of Ions in am
   POMASS =  12.01 16.00
  Ionic Valenz
   ZVAL   =   4.00  6.00
  Atomic Wigner-Seitz radii
   RWIGS  =  -1.00 -1.00
  virtual crystal weights 
   VCA    =   1.00  1.00
   NELECT =     216.0000    total number of electrons
   NUPDOWN=      -1.0000    fix difference up-down

 DOS related values:
   EMIN   =  10.00;   EMAX   =-10.00  energy-range for DOS
   EFERMI =   0.00
   ISMEAR =     0;   SIGMA  =   0.01  broadening in eV -4-tet -1-fermi 0-gaus

 Electronic relaxation 2 (details)
   IALGO  =     58    algorithm
   LDIAG  =      T    sub-space diagonalisation (order eigenvalues)
   LSUBROT=      F    optimize rotation matrix (better conditioning)
   TURBO    =      0    0=normal 1=particle mesh
   IRESTART =      0    0=no restart 2=restart with 2 vectors
   NREBOOT  =      0    no. of reboots
   NMIN     =      0    reboot dimension
   EREF     =   0.00    reference energy to select bands
   IMIX   =      4    mixing-type and parameters
     AMIX     =   0.40;   BMIX     =  1.00
     AMIX_MAG =   1.60;   BMIX_MAG =  1.00
     AMIN     =   0.10
     WC   =   100.;   INIMIX=   1;  MIXPRE=   1;  MAXMIX= -45

 Intra band minimization:
   WEIMIN = 0.0000     energy-eigenvalue tresh-hold
   EBREAK =  0.15E-09  absolut break condition
   DEPER  =   0.30     relativ break condition  

   TIME   =   0.40     timestep for ELM

  volume/ion in A,a.u.               =      62.05       418.76
  Fermi-wavevector in a.u.,A,eV,Ry     =   0.660508  1.248179  5.935820  0.436270
  Thomas-Fermi vector in A             =   1.732977
 
 Write flags
   LWAVE        =      T    write WAVECAR
   LDOWNSAMPLE  =      F    k-point downsampling of WAVECAR
   LCHARG       =      T    write CHGCAR
   LVTOT        =      F    write LOCPOT, total local potential
   LVHAR        =      F    write LOCPOT, Hartree potential only
   LELF         =      F    write electronic localiz. function (ELF)
   LORBIT       =      0    0 simple, 1 ext, 2 COOP (PROOUT), +10 PAW based schemes


 Dipole corrections
   LMONO  =      F    monopole corrections only (constant potential shift)
   LDIPOL =      F    correct potential (dipole corrections)
   IDIPOL =      0    1-x, 2-y, 3-z, 4-all directions 
   EPSILON=  1.0000000 bulk dielectric constant

 Exchange correlation treatment:
   GGA     =    --    GGA type
   LEXCH   =     8    internal setting for exchange type
   VOSKOWN=      0    Vosko Wilk Nusair interpolation
   LHFCALC =     F    Hartree Fock is set to
   LHFONE  =     F    Hartree Fock one center treatment
   AEXX    =    0.0000 exact exchange contribution

 vdW DFT:
   LUSE_VDW   =     T    switch on vdW DFT
   Zab_VDW    =-.8491    correlation parameter
   PARAM1     =0.1234
   PARAM2     =1.0000
   PARAM3     =0.0000
   -- rVV10 --
   BPARAM     =15.7000
   CPARAM     = 0.0093

 Linear response parameters
   LEPSILON=     F    determine dielectric tensor
   LRPA    =     F    only Hartree local field effects (RPA)
   LNABLA  =     F    use nabla operator in PAW spheres
   LVEL    =     F    velocity operator in full k-point grid
   LINTERFAST=   F  fast interpolation
   KINTER  =     0    interpolate to denser k-point grid
   CSHIFT  =0.1000    complex shift for real part using Kramers Kronig
   OMEGAMAX=  -1.0    maximum frequency
   DEG_THRESHOLD= 0.2000000E-02 threshold for treating states as degnerate
   RTIME   =   -0.100 relaxation time in fs
  (WPLASMAI=    0.000 imaginary part of plasma frequency in eV, 0.658/RTIME)
   DFIELD  = 0.0000000 0.0000000 0.0000000 field for delta impulse in time
 
 Orbital magnetization related:
   ORBITALMAG=     F  switch on orbital magnetization
   LCHIMAG   =     F  perturbation theory with respect to B field
   DQ        =  0.001000  dq finite difference perturbation B field
   LLRAUG    =     F  two centre corrections for induced B field



--------------------------------------------------------------------------------------------------------


 Static calculation
 charge density and potential will be updated during run
 non-spin polarized calculation
 Conjugate gradient for all bands (Freysoldt, et al. PRB 79, 241103 (2009))
 preconditioned conjugated gradient                                        
 perform sub-space diagonalisation
    before iterative eigenvector-optimisation
 modified Broyden-mixing scheme, WC =      100.0
 initial mixing is a Kerker type mixing with AMIX =  0.4000 and BMIX =      1.0000
 Hartree-type preconditioning will be used
 using additional bands           60
 reciprocal scheme for non local part
 use partial core corrections
 no Harris-corrections to forces 
 use gradient corrections 
 use of overlap-Matrix (Vanderbilt PP)
 Gauss-broadening in eV      SIGMA  =   0.01


--------------------------------------------------------------------------------------------------------


  energy-cutoff  :     1000.00
  volume of cell :     3288.85
      direct lattice vectors                 reciprocal lattice vectors
    12.325000000  0.000000000  0.000000000     0.081135903  0.046843835  0.000000000
    -6.162500000 10.673763102  0.000000000     0.000000000  0.093687670  0.000000000
     0.000000000  0.000000000 25.000000000     0.000000000  0.000000000  0.040000000

  length of vectors
    12.325000000 12.325000000 25.000000000     0.093687670  0.093687670  0.040000000


 
 k-points in units of 2pi/SCALE and weight: auto                                    
   0.00000000  0.00000000  0.00000000       1.000
 
 k-points in reciprocal lattice and weights: auto                                    
   0.00000000  0.00000000  0.00000000       1.000
 
 position of ions in fractional coordinates (direct lattice) 
   0.97245084  0.00032082  0.00056671
   0.03911838  0.13365950  0.00044017
   0.17244363  0.00029545  0.00049963
   0.23909628  0.13364792  0.00025647
   0.97245206  0.20032201  0.00048522
   0.03912836  0.33364377  0.00044415
   0.17245176  0.20035455  0.00021917
   0.23912436  0.33366572  0.00007226
   0.37246557  0.00032440  0.00045391
   0.43913747  0.13361994  0.00025834
   0.97244982  0.40030936  0.00054761
   0.03912498  0.53363679  0.00057341
   0.37241618  0.40032948  0.00000000
   0.43909960  0.53363898  0.00023241
   0.57244368  0.00031213  0.00055958
   0.63911021  0.13363175  0.00054727
   0.97245270  0.60030565  0.00064029
   0.03912449  0.73364036  0.00065451
   0.57243347  0.60030624  0.00040289
   0.63911189  0.73364188  0.00052791
   0.17245463  0.40031823  0.00028904
   0.23912018  0.53363655  0.00037851
   0.37245975  0.20029599  0.00008900
   0.43910710  0.33367342  0.00005576
   0.17245216  0.60031151  0.00052434
   0.23912337  0.73363857  0.00057513
   0.57243108  0.20028917  0.00041330
   0.63911277  0.33361863  0.00046238
   0.37243981  0.60030802  0.00036284
   0.43911609  0.73363786  0.00049419
   0.57246936  0.40032050  0.00033992
   0.63911941  0.53365087  0.00045961
   0.77244572  0.00031543  0.00059616
   0.83911628  0.13364020  0.00057531
   0.77244051  0.20030743  0.00058103
   0.83912024  0.33363573  0.00058547
   0.77244632  0.40029837  0.00058298
   0.83911898  0.53363396  0.00062110
   0.77245614  0.60030817  0.00059571
   0.83911503  0.73364318  0.00063151
   0.97245531  0.80030558  0.00065223
   0.03911471  0.93364329  0.00059805
   0.17245797  0.80031221  0.00062337
   0.23913455  0.93364719  0.00054485
   0.37245140  0.80031667  0.00055140
   0.43912449  0.93364477  0.00054143
   0.57244110  0.80031005  0.00053453
   0.63911507  0.93363899  0.00058764
   0.77244510  0.80031319  0.00060206
   0.83911661  0.93364434  0.00060683
   0.37302101  0.25122688  0.16817928
   0.42087980  0.18931315  0.17075616
   0.32515698  0.31316719  0.16580109
 
 position of ions in cartesian coordinates  (Angst):
  11.98347958  0.00342433  0.01416777
  -0.34154264  1.42664989  0.01100432
   2.12354700  0.00315355  0.01249070
   2.12325634  1.42652621  0.00641170
  10.75098721  2.13818970  0.01213047
  -1.57382270  3.56123457  0.01110375
   0.89078307  2.13853702  0.00547917
   0.89099273  3.56146885  0.00180651
   4.58863896  0.00346260  0.01134782
   4.58893648  1.42622757  0.00645846
   9.51853763  4.27280730  0.01369027
  -2.80632132  5.69591267  0.01433526
   2.12299894  4.27302204  0.00000000
   2.12335237  5.69593607  0.00581036
   7.05344483  0.00333155  0.01398950
   7.05352764  1.42635365  0.01368187
   8.28609598  6.40752033  0.01600723
  -4.03884931  7.83070339  0.01636283
   3.35585531  6.40752662  0.01007237
   3.35598594  7.83071962  0.01319763
  -0.34145776  4.27290193  0.00722612
  -0.34137895  5.69591010  0.00946273
   3.35624236  2.13791198  0.00222492
   3.35573251  3.56155103  0.00139405
  -1.57394684  6.40758280  0.01310850
  -1.57385216  7.83068434  0.01437823
   5.82093107  2.13783916  0.01033241
   5.82114012  3.56096622  0.01155939
   0.89092245  6.40754561  0.00907111
   0.89106251  7.83067670  0.01235474
   4.58870974  4.27292622  0.00849795
   4.58852320  5.69606300  0.01149026
   9.51844972  0.00336679  0.01490402
   9.51855036  1.42644387  0.01438264
   8.28593477  2.13803408  0.01452582
   8.28612680  3.56114872  0.01463668
   7.05356221  4.27268994  0.01457444
   7.05362213  5.69588251  0.01552751
   5.82112285  6.40754723  0.01489279
   5.82101669  7.83073350  0.01578780
   7.05362858  8.54227219  0.01630582
  -5.27148792  9.96548729  0.01495127
  -2.80637951  8.54234295  0.01558431
  -2.80626749  9.96552896  0.01362126
  -0.34148805  8.54239058  0.01378498
  -0.34137657  9.96550309  0.01353576
   2.12342586  8.54231992  0.01336337
   2.12354296  9.96544135  0.01469111
   4.58845581  8.54235337  0.01505154
   4.58852904  9.96549848  0.01517076
   3.04929830  2.68153618  4.20448208
   4.02070129  2.02068374  4.26890394
   2.07766701  3.34267235  4.14502721
 


--------------------------------------------------------------------------------------------------------


 k-point   1 :   0.0000 0.0000 0.0000  plane waves:  236157

 maximum and minimum number of plane-waves per node :    236157   236157

 maximum number of plane-waves:    236157
 maximum index in each direction: 
   IXMAX=   31   IYMAX=   31   IZMAX=   64
   IXMIN=  -31   IYMIN=  -31   IZMIN=  -64


 serial   3D FFT for wavefunctions
 parallel 3D FFT for charge:
    minimum data exchange during FFTs selected (reduces bandwidth)


 total amount of memory used by VASP MPI-rank0   698619. kBytes
=======================================================================

   base      :      30000. kBytes
   nonl-proj :     230539. kBytes
   fftplans  :      40716. kBytes
   grid      :     363125. kBytes
   one-center:        162. kBytes
   wavefun   :      34077. kBytes
 
     INWAV:  cpu time    0.0000: real time    0.0000
 Broyden mixing: mesh for mixing (old mesh)
   NGX = 63   NGY = 63   NGZ =129
  (NGX  =256   NGY  =256   NGZ  =540)
  gives a total of 512001 points

 initial charge density was supplied:
 charge density of overlapping atoms calculated
 number of electron     216.0000000 magnetization 
 keeping initial charge density in first step


--------------------------------------------------------------------------------------------------------


 Maximum index for augmentation-charges          471 (set IRDMAX)


--------------------------------------------------------------------------------------------------------


 First call to EWALD:  gamma=   0.119
 Maximum number of real-space cells 4x 4x 2
 Maximum number of reciprocal cells 2x 2x 4

    FEWALD:  cpu time    0.0023: real time    0.0024


--------------------------------------- Iteration      1(   1)  ---------------------------------------


    POTLOK:  cpu time    8.5086: real time    8.5692
    SETDIJ:  cpu time    0.0035: real time    0.0036
    TRIAL :  cpu time   31.6056: real time   31.8425
    CORREC:  cpu time    0.0005: real time    0.0005
    --------------------------------------------
      LOOP:  cpu time   40.1372: real time   40.4420

 eigenvalue-minimisations  :   336
 total energy-change (2. order) : 0.2536495E+04  (-0.1080229E+05)
 number of electron     216.0000000 magnetization 
 augmentation part      216.0000000 magnetization 

 Free energy of the ion-electron system (eV)
  ---------------------------------------------------
  alpha Z        PSCENC =        47.94900195
  Ewald energy   TEWEN  =     45899.51553853
  -Hartree energ DENC   =    -51968.63327317
  -exchange      EXHF   =         0.00000000
  -V(xc)+E(xc)   XCENC  =       604.31484006
  PAW double counting   =      6339.73130699    -6197.22120962
  entropy T*S    EENTRO =        -0.00137602
  eigenvalues    EBANDS =      -558.68361610
  atomic energy  EATOM  =      8369.52358910
  ---------------------------------------------------
  free energy    TOTEN  =      2536.49480173 eV

  energy without entropy =     2536.49617775  energy(sigma->0) =     2536.49548974


--------------------------------------------------------------------------------------------------------




--------------------------------------- Iteration      1(   2)  ---------------------------------------


    TRIAL :  cpu time   51.5855: real time   51.9846
    CORREC:  cpu time    0.0001: real time    0.0001
    --------------------------------------------
      LOOP:  cpu time   51.6336: real time   52.0393

 eigenvalue-minimisations  :   672
 total energy-change (2. order) :-0.2529823E+04  (-0.2406269E+04)
 number of electron     216.0000000 magnetization 
 augmentation part      216.0000000 magnetization 

 Free energy of the ion-electron system (eV)
  ---------------------------------------------------
  alpha Z        PSCENC =        47.94900195
  Ewald energy   TEWEN  =     45899.51553853
  -Hartree energ DENC   =    -51968.63327317
  -exchange      EXHF   =         0.00000000
  -V(xc)+E(xc)   XCENC  =       604.31484006
  PAW double counting   =      6339.73130699    -6197.22120962
  entropy T*S    EENTRO =        -0.00000000
  eigenvalues    EBANDS =     -3088.50817803
  atomic energy  EATOM  =      8369.52358910
  ---------------------------------------------------
  free energy    TOTEN  =         6.67161582 eV

  energy without entropy =        6.67161582  energy(sigma->0) =        6.67161582


--------------------------------------------------------------------------------------------------------




--------------------------------------- Iteration      1(   3)  ---------------------------------------


    TRIAL :  cpu time   38.1913: real time   38.4918
    CORREC:  cpu time    0.0001: real time    0.0003
    --------------------------------------------
      LOOP:  cpu time   38.2392: real time   38.5406

 eigenvalue-minimisations  :   448
 total energy-change (2. order) :-0.6022276E+03  (-0.5998707E+03)
 number of electron     216.0000000 magnetization 
 augmentation part      216.0000000 magnetization 

 Free energy of the ion-electron system (eV)
  ---------------------------------------------------
  alpha Z        PSCENC =        47.94900195
  Ewald energy   TEWEN  =     45899.51553853
  -Hartree energ DENC   =    -51968.63327317
  -exchange      EXHF   =         0.00000000
  -V(xc)+E(xc)   XCENC  =       604.31484006
  PAW double counting   =      6339.73130699    -6197.22120962
  entropy T*S    EENTRO =        -0.00000000
  eigenvalues    EBANDS =     -3690.73575453
  atomic energy  EATOM  =      8369.52358910
  ---------------------------------------------------
  free energy    TOTEN  =      -595.55596068 eV

  energy without entropy =     -595.55596068  energy(sigma->0) =     -595.55596068


--------------------------------------------------------------------------------------------------------




--------------------------------------- Iteration      1(   4)  ---------------------------------------


    TRIAL :  cpu time   38.1458: real time   38.5117
    CORREC:  cpu time    0.0001: real time    0.0001
    --------------------------------------------
      LOOP:  cpu time   38.1971: real time   38.5646

 eigenvalue-minimisations  :   448
 total energy-change (2. order) :-0.1919339E+02  (-0.1909856E+02)
 number of electron     216.0000000 magnetization 
 augmentation part      216.0000000 magnetization 

 Free energy of the ion-electron system (eV)
  ---------------------------------------------------
  alpha Z        PSCENC =        47.94900195
  Ewald energy   TEWEN  =     45899.51553853
  -Hartree energ DENC   =    -51968.63327317
  -exchange      EXHF   =         0.00000000
  -V(xc)+E(xc)   XCENC  =       604.31484006
  PAW double counting   =      6339.73130699    -6197.22120962
  entropy T*S    EENTRO =        -0.00000000
  eigenvalues    EBANDS =     -3709.92914558
  atomic energy  EATOM  =      8369.52358910
  ---------------------------------------------------
  free energy    TOTEN  =      -614.74935173 eV

  energy without entropy =     -614.74935173  energy(sigma->0) =     -614.74935173


--------------------------------------------------------------------------------------------------------




--------------------------------------- Iteration      1(   5)  ---------------------------------------


    TRIAL :  cpu time   38.1490: real time   38.5285
    CORREC:  cpu time    0.0001: real time    0.0001
    CHARGE:  cpu time    3.2414: real time    3.2806
    --------------------------------------------
      LOOP:  cpu time   41.4854: real time   41.9054

 eigenvalue-minimisations  :   448
 total energy-change (2. order) :-0.6032948E+00  (-0.6015390E+00)
 number of electron     216.0000000 magnetization 
 augmentation part       -0.4279399 magnetization 

 Free energy of the ion-electron system (eV)
  ---------------------------------------------------
  alpha Z        PSCENC =        47.94900195
  Ewald energy   TEWEN  =     45899.51553853
  -Hartree energ DENC   =    -51968.63327317
  -exchange      EXHF   =         0.00000000
  -V(xc)+E(xc)   XCENC  =       604.31484006
  PAW double counting   =      6339.73130699    -6197.22120962
  entropy T*S    EENTRO =        -0.00000000
  eigenvalues    EBANDS =     -3710.53244037
  atomic energy  EATOM  =      8369.52358910
  ---------------------------------------------------
  free energy    TOTEN  =      -615.35264652 eV

  energy without entropy =     -615.35264652  energy(sigma->0) =     -615.35264652


--------------------------------------------------------------------------------------------------------




--------------------------------------- Iteration      1(   6)  ---------------------------------------


    POTLOK:  cpu time    8.4353: real time    8.4870
    SETDIJ:  cpu time    0.0018: real time    0.0018
    TRIAL :  cpu time   22.3893: real time   22.5731
    CORREC:  cpu time   16.1902: real time   16.2996
    CHARGE:  cpu time    3.2501: real time    3.2841
    --------------------------------------------
      LOOP:  cpu time   50.3005: real time   50.7097

 eigenvalue-minimisations  :     0
 total energy-change (2. order) : 0.1039023E+03  (-0.1206724E+02)
 number of electron     216.0000000 magnetization 
 augmentation part       -0.4871762 magnetization 

 Free energy of the ion-electron system (eV)
  ---------------------------------------------------
  alpha Z        PSCENC =        47.94900195
  Ewald energy   TEWEN  =     45899.51553853
  -Hartree energ DENC   =    -53325.16844638
  -exchange      EXHF   =         0.00000000
  -V(xc)+E(xc)   XCENC  =       670.97624661
  PAW double counting   =    113781.56759015  -113644.78959460
  entropy T*S    EENTRO =        -0.00000000
  eigenvalues    EBANDS =     -2311.02430214
  atomic energy  EATOM  =      8369.52358910
  ---------------------------------------------------
  free energy    TOTEN  =      -511.45037679 eV

  energy without entropy =     -511.45037679  energy(sigma->0) =     -511.45037679


--------------------------------------------------------------------------------------------------------




--------------------------------------- Iteration      1(   7)  ---------------------------------------


    POTLOK:  cpu time    8.4014: real time    8.4544
    SETDIJ:  cpu time    0.0018: real time    0.0018
    TRIAL :  cpu time   22.3987: real time   22.5614
    CORREC:  cpu time   16.1797: real time   16.2907
    CHARGE:  cpu time    3.2363: real time    3.2604
    --------------------------------------------
      LOOP:  cpu time   50.2694: real time   50.6219

 eigenvalue-minimisations  :     0
 total energy-change (2. order) :-0.1208166E+02  (-0.1573039E+01)
 number of electron     216.0000000 magnetization 
 augmentation part       -0.5185651 magnetization 

 Free energy of the ion-electron system (eV)
  ---------------------------------------------------
  alpha Z        PSCENC =        47.94900195
  Ewald energy   TEWEN  =     45899.51553853
  -Hartree energ DENC   =    -52896.05916459
  -exchange      EXHF   =         0.00000000
  -V(xc)+E(xc)   XCENC  =       651.13526062
  PAW double counting   =    131835.38840878  -131695.86143298
  entropy T*S    EENTRO =        -0.00000000
  eigenvalues    EBANDS =     -2735.12323538
  atomic energy  EATOM  =      8369.52358910
  ---------------------------------------------------
  free energy    TOTEN  =      -523.53203395 eV

  energy without entropy =     -523.53203395  energy(sigma->0) =     -523.53203395


--------------------------------------------------------------------------------------------------------




--------------------------------------- Iteration      1(   8)  ---------------------------------------


    POTLOK:  cpu time    8.4215: real time    8.4742
    SETDIJ:  cpu time    0.0018: real time    0.0019
    TRIAL :  cpu time   22.3862: real time   22.5598
    CORREC:  cpu time   16.1844: real time   16.2956
    CHARGE:  cpu time    3.2444: real time    3.2668
    --------------------------------------------
      LOOP:  cpu time   50.3090: real time   50.6717

 eigenvalue-minimisations  :     0
 total energy-change (2. order) :-0.1573499E+01  (-0.5058183E+00)
 number of electron     216.0000000 magnetization 
 augmentation part       -0.5179125 magnetization 

 Free energy of the ion-electron system (eV)
  ---------------------------------------------------
  alpha Z        PSCENC =        47.94900195
  Ewald energy   TEWEN  =     45899.51553853
  -Hartree energ DENC   =    -52866.45738267
  -exchange      EXHF   =         0.00000000
  -V(xc)+E(xc)   XCENC  =       649.52589142
  PAW double counting   =    140009.97465362  -139869.95799427
  entropy T*S    EENTRO =        -0.00000000
  eigenvalues    EBANDS =     -2765.17883103
  atomic energy  EATOM  =      8369.52358910
  ---------------------------------------------------
  free energy    TOTEN  =      -525.10553335 eV

  energy without entropy =     -525.10553335  energy(sigma->0) =     -525.10553335


--------------------------------------------------------------------------------------------------------




--------------------------------------- Iteration      1(   9)  ---------------------------------------


    POTLOK:  cpu time    8.4273: real time    8.4796
    SETDIJ:  cpu time    0.0018: real time    0.0018
    TRIAL :  cpu time   22.3930: real time   22.5589
    CORREC:  cpu time   16.1896: real time   16.3023
    CHARGE:  cpu time    3.2378: real time    3.2607
    --------------------------------------------
      LOOP:  cpu time   50.2645: real time   50.6410

 eigenvalue-minimisations  :     0
 total energy-change (2. order) :-0.5056441E+00  (-0.1933906E+00)
 number of electron     216.0000000 magnetization 
 augmentation part       -0.5135957 magnetization 

 Free energy of the ion-electron system (eV)
  ---------------------------------------------------
  alpha Z        PSCENC =        47.94900195
  Ewald energy   TEWEN  =     45899.51553853
  -Hartree energ DENC   =    -52874.83468591
  -exchange      EXHF   =         0.00000000
  -V(xc)+E(xc)   XCENC  =       649.30360595
  PAW double counting   =    146233.79904289  -146093.58351709
  entropy T*S    EENTRO =        -0.00000000
  eigenvalues    EBANDS =     -2757.28375292
  atomic energy  EATOM  =      8369.52358910
  ---------------------------------------------------
  free energy    TOTEN  =      -525.61117750 eV

  energy without entropy =     -525.61117750  energy(sigma->0) =     -525.61117750


--------------------------------------------------------------------------------------------------------




--------------------------------------- Iteration      1(  10)  ---------------------------------------


    POTLOK:  cpu time    8.4149: real time    8.4672
    SETDIJ:  cpu time    0.0018: real time    0.0018
    TRIAL :  cpu time   22.3834: real time   22.5571
    CORREC:  cpu time   16.1416: real time   16.3065
    CHARGE:  cpu time    3.2396: real time    3.2653
    --------------------------------------------
      LOOP:  cpu time   50.2608: real time   50.6805

 eigenvalue-minimisations  :     0
 total energy-change (2. order) :-0.1931960E+00  (-0.8085354E-01)
 number of electron     216.0000000 magnetization 
 augmentation part       -0.5079350 magnetization 

 Free energy of the ion-electron system (eV)
  ---------------------------------------------------
  alpha Z        PSCENC =        47.94900195
  Ewald energy   TEWEN  =     45899.51553853
  -Hartree energ DENC   =    -52874.90094544
  -exchange      EXHF   =         0.00000000
  -V(xc)+E(xc)   XCENC  =       649.11324411
  PAW double counting   =    148634.38231944  -148494.06967120
  entropy T*S    EENTRO =        -0.00000000
  eigenvalues    EBANDS =     -2757.31745002
  atomic energy  EATOM  =      8369.52358910
  ---------------------------------------------------
  free energy    TOTEN  =      -525.80437352 eV

  energy without entropy =     -525.80437352  energy(sigma->0) =     -525.80437352


--------------------------------------------------------------------------------------------------------




--------------------------------------- Iteration      1(  11)  ---------------------------------------


    POTLOK:  cpu time    8.4312: real time    8.4858
    SETDIJ:  cpu time    0.0019: real time    0.0019
    TRIAL :  cpu time   22.3811: real time   22.5459
    CORREC:  cpu time   16.1410: real time   16.2966
    CHARGE:  cpu time    3.2576: real time    3.2811
    --------------------------------------------
      LOOP:  cpu time   50.2441: real time   50.6464

 eigenvalue-minimisations  :     0
 total energy-change (2. order) :-0.8066599E-01  (-0.3216693E-01)
 number of electron     216.0000000 magnetization 
 augmentation part       -0.5044707 magnetization 

 Free energy of the ion-electron system (eV)
  ---------------------------------------------------
  alpha Z        PSCENC =        47.94900195
  Ewald energy   TEWEN  =     45899.51553853
  -Hartree energ DENC   =    -52869.29763855
  -exchange      EXHF   =         0.00000000
  -V(xc)+E(xc)   XCENC  =       648.97722830
  PAW double counting   =    148546.71654578  -148406.40115108
  entropy T*S    EENTRO =        -0.00000000
  eigenvalues    EBANDS =     -2762.86815354
  atomic energy  EATOM  =      8369.52358910
  ---------------------------------------------------
  free energy    TOTEN  =      -525.88503950 eV

  energy without entropy =     -525.88503950  energy(sigma->0) =     -525.88503950


--------------------------------------------------------------------------------------------------------




--------------------------------------- Iteration      1(  12)  ---------------------------------------


    POTLOK:  cpu time    8.4393: real time    8.4913
    SETDIJ:  cpu time    0.0018: real time    0.0018
    TRIAL :  cpu time   22.3617: real time   22.5608
    CORREC:  cpu time   16.2018: real time   16.3117
    CHARGE:  cpu time    3.2327: real time    3.2671
    --------------------------------------------
      LOOP:  cpu time   50.2773: real time   50.6734

 eigenvalue-minimisations  :     0
 total energy-change (2. order) :-0.3208308E-01  (-0.1046280E-01)
 number of electron     216.0000000 magnetization 
 augmentation part       -0.5045221 magnetization 

 Free energy of the ion-electron system (eV)
  ---------------------------------------------------
  alpha Z        PSCENC =        47.94900195
  Ewald energy   TEWEN  =     45899.51553853
  -Hartree energ DENC   =    -52864.76392140
  -exchange      EXHF   =         0.00000000
  -V(xc)+E(xc)   XCENC  =       648.88225874
  PAW double counting   =    147856.79835666  -147716.50853407
  entropy T*S    EENTRO =        -0.00000000
  eigenvalues    EBANDS =     -2767.31341210
  atomic energy  EATOM  =      8369.52358910
  ---------------------------------------------------
  free energy    TOTEN  =      -525.91712258 eV

  energy without entropy =     -525.91712258  energy(sigma->0) =     -525.91712258


--------------------------------------------------------------------------------------------------------




--------------------------------------- Iteration      1(  13)  ---------------------------------------


    POTLOK:  cpu time    8.4188: real time    8.5027
    SETDIJ:  cpu time    0.0018: real time    0.0018
    TRIAL :  cpu time   22.4086: real time   22.5719
    CORREC:  cpu time   16.1867: real time   16.3012
    CHARGE:  cpu time    3.2527: real time    3.2770
    --------------------------------------------
      LOOP:  cpu time   50.3343: real time   50.7350

 eigenvalue-minimisations  :     0
 total energy-change (2. order) :-0.1045169E-01  (-0.2898595E-02)
 number of electron     216.0000000 magnetization 
 augmentation part       -0.5051247 magnetization 

 Free energy of the ion-electron system (eV)
  ---------------------------------------------------
  alpha Z        PSCENC =        47.94900195
  Ewald energy   TEWEN  =     45899.51553853
  -Hartree energ DENC   =    -52863.23981127
  -exchange      EXHF   =         0.00000000
  -V(xc)+E(xc)   XCENC  =       648.83111647
  PAW double counting   =    147328.93377815  -147188.65669861
  entropy T*S    EENTRO =        -0.00000000
  eigenvalues    EBANDS =     -2768.78408860
  atomic energy  EATOM  =      8369.52358910
  ---------------------------------------------------
  free energy    TOTEN  =      -525.92757427 eV

  energy without entropy =     -525.92757427  energy(sigma->0) =     -525.92757427


--------------------------------------------------------------------------------------------------------




--------------------------------------- Iteration      1(  14)  ---------------------------------------


    POTLOK:  cpu time    8.4392: real time    8.4956
    SETDIJ:  cpu time    0.0019: real time    0.0019
    TRIAL :  cpu time   22.4096: real time   22.5684
    CORREC:  cpu time   16.2230: real time   16.3433
    CHARGE:  cpu time    3.2430: real time    3.2647
    --------------------------------------------
      LOOP:  cpu time   50.3577: real time   50.7170

 eigenvalue-minimisations  :     0
 total energy-change (2. order) :-0.2903005E-02  (-0.7388539E-03)
 number of electron     216.0000000 magnetization 
 augmentation part       -0.5053667 magnetization 

 Free energy of the ion-electron system (eV)
  ---------------------------------------------------
  alpha Z        PSCENC =        47.94900195
  Ewald energy   TEWEN  =     45899.51553853
  -Hartree energ DENC   =    -52863.20012385
  -exchange      EXHF   =         0.00000000
  -V(xc)+E(xc)   XCENC  =       648.82612185
  PAW double counting   =    147093.05481490  -146952.78335176
  entropy T*S    EENTRO =        -0.00000000
  eigenvalues    EBANDS =     -2768.81606801
  atomic energy  EATOM  =      8369.52358910
  ---------------------------------------------------
  free energy    TOTEN  =      -525.93047728 eV

  energy without entropy =     -525.93047728  energy(sigma->0) =     -525.93047728


--------------------------------------------------------------------------------------------------------




--------------------------------------- Iteration      1(  15)  ---------------------------------------


    POTLOK:  cpu time    8.4267: real time    8.4841
    SETDIJ:  cpu time    0.0021: real time    0.0022
    TRIAL :  cpu time   22.4148: real time   22.5728
    CORREC:  cpu time   16.1793: real time   16.2919
    CHARGE:  cpu time    3.2405: real time    3.2654
    --------------------------------------------
      LOOP:  cpu time   50.3063: real time   50.6599

 eigenvalue-minimisations  :     0
 total energy-change (2. order) :-0.7442083E-03  (-0.1849948E-03)
 number of electron     216.0000000 magnetization 
 augmentation part       -0.5054786 magnetization 

 Free energy of the ion-electron system (eV)
  ---------------------------------------------------
  alpha Z        PSCENC =        47.94900195
  Ewald energy   TEWEN  =     45899.51553853
  -Hartree energ DENC   =    -52863.11983952
  -exchange      EXHF   =         0.00000000
  -V(xc)+E(xc)   XCENC  =       648.82679187
  PAW double counting   =    147003.06858957  -146862.79955225
  entropy T*S    EENTRO =        -0.00000000
  eigenvalues    EBANDS =     -2768.89534074
  atomic energy  EATOM  =      8369.52358910
  ---------------------------------------------------
  free energy    TOTEN  =      -525.93122148 eV

  energy without entropy =     -525.93122148  energy(sigma->0) =     -525.93122148


--------------------------------------------------------------------------------------------------------




--------------------------------------- Iteration      1(  16)  ---------------------------------------


    POTLOK:  cpu time    8.4258: real time    8.4767
    SETDIJ:  cpu time    0.0018: real time    0.0018
    TRIAL :  cpu time   22.4039: real time   22.5664
    CORREC:  cpu time   16.1889: real time   16.2954
    CHARGE:  cpu time    3.2430: real time    3.2643
    --------------------------------------------
      LOOP:  cpu time   50.3067: real time   50.6561

 eigenvalue-minimisations  :     0
 total energy-change (2. order) :-0.1881787E-03  (-0.6220737E-04)
 number of electron     216.0000000 magnetization 
 augmentation part       -0.5055078 magnetization 

 Free energy of the ion-electron system (eV)
  ---------------------------------------------------
  alpha Z        PSCENC =        47.94900195
  Ewald energy   TEWEN  =     45899.51553853
  -Hartree energ DENC   =    -52863.02926368
  -exchange      EXHF   =         0.00000000
  -V(xc)+E(xc)   XCENC  =       648.82518836
  PAW double counting   =    146952.98871129  -146812.72008865
  entropy T*S    EENTRO =        -0.00000000
  eigenvalues    EBANDS =     -2768.98408657
  atomic energy  EATOM  =      8369.52358910
  ---------------------------------------------------
  free energy    TOTEN  =      -525.93140966 eV

  energy without entropy =     -525.93140966  energy(sigma->0) =     -525.93140966


--------------------------------------------------------------------------------------------------------




--------------------------------------- Iteration      1(  17)  ---------------------------------------


    POTLOK:  cpu time    8.4195: real time    8.4812
    SETDIJ:  cpu time    0.0019: real time    0.0019
    TRIAL :  cpu time   22.3900: real time   22.5514
    CORREC:  cpu time   16.1869: real time   16.3034
    CHARGE:  cpu time    3.2399: real time    3.2662
    --------------------------------------------
      LOOP:  cpu time   50.3016: real time   50.6704

 eigenvalue-minimisations  :     0
 total energy-change (2. order) :-0.6085754E-04  (-0.2107635E-04)
 number of electron     216.0000000 magnetization 
 augmentation part       -0.5055180 magnetization 

 Free energy of the ion-electron system (eV)
  ---------------------------------------------------
  alpha Z        PSCENC =        47.94900195
  Ewald energy   TEWEN  =     45899.51553853
  -Hartree energ DENC   =    -52863.14186196
  -exchange      EXHF   =         0.00000000
  -V(xc)+E(xc)   XCENC  =       648.83179068
  PAW double counting   =    146912.24421087  -146771.97629686
  entropy T*S    EENTRO =        -0.00000000
  eigenvalues    EBANDS =     -2768.87744283
  atomic energy  EATOM  =      8369.52358910
  ---------------------------------------------------
  free energy    TOTEN  =      -525.93147052 eV

  energy without entropy =     -525.93147052  energy(sigma->0) =     -525.93147052


--------------------------------------------------------------------------------------------------------




--------------------------------------- Iteration      1(  18)  ---------------------------------------


    POTLOK:  cpu time    8.4138: real time    8.4668
    SETDIJ:  cpu time    0.0019: real time    0.0019
    TRIAL :  cpu time   22.3958: real time   22.5610
    CORREC:  cpu time   16.1581: real time   16.2992
    CHARGE:  cpu time    3.2345: real time    3.2630
    --------------------------------------------
      LOOP:  cpu time   50.2730: real time   50.6709

 eigenvalue-minimisations  :     0
 total energy-change (2. order) :-0.2047961E-04  (-0.6573705E-05)
 number of electron     216.0000000 magnetization 
 augmentation part       -0.5055421 magnetization 

 Free energy of the ion-electron system (eV)
  ---------------------------------------------------
  alpha Z        PSCENC =        47.94900195
  Ewald energy   TEWEN  =     45899.51553853
  -Hartree energ DENC   =    -52863.21857678
  -exchange      EXHF   =         0.00000000
  -V(xc)+E(xc)   XCENC  =       648.83539088
  PAW double counting   =    146893.74521580  -146753.47734611
  entropy T*S    EENTRO =        -0.00000000
  eigenvalues    EBANDS =     -2768.80430438
  atomic energy  EATOM  =      8369.52358910
  ---------------------------------------------------
  free energy    TOTEN  =      -525.93149100 eV

  energy without entropy =     -525.93149100  energy(sigma->0) =     -525.93149100


--------------------------------------------------------------------------------------------------------




--------------------------------------- Iteration      1(  19)  ---------------------------------------


    POTLOK:  cpu time    8.4163: real time    8.4701
    SETDIJ:  cpu time    0.0018: real time    0.0018
    TRIAL :  cpu time   22.3933: real time   22.5819
    CORREC:  cpu time   64.7766: real time   65.2173
    CHARGE:  cpu time    3.2416: real time    3.2660
    --------------------------------------------
      LOOP:  cpu time   98.8749: real time   99.5853

 eigenvalue-minimisations  :     0
 total energy-change (2. order) :-0.6755901E-05  (-0.9889576E-05)
 number of electron     216.0000000 magnetization 
 augmentation part       -0.5055999 magnetization 

 Free energy of the ion-electron system (eV)
  ---------------------------------------------------
  alpha Z        PSCENC =        47.94900195
  Ewald energy   TEWEN  =     45899.51553853
  -Hartree energ DENC   =    -52863.22255731
  -exchange      EXHF   =         0.00000000
  -V(xc)+E(xc)   XCENC  =       648.83501878
  PAW double counting   =    146894.30799245  -146754.03971637
  entropy T*S    EENTRO =        -0.00000000
  eigenvalues    EBANDS =     -2768.80036489
  atomic energy  EATOM  =      8369.52358910
  ---------------------------------------------------
  free energy    TOTEN  =      -525.93149776 eV

  energy without entropy =     -525.93149776  energy(sigma->0) =     -525.93149776


--------------------------------------------------------------------------------------------------------




--------------------------------------- Iteration      1(  20)  ---------------------------------------


    POTLOK:  cpu time    8.4230: real time    8.4772
    SETDIJ:  cpu time    0.0018: real time    0.0018
    TRIAL :  cpu time   22.4036: real time   22.5703
    CORREC:  cpu time   16.1549: real time   16.2855
    CHARGE:  cpu time    3.2146: real time    3.2611
    --------------------------------------------
      LOOP:  cpu time   50.2298: real time   50.6296

 eigenvalue-minimisations  :     0
 total energy-change (2. order) : 0.1793422E-04  (-0.2078326E-04)
 number of electron     216.0000000 magnetization 
 augmentation part       -0.5055924 magnetization 

 Free energy of the ion-electron system (eV)
  ---------------------------------------------------
  alpha Z        PSCENC =        47.94900195
  Ewald energy   TEWEN  =     45899.51553853
  -Hartree energ DENC   =    -52863.29360808
  -exchange      EXHF   =         0.00000000
  -V(xc)+E(xc)   XCENC  =       648.83691856
  PAW double counting   =    146919.52691737  -146779.25790166
  entropy T*S    EENTRO =        -0.00000000
  eigenvalues    EBANDS =     -2768.73193560
  atomic energy  EATOM  =      8369.52358910
  ---------------------------------------------------
  free energy    TOTEN  =      -525.93147982 eV

  energy without entropy =     -525.93147982  energy(sigma->0) =     -525.93147982


--------------------------------------------------------------------------------------------------------




--------------------------------------- Iteration      1(  21)  ---------------------------------------


    POTLOK:  cpu time    8.4253: real time    8.4799
    SETDIJ:  cpu time    0.0018: real time    0.0018
    TRIAL :  cpu time   22.3821: real time   22.5688
    CORREC:  cpu time   16.1762: real time   16.2898
    CHARGE:  cpu time    3.2653: real time    3.2905
    --------------------------------------------
      LOOP:  cpu time   50.3081: real time   50.7000

 eigenvalue-minimisations  :     0
 total energy-change (2. order) :-0.1976656E-04  (-0.3732296E-05)
 number of electron     216.0000000 magnetization 
 augmentation part       -0.5055551 magnetization 

 Free energy of the ion-electron system (eV)
  ---------------------------------------------------
  alpha Z        PSCENC =        47.94900195
  Ewald energy   TEWEN  =     45899.51553853
  -Hartree energ DENC   =    -52863.26475238
  -exchange      EXHF   =         0.00000000
  -V(xc)+E(xc)   XCENC  =       648.83526439
  PAW double counting   =    146913.95644204  -146773.68745619
  entropy T*S    EENTRO =        -0.00000000
  eigenvalues    EBANDS =     -2768.75912704
  atomic energy  EATOM  =      8369.52358910
  ---------------------------------------------------
  free energy    TOTEN  =      -525.93149959 eV

  energy without entropy =     -525.93149959  energy(sigma->0) =     -525.93149959


--------------------------------------------------------------------------------------------------------




--------------------------------------- Iteration      1(  22)  ---------------------------------------


    POTLOK:  cpu time    8.4144: real time    8.4707
    SETDIJ:  cpu time    0.0018: real time    0.0018
    TRIAL :  cpu time   22.3892: real time   22.5567
    CORREC:  cpu time   16.1915: real time   16.3028
    CHARGE:  cpu time    3.2440: real time    3.2700
    --------------------------------------------
      LOOP:  cpu time   50.2898: real time   50.6540

 eigenvalue-minimisations  :     0
 total energy-change (2. order) :-0.3666151E-05  (-0.3529546E-06)
 number of electron     216.0000000 magnetization 
 augmentation part       -0.5055572 magnetization 

 Free energy of the ion-electron system (eV)
  ---------------------------------------------------
  alpha Z        PSCENC =        47.94900195
  Ewald energy   TEWEN  =     45899.51553853
  -Hartree energ DENC   =    -52863.27473670
  -exchange      EXHF   =         0.00000000
  -V(xc)+E(xc)   XCENC  =       648.83652040
  PAW double counting   =    146907.74940663  -146767.48092972
  entropy T*S    EENTRO =        -0.00000000
  eigenvalues    EBANDS =     -2768.74989345
  atomic energy  EATOM  =      8369.52358910
  ---------------------------------------------------
  free energy    TOTEN  =      -525.93150325 eV

  energy without entropy =     -525.93150325  energy(sigma->0) =     -525.93150325


--------------------------------------------------------------------------------------------------------




--------------------------------------- Iteration      1(  23)  ---------------------------------------


    POTLOK:  cpu time    8.4133: real time    8.4666
    SETDIJ:  cpu time    0.0018: real time    0.0019
    TRIAL :  cpu time   22.3720: real time   22.5541
    CORREC:  cpu time   16.1938: real time   16.3164
    CHARGE:  cpu time    3.2473: real time    3.2725
    --------------------------------------------
      LOOP:  cpu time   50.2928: real time   50.6807

 eigenvalue-minimisations  :     0
 total energy-change (2. order) : 0.4592584E-07  (-0.1947967E-06)
 number of electron     216.0000000 magnetization 
 augmentation part       -0.5055606 magnetization 

 Free energy of the ion-electron system (eV)
  ---------------------------------------------------
  alpha Z        PSCENC =        47.94900195
  Ewald energy   TEWEN  =     45899.51553853
  -Hartree energ DENC   =    -52863.26334135
  -exchange      EXHF   =         0.00000000
  -V(xc)+E(xc)   XCENC  =       648.83597941
  PAW double counting   =    146907.25813444  -146766.98963949
  entropy T*S    EENTRO =        -0.00000000
  eigenvalues    EBANDS =     -2768.76076581
  atomic energy  EATOM  =      8369.52358910
  ---------------------------------------------------
  free energy    TOTEN  =      -525.93150321 eV

  energy without entropy =     -525.93150321  energy(sigma->0) =     -525.93150321


--------------------------------------------------------------------------------------------------------




--------------------------------------- Iteration      1(  24)  ---------------------------------------


    POTLOK:  cpu time    8.4218: real time    8.4745
    SETDIJ:  cpu time    0.0019: real time    0.0019
    TRIAL :  cpu time   22.3747: real time   22.5612
    CORREC:  cpu time   16.1983: real time   16.3176
    CHARGE:  cpu time    3.2435: real time    3.2717
    --------------------------------------------
      LOOP:  cpu time   50.2697: real time   50.6643

 eigenvalue-minimisations  :     0
 total energy-change (2. order) : 0.2095476E-08  (-0.1076584E-06)
 number of electron     216.0000000 magnetization 
 augmentation part       -0.5055618 magnetization 

 Free energy of the ion-electron system (eV)
  ---------------------------------------------------
  alpha Z        PSCENC =        47.94900195
  Ewald energy   TEWEN  =     45899.51553853
  -Hartree energ DENC   =    -52863.25671117
  -exchange      EXHF   =         0.00000000
  -V(xc)+E(xc)   XCENC  =       648.83563809
  PAW double counting   =    146907.52862071  -146767.26008945
  entropy T*S    EENTRO =        -0.00000000
  eigenvalues    EBANDS =     -2768.76709097
  atomic energy  EATOM  =      8369.52358910
  ---------------------------------------------------
  free energy    TOTEN  =      -525.93150321 eV

  energy without entropy =     -525.93150321  energy(sigma->0) =     -525.93150321


--------------------------------------------------------------------------------------------------------




--------------------------------------- Iteration      1(  25)  ---------------------------------------


    POTLOK:  cpu time    8.4130: real time    8.4862
    SETDIJ:  cpu time    0.0018: real time    0.0018
    TRIAL :  cpu time   22.0964: real time   22.7206
    CORREC:  cpu time   16.2072: real time   16.3178
    EDDIAG:  cpu time    4.6110: real time    4.6496
    CHARGE:  cpu time    3.2426: real time    3.2656
    --------------------------------------------
      LOOP:  cpu time   54.6107: real time   55.4818

 eigenvalue-minimisations  :     0
 total energy-change (2. order) :-0.3509922E-07  (-0.9241111E-07)
 number of electron     216.0000000 magnetization 
 augmentation part       -0.5055618 magnetization 

 Free energy of the ion-electron system (eV)
  ---------------------------------------------------
  alpha Z        PSCENC =        47.94900195
  Ewald energy   TEWEN  =     45899.51553853
  -Hartree energ DENC   =    -52863.25283011
  -exchange      EXHF   =         0.00000000
  -V(xc)+E(xc)   XCENC  =       648.83547918
  PAW double counting   =    146907.66387483  -146767.39533823
  entropy T*S    EENTRO =        -0.00000000
  eigenvalues    EBANDS =     -2768.77081849
  atomic energy  EATOM  =      8369.52358910
  ---------------------------------------------------
  free energy    TOTEN  =      -525.93150324 eV

  energy without entropy =     -525.93150324  energy(sigma->0) =     -525.93150324


--------------------------------------------------------------------------------------------------------


  average scaling for gradient   0.8903


 average (electrostatic) potential at core
  the test charge radii are     0.5770  0.5955
  (the norm of the test charge is              1.0000)
       1 -88.0743       2 -88.0710       3 -88.0775       4 -88.0815       5 -88.0663
       6 -88.0632       7 -88.0755       8 -88.0673       9 -88.0680      10 -88.0741
      11 -88.0629      12 -88.0658      13 -88.0728      14 -88.0639      15 -88.0618
      16 -88.0652      17 -88.0677      18 -88.0715      19 -88.0706      20 -88.0669
      21 -88.0637      22 -88.0596      23 -88.0820      24 -88.0796      25 -88.0644
      26 -88.0651      27 -88.0653      28 -88.0731      29 -88.0650      30 -88.0611
      31 -88.0742      32 -88.0715      33 -88.0678      34 -88.0662      35 -88.0617
      36 -88.0666      37 -88.0650      38 -88.0707      39 -88.0706      40 -88.0717
      41 -88.0728      42 -88.0749      43 -88.0691      44 -88.0732      45 -88.0643
      46 -88.0637      47 -88.0665      48 -88.0643      49 -88.0715      50 -88.0702
      51 -92.1355      52-124.2665      53-124.2697
 
 
 
 E-fermi :  -4.3865     XC(G=0):  -1.8714     alpha+bet : -1.6890

 Fermi energy:        -4.3865251648

 k-point     1 :       0.0000    0.0000    0.0000
  band No.  band energies     occupation 
      1     -29.1947      2.00000
      2     -28.1688      2.00000
      3     -23.5788      2.00000
      4     -22.5962      2.00000
      5     -22.5945      2.00000
      6     -22.5917      2.00000
      7     -22.5910      2.00000
      8     -22.5890      2.00000
      9     -22.5888      2.00000
     10     -20.6605      2.00000
     11     -20.6604      2.00000
     12     -20.6598      2.00000
     13     -20.6592      2.00000
     14     -20.6589      2.00000
     15     -20.6587      2.00000
     16     -19.7246      2.00000
     17     -19.7243      2.00000
     18     -19.7240      2.00000
     19     -19.7238      2.00000
     20     -19.7236      2.00000
     21     -19.7230      2.00000
     22     -17.5040      2.00000
     23     -17.5038      2.00000
     24     -17.5030      2.00000
     25     -17.5023      2.00000
     26     -17.5001      2.00000
     27     -17.4998      2.00000
     28     -16.3451      2.00000
     29     -16.3449      2.00000
     30     -16.3441      2.00000
     31     -16.3439      2.00000
     32     -16.3433      2.00000
     33     -16.3432      2.00000
     34     -14.9521      2.00000
     35     -14.9519      2.00000
     36     -14.9516      2.00000
     37     -14.9511      2.00000
     38     -14.9510      2.00000
     39     -14.9497      2.00000
     40     -13.1480      2.00000
     41     -12.4926      2.00000
     42     -12.4925      2.00000
     43     -12.4919      2.00000
     44     -12.4919      2.00000
     45     -12.4912      2.00000
     46     -12.4911      2.00000
     47     -12.2762      2.00000
     48     -12.2762      2.00000
     49     -12.2746      2.00000
     50     -12.2745      2.00000
     51     -12.2725      2.00000
     52     -12.2722      2.00000
     53     -11.8715      2.00000
     54     -11.6181      2.00000
     55     -11.6150      2.00000
     56     -10.9432      2.00000
     57     -10.8290      2.00000
     58     -10.8289      2.00000
     59     -10.8279      2.00000
     60     -10.8276      2.00000
     61     -10.8271      2.00000
     62     -10.8270      2.00000
     63      -9.7771      2.00000
     64      -9.7740      2.00000
     65      -9.7687      2.00000
     66      -9.7684      2.00000
     67      -9.7653      2.00000
     68      -9.7649      2.00000
     69      -9.5281      2.00000
     70      -9.5277      2.00000
     71      -9.5275      2.00000
     72      -9.5273      2.00000
     73      -9.5271      2.00000
     74      -9.5260      2.00000
     75      -9.5256      2.00000
     76      -9.5254      2.00000
     77      -9.5253      2.00000
     78      -9.5239      2.00000
     79      -9.5235      2.00000
     80      -9.5233      2.00000
     81      -8.0224      2.00000
     82      -8.0199      2.00000
     83      -7.8219      2.00000
     84      -7.8209      2.00000
     85      -7.8200      2.00000
     86      -7.8195      2.00000
     87      -7.8164      2.00000
     88      -7.8159      2.00000
     89      -7.5306      2.00000
     90      -7.5301      2.00000
     91      -7.5266      2.00000
     92      -7.5255      2.00000
     93      -7.5253      2.00000
     94      -7.5250      2.00000
     95      -6.5856      2.00000
     96      -6.5837      2.00000
     97      -6.5831      2.00000
     98      -6.5808      2.00000
     99      -6.5803      2.00000
    100      -6.5794      2.00000
    101      -6.3038      2.00000
    102      -6.3014      2.00000
    103      -4.4862      2.00000
    104      -4.4855      2.00000
    105      -4.4842      2.00000
    106      -4.4836      2.00000
    107      -4.4802      2.00000
    108      -4.4800      2.00000
    109      -1.5114      0.00000
    110      -1.5111      0.00000
    111      -1.5078      0.00000
    112      -1.5076      0.00000
    113      -1.5068      0.00000
    114      -1.5063      0.00000
    115       0.4499      0.00000
    116       0.4665      0.00000
    117       0.4684      0.00000
    118       0.4692      0.00000
    119       0.4716      0.00000
    120       0.4725      0.00000
    121       0.4755      0.00000
    122       1.0658      0.00000
    123       1.2387      0.00000
    124       1.2498      0.00000
    125       1.5209      0.00000
    126       1.6301      0.00000
    127       1.8487      0.00000
    128       1.9312      0.00000
    129       1.9369      0.00000
    130       1.9411      0.00000
    131       1.9575      0.00000
    132       2.0871      0.00000
    133       2.2331      0.00000
    134       2.3483      0.00000
    135       2.3489      0.00000
    136       2.3519      0.00000
    137       2.3528      0.00000
    138       2.3531      0.00000
    139       2.3532      0.00000
    140       2.4317      0.00000
    141       2.5875      0.00000
    142       2.6831      0.00000
    143       2.6919      0.00000
    144       2.6970      0.00000
    145       2.7193      0.00000
    146       2.8220      0.00000
    147       2.8249      0.00000
    148       2.8409      0.00000
    149       2.8701      0.00000
    150       2.8909      0.00000
    151       2.9292      0.00000
    152       3.3987      0.00000
    153       3.4124      0.00000
    154       3.4672      0.00000
    155       3.5902      0.00000
    156       3.7491      0.00000
    157       4.0251      0.00000
    158       4.0283      0.00000
    159       4.2496      0.00000
    160       4.3754      0.00000
    161       4.5260      0.00000
    162       4.8684      0.00000
    163       4.9342      0.00000
    164       4.9436      0.00000
    165       4.9509      0.00000
    166       4.9531      0.00000
    167       4.9559      0.00000
    168       4.9583      0.00000


--------------------------------------------------------------------------------------------------------


 soft charge-density along one line, spin component           1
         0         1         2         3         4         5         6         7         8         9
 total charge-density along one line
 
 pseudopotential strength for first ion, spin component:           1
 12.643  21.273  -0.000   0.000   0.000  -0.000   0.000   0.000
 21.273  35.793  -0.000   0.000   0.000  -0.000   0.000   0.000
 -0.000  -0.000  -3.239   0.000   0.000  -5.804   0.000   0.000
  0.000   0.000   0.000  -3.243   0.000   0.000  -5.810   0.000
  0.000   0.000   0.000   0.000  -3.239   0.000   0.000  -5.804
 -0.000  -0.000  -5.804   0.000   0.000 -10.375   0.000   0.000
  0.000   0.000   0.000  -5.810   0.000   0.000 -10.386   0.000
  0.000   0.000   0.000   0.000  -5.804   0.000   0.000 -10.376
 total augmentation occupancy for first ion, spin component:           1
  9.643  -3.599   0.000  -0.002  -0.000  -0.000   0.001   0.000
 -3.599   1.374  -0.000   0.001   0.000   0.000  -0.000  -0.000
  0.000  -0.000   8.197  -0.009   0.001  -2.895   0.003  -0.000
 -0.002   0.001  -0.009   3.782  -0.000   0.003  -1.106   0.000
 -0.000   0.000   0.001  -0.000   8.195  -0.000   0.000  -2.895
 -0.000   0.000  -2.895   0.003  -0.000   1.036  -0.001   0.000
  0.001  -0.000   0.003  -1.106   0.000  -0.001   0.329   0.000
  0.000  -0.000  -0.000   0.000  -2.895   0.000   0.000   1.035


------------------------ aborting loop because EDIFF is reached ----------------------------------------


    FORLOC:  cpu time    0.1407: real time    0.1416
    FORNL :  cpu time    4.1586: real time    4.1942
    FORCOR:  cpu time    8.2954: real time    8.3657
    OFIELD:  cpu time    0.0032: real time    0.0032

 VOLUME and BASIS-vectors are now :
 -----------------------------------------------------------------------------
  energy-cutoff  :     1000.00
  volume of cell :     3288.85
      direct lattice vectors                 reciprocal lattice vectors
    12.325000000  0.000000000  0.000000000     0.081135903  0.046843835  0.000000000
    -6.162500000 10.673763102  0.000000000     0.000000000  0.093687670  0.000000000
     0.000000000  0.000000000 25.000000000     0.000000000  0.000000000  0.040000000

  length of vectors
    12.325000000 12.325000000 25.000000000     0.093687670  0.093687670  0.040000000


 FORCES acting on ions:
    Electron-Ion                     Ewald-Force                    Non-Local-Force
 -----------------------------------------------------------------------------------------------
   0.673E+01 0.586E+01 0.254E+02   -.673E+01 -.586E+01 -.254E+02   0.285E-02 0.492E-02 0.110E-01
   0.103E+02 0.501E+01 0.304E+02   -.103E+02 -.502E+01 -.304E+02   0.883E-02 0.902E-02 -.615E-02
   0.467E+01 0.123E+02 0.349E+02   -.467E+01 -.123E+02 -.349E+02   0.859E-02 0.351E-01 0.151E-01
   0.662E+01 0.961E+01 0.474E+02   -.664E+01 -.964E+01 -.474E+02   0.354E-01 0.250E-01 0.266E-01
   0.723E+01 0.169E+01 0.255E+02   -.722E+01 -.170E+01 -.255E+02   -.711E-02 0.271E-02 -.256E-02
   0.748E+01 -.138E+01 0.259E+02   -.747E+01 0.138E+01 -.259E+02   -.139E-01 0.114E-01 -.145E-01
   0.121E+02 0.454E+01 0.431E+02   -.121E+02 -.453E+01 -.431E+02   0.332E-01 -.122E-01 0.428E-02
   0.117E+02 -.414E+01 0.448E+02   -.117E+02 0.415E+01 -.448E+02   0.104E-01 -.385E-03 -.152E-01
   -.543E+01 0.111E+02 0.351E+02   0.544E+01 -.111E+02 -.351E+02   0.544E-02 0.173E-02 -.144E-01
   -.882E+01 0.743E+01 0.459E+02   0.885E+01 -.746E+01 -.459E+02   -.361E-01 0.398E-01 0.853E-02
   0.184E+01 -.172E+01 0.220E+02   -.183E+01 0.172E+01 -.220E+02   -.211E-02 -.212E-02 -.670E-02
   0.152E+01 -.125E+01 0.209E+02   -.152E+01 0.126E+01 -.209E+02   -.470E-02 -.405E-02 0.151E-02
   0.467E+01 -.103E+02 0.490E+02   -.471E+01 0.103E+02 -.490E+02   0.546E-01 -.130E-01 0.690E-02
   0.244E+01 -.123E+02 0.358E+02   -.246E+01 0.123E+02 -.357E+02   0.135E-01 -.211E-02 -.238E-01
   -.646E+01 0.402E+01 0.249E+02   0.646E+01 -.402E+01 -.249E+02   0.839E-02 -.160E-02 -.385E-02
   -.916E+01 0.266E+01 0.276E+02   0.917E+01 -.267E+01 -.275E+02   -.713E-02 0.123E-01 -.231E-01
   -.107E+01 -.416E+00 0.202E+02   0.108E+01 0.425E+00 -.202E+02   0.363E-03 -.148E-01 0.144E-02
   0.531E+00 0.382E+01 0.212E+02   -.533E+00 -.381E+01 -.212E+02   0.241E-02 -.837E-02 0.112E-01
   -.182E+01 -.110E+02 0.297E+02   0.181E+01 0.110E+02 -.297E+02   0.699E-02 -.165E-01 -.167E-02
   -.868E+00 -.579E+01 0.229E+02   0.871E+00 0.581E+01 -.229E+02   -.103E-01 -.137E-01 -.917E-03
   0.104E+02 -.457E+01 0.321E+02   -.104E+02 0.457E+01 -.321E+02   0.432E-03 0.275E-02 -.390E-01
   0.660E+01 -.559E+01 0.272E+02   -.660E+01 0.559E+01 -.272E+02   -.552E-02 0.892E-02 -.134E-01
   -.228E+01 0.453E+01 0.553E+02   0.228E+01 -.456E+01 -.553E+02   -.109E-01 0.372E-01 0.619E-01
   -.332E+01 -.716E+01 0.537E+02   0.331E+01 0.717E+01 -.537E+02   0.251E-01 -.210E-01 0.436E-01
   0.329E+01 -.137E+01 0.221E+02   -.328E+01 0.138E+01 -.221E+02   0.520E-02 -.824E-02 -.127E-01
   0.665E+00 0.293E+01 0.222E+02   -.670E+00 -.292E+01 -.222E+02   0.441E-02 -.187E-02 0.189E-02
   -.126E+02 0.166E+01 0.375E+02   0.126E+02 -.167E+01 -.375E+02   0.471E-02 0.209E-01 -.869E-02
   -.119E+02 -.485E+01 0.353E+02   0.119E+02 0.484E+01 -.353E+02   -.244E-01 0.153E-01 0.101E-02
   0.397E+01 -.802E+01 0.282E+02   -.398E+01 0.802E+01 -.281E+02   0.113E-01 0.103E-02 -.243E-01
   0.362E+00 -.320E+01 0.232E+02   -.367E+00 0.320E+01 -.232E+02   -.238E-02 0.955E-03 -.724E-02
   -.913E+01 -.966E+01 0.410E+02   0.915E+01 0.968E+01 -.410E+02   -.263E-01 -.190E-01 0.110E-01
   -.577E+01 -.106E+02 0.310E+02   0.578E+01 0.106E+02 -.310E+02   -.728E-02 -.253E-01 0.909E-02
   0.426E+00 0.165E+01 0.208E+02   -.419E+00 -.165E+01 -.208E+02   -.730E-02 -.213E-02 0.566E-02
   0.112E+01 0.164E+01 0.219E+02   -.112E+01 -.164E+01 -.219E+02   -.123E-01 0.992E-02 -.710E-02
   -.454E+01 0.639E+00 0.233E+02   0.454E+01 -.646E+00 -.233E+02   -.275E-02 0.414E-02 0.174E-02
   -.397E+01 -.163E+01 0.229E+02   0.397E+01 0.162E+01 -.229E+02   -.100E-01 0.487E-02 -.527E-02
   -.787E+01 -.408E+01 0.257E+02   0.789E+01 0.408E+01 -.257E+02   -.109E-01 -.715E-02 0.385E-02
   -.478E+01 -.384E+01 0.226E+02   0.479E+01 0.385E+01 -.226E+02   -.882E-02 -.126E-01 0.966E-02
   -.442E+01 -.573E+01 0.238E+02   0.443E+01 0.575E+01 -.238E+02   -.133E-01 -.208E-01 0.878E-02
   -.658E+00 -.141E+01 0.212E+02   0.664E+00 0.142E+01 -.212E+02   -.535E-02 -.138E-01 0.106E-01
   0.166E+01 0.407E+01 0.218E+02   -.166E+01 -.407E+01 -.218E+02   -.405E-02 -.344E-02 0.106E-01
   0.531E+01 0.831E+01 0.265E+02   -.531E+01 -.832E+01 -.265E+02   0.658E-02 0.653E-02 0.149E-01
   0.436E+00 0.703E+01 0.235E+02   -.436E+00 -.704E+01 -.235E+02   0.884E-02 -.240E-03 0.842E-03
   -.800E-01 0.119E+02 0.312E+02   0.841E-01 -.119E+02 -.312E+02   -.299E-02 0.107E-01 0.716E-02
   -.133E+01 0.260E+01 0.231E+02   0.133E+01 -.260E+01 -.231E+02   0.117E-01 -.492E-02 -.861E-02
   -.537E+01 0.670E+01 0.268E+02   0.537E+01 -.670E+01 -.268E+02   -.873E-03 0.120E-02 -.157E-01
   -.104E+01 -.283E+01 0.219E+02   0.104E+01 0.283E+01 -.219E+02   0.733E-03 -.453E-02 -.304E-03
   -.258E+01 0.102E+01 0.211E+02   0.258E+01 -.101E+01 -.211E+02   -.106E-01 0.489E-03 -.986E-02
   0.246E+00 -.176E+01 0.209E+02   -.241E+00 0.177E+01 -.210E+02   -.672E-02 -.118E-01 0.819E-02
   0.280E+01 0.202E+01 0.211E+02   -.279E+01 -.202E+01 -.211E+02   -.101E-01 0.124E-02 0.494E-02
   0.578E-01 -.403E-01 -.364E+03   -.513E-01 0.324E-01 0.364E+03   -.186E-01 0.177E-01 -.243E-01
   -.228E+03 0.155E+03 -.559E+03   0.279E+03 -.190E+03 0.563E+03   -.527E+02 0.358E+02 -.354E+01
   0.228E+03 -.155E+03 -.537E+03   -.279E+03 0.190E+03 0.534E+03   0.527E+02 -.358E+02 0.316E+01
 -----------------------------------------------------------------------------------------------
   -.835E-02 -.235E-02 0.373E+00   0.171E-12 -.142E-12 -.682E-12   0.508E-02 0.388E-01 -.368E+00
 
 
 POSITION                                       TOTAL-FORCE (eV/Angst)
 -----------------------------------------------------------------------------------
     11.98348      0.00342      0.01417        -0.007120      0.007053     -0.000420
     -0.34154      1.42665      0.01100        -0.015637      0.018082     -0.001099
      2.12355      0.00315      0.01249         0.010763      0.011574     -0.003491
      2.12326      1.42653      0.00641         0.021275      0.017085      0.001914
     10.75099      2.13819      0.01213        -0.007507      0.017285      0.000931
     -1.57382      3.56123      0.01110        -0.024038      0.014370     -0.001945
      0.89078      2.13854      0.00548         0.005060      0.016756      0.007745
      0.89099      3.56147      0.00181        -0.012547      0.013738      0.017491
      4.58864      0.00346      0.01135         0.027154     -0.018781     -0.000915
      4.58894      1.42623      0.00646         0.012368      0.023216      0.019610
      9.51854      4.27281      0.01369         0.016768     -0.000192     -0.000759
     -2.80632      5.69591      0.01434        -0.006111     -0.017353      0.000152
      2.12300      4.27302      0.00000         0.013964      0.019882      0.028340
      2.12335      5.69594      0.00581         0.002623      0.005477      0.001466
      7.05344      0.00333      0.01399         0.006807     -0.014553     -0.000953
      7.05353      1.42635      0.01368        -0.003428      0.013116     -0.005557
      8.28610      6.40752      0.01601         0.018148     -0.021210     -0.000282
     -4.03885      7.83070      0.01636         0.007655     -0.018451      0.000453
      3.35586      6.40753      0.01007        -0.017472     -0.011955     -0.002556
      3.35599      7.83072      0.01320        -0.018401     -0.007679      0.000747
     -0.34146      4.27290      0.00723         0.001048      0.019894     -0.003868
     -0.34138      5.69591      0.00946        -0.011615      0.001575      0.001085
      3.35624      2.13791      0.00222         0.000146      0.028383      0.031662
      3.35573      3.56155      0.00139         0.028735     -0.001444      0.022395
     -1.57395      6.40758      0.01311         0.026855     -0.015393     -0.002075
     -1.57385      7.83068      0.01438         0.009780     -0.002866      0.000955
      5.82093      2.13784      0.01033         0.020958      0.005243      0.000942
      5.82114      3.56097      0.01156         0.003892     -0.001823     -0.004994
      0.89092      6.40755      0.00907         0.003456     -0.001149     -0.003595
      0.89106      7.83068      0.01235        -0.008104      0.007022      0.001661
      4.58871      4.27293      0.00850        -0.017287     -0.000473     -0.006461
      4.58852      5.69606      0.01149         0.000581     -0.020868     -0.003885
      9.51845      0.00337      0.01490        -0.017355     -0.006306      0.000668
      9.51855      1.42644      0.01438        -0.030328      0.021040     -0.000752
      8.28593      2.13803      0.01453         0.000617     -0.000964      0.001857
      8.28613      3.56115      0.01464        -0.012854     -0.004617     -0.002169
      7.05356      4.27269      0.01457         0.004804     -0.008123      0.000972
      7.05362      5.69588      0.01553        -0.002057     -0.029608     -0.000688
      5.82112      6.40755      0.01489        -0.014590     -0.017860      0.000496
      5.82102      7.83073      0.01579        -0.005468     -0.019651      0.000557
      7.05363      8.54227      0.01631        -0.003125     -0.011927      0.001895
     -5.27149      9.96549      0.01495         0.000023     -0.002028     -0.001520
     -2.80638      8.54234      0.01558         0.028451     -0.015707     -0.000062
     -2.80627      9.96553      0.01362         0.019580      0.004002     -0.002657
     -0.34149      8.54239      0.01378         0.022972     -0.015786     -0.001303
     -0.34138      9.96550      0.01354         0.011001      0.011154     -0.001781
      2.12343      8.54232      0.01336        -0.013272     -0.014264     -0.000504
      2.12354      9.96544      0.01469        -0.025162      0.013999     -0.002643
      4.58846      8.54235      0.01505        -0.019996     -0.016718      0.002035
      4.58853      9.96550      0.01517        -0.025358      0.006647      0.001374
      3.04930      2.68154      4.20448        -0.029050      0.018903     -0.006165
      4.02070      2.02068      4.26890        -1.629035      1.090285     -0.141217
      2.07767      3.34267      4.14503         1.651432     -1.088030      0.056917
 -----------------------------------------------------------------------------------
    total drift:                               -0.003269      0.036472      0.004452


--------------------------------------------------------------------------------------------------------



  FREE ENERGIE OF THE ION-ELECTRON SYSTEM (eV)
  ---------------------------------------------------
  free  energy   TOTEN  =      -525.93150324 eV

  energy  without entropy=     -525.93150324  energy(sigma->0) =     -525.93150324
 


--------------------------------------------------------------------------------------------------------


    POTLOK:  cpu time    8.4228: real time    8.4732


--------------------------------------------------------------------------------------------------------


 writing wavefunctions
     LOOP+:  cpu time 1319.2847: real time 1330.2849
    4ORBIT:  cpu time    0.0000: real time    0.0000

 total amount of memory used by VASP MPI-rank0   698619. kBytes
=======================================================================

   base      :      30000. kBytes
   nonl-proj :     230539. kBytes
   fftplans  :      40716. kBytes
   grid      :     363125. kBytes
   one-center:        162. kBytes
   wavefun   :      34077. kBytes
 
  
  
 General timing and accounting informations for this job:
 ========================================================
  
                  Total CPU time used (sec):     1364.620
                            User time (sec):     1320.267
                          System time (sec):       44.352
                         Elapsed time (sec):     1376.844
  
                   Maximum memory used (kb):     1474448.
                   Average memory used (kb):          N/A
  
                          Minor page faults:       440165
                          Major page faults:          134
                 Voluntary context switches:         3746
