 vasp.6.2.1 16May21 (build Nov 06 2021 14:46:37) complex                        
  
 executed on             LinuxIFC date 2025.04.16  20:51:29
 running on  112 total cores
 distrk:  each k-point on   56 cores,    2 groups
 distr:  one band on NCORE=   1 cores,   56 groups


--------------------------------------------------------------------------------------------------------


 INCAR:
   ALGO = Conjugate
   KPAR = 2
   NCORE = 32
   ISMEAR = 0
   SIGMA = 0.01
   PREC = Accurate
   EDIFF = 1E-7
   ENCUT = 1000
   ISIF = 0
   METAGGA = SCAN
   LUSE_VDW = .TRUE.
   BPARAM = 15.7
   LASPH = .TRUE.
   SYMPREC = 1E-7
   NELM = 200

 POTCAR:    PAW_PBE C_h 06Feb2004                 
 POTCAR:    PAW_PBE O_h 06Feb2004                 
 -----------------------------------------------------------------------------
|                                                                             |
|           W    W    AA    RRRRR   N    N  II  N    N   GGGG   !!!           |
|           W    W   A  A   R    R  NN   N  II  NN   N  G    G  !!!           |
|           W    W  A    A  R    R  N N  N  II  N N  N  G       !!!           |
|           W WW W  AAAAAA  RRRRR   N  N N  II  N  N N  G  GGG   !            |
|           WW  WW  A    A  R   R   N   NN  II  N   NN  G    G                |
|           W    W  A    A  R    R  N    N  II  N    N   GGGG   !!!           |
|                                                                             |
|     The value NCORE = 32 specified in the INCAR file was overwritten,       |
|     because it was not compatible with the 56 processes available:          |
|     NCORE = 1                                                               |
|     was used instead, please check that this makes sense for your           |
|     machine.                                                                |
|                                                                             |
 -----------------------------------------------------------------------------

 -----------------------------------------------------------------------------
|                                                                             |
|           W    W    AA    RRRRR   N    N  II  N    N   GGGG   !!!           |
|           W    W   A  A   R    R  NN   N  II  NN   N  G    G  !!!           |
|           W    W  A    A  R    R  N N  N  II  N N  N  G       !!!           |
|           W WW W  AAAAAA  RRRRR   N  N N  II  N  N N  G  GGG   !            |
|           WW  WW  A    A  R   R   N   NN  II  N   NN  G    G                |
|           W    W  A    A  R    R  N    N  II  N    N   GGGG   !!!           |
|                                                                             |
|     For optimal performance we recommend to set                             |
|       NCORE = 2 up to number-of-cores-per-socket                            |
|     NCORE specifies how many cores store one orbital (NPAR=cpu/NCORE).      |
|     This setting can greatly improve the performance of VASP for DFT.       |
|     The default, NCORE=1 might be grossly inefficient on modern             |
|     multi-core architectures or massively parallel machines. Do your        |
|     own testing! More info at https://www.vasp.at/wiki/index.php/NCORE      |
|     Unfortunately you need to use the default for GW and RPA                |
|     calculations (for HF NCORE is supported but not extensively tested      |
|     yet).                                                                   |
|                                                                             |
 -----------------------------------------------------------------------------

 -----------------------------------------------------------------------------
|                                                                             |
|               ----> ADVICE to this user running VASP <----                  |
|                                                                             |
|     You have switched on vdW-DFT.                                           |
|     This routine was written and supplied by Jiri Klimes. We recommend      |
|     that you carefully read and cite the following publications:            |
|       J. Klimes, D.R. Bowler, A. Michelides                                 |
|          J. Phys.: Cond Matt. 22 022201 (2010)                              |
|       J. Klimes, D.R. Bowler, A. Michelides                                 |
|          Phys. Rev. B. 83, 195131 (2011)                                    |
|     and references therein.                                                 |
|                                                                             |
 -----------------------------------------------------------------------------

 POTCAR:    PAW_PBE C_h 06Feb2004                 
   VRHFIN =C: s2p2                                                                                  
   LEXCH  = PE                                                                                      
   EATOM  =   147.1560 eV,   10.8157 Ry                                                             
                                                                                                    
   TITEL  = PAW_PBE C_h 06Feb2004                                                                   
   LULTRA =        F    use ultrasoft PP ?                                                          
   IUNSCR =        1    unscreen: 0-lin 1-nonlin 2-no                                               
   RPACOR =    0.800    partial core radius                                                         
   POMASS =   12.011; ZVAL   =    4.000    mass and valenz                                          
   RCORE  =    1.100    outmost cutoff radius                                                       
   RWIGS  =    1.630; RWIGS  =    0.863    wigner-seitz radius (au A)                               
   ENMAX  =  700.000; ENMIN  =  500.000 eV                                                          
   ICORE  =        2    local potential                                                             
   LCOR   =        T    correct aug charges                                                         
   LPAW   =        T    paw PP                                                                      
   EAUG   =  946.768                                                                                
   DEXC   =    0.000                                                                                
   RMAX   =    1.128    core radius for proj-oper                                                   
   RAUG   =    1.300    factor for augmentation sphere                                              
   RDEP   =    1.162    radius for radial grids                                                     
   RDEPT  =    1.088    core radius for aug-charge                                                  
                                                                                                    
   Atomic configuration                                                                             
    4 entries                                                                                       
     n  l   j            E        occ.                                                              
     1  0  0.50      -273.3789   2.0000                                                             
     2  0  0.50       -13.7508   2.0000                                                             
     2  1  0.50        -5.2854   2.0000                                                             
     3  2  1.50        -5.4423   0.0000                                                             
   Description                                                                                      
     l       E           TYP  RCUT    TYP  RCUT                                                     
     0    -13.7508458     23  1.100                                                                 
     0     -8.2022199     23  1.100                                                                 
     1     -5.2854383     23  1.100                                                                 
     1      1.1560700     23  1.100                                                                 
     2     -5.4423304      7  1.100                                                                 
  local pseudopotential read in
  partial core-charges read in
  partial kinetic energy density read in
  atomic valenz-charges read in
  non local Contribution for L=           0  read in
    real space projection operators read in
  non local Contribution for L=           0  read in
    real space projection operators read in
  non local Contribution for L=           1  read in
    real space projection operators read in
  non local Contribution for L=           1  read in
    real space projection operators read in
    PAW grid and wavefunctions read in
 
   number of l-projection  operators is LMAX  =           4
   number of lm-projection operators is LMMAX =           8
 
 POTCAR:    PAW_PBE O_h 06Feb2004                 
   VRHFIN =O: s2p4                                                                                  
   LEXCH  = PE                                                                                      
   EATOM  =   432.3788 eV,   31.7789 Ry                                                             
                                                                                                    
   TITEL  = PAW_PBE O_h 06Feb2004                                                                   
   LULTRA =        F    use ultrasoft PP ?                                                          
   IUNSCR =        1    unscreen: 0-lin 1-nonlin 2-no                                               
   RPACOR =    0.800    partial core radius                                                         
   POMASS =   16.000; ZVAL   =    6.000    mass and valenz                                          
   RCORE  =    1.100    outmost cutoff radius                                                       
   RWIGS  =    1.400; RWIGS  =    0.741    wigner-seitz radius (au A)                               
   ENMAX  =  700.000; ENMIN  =  500.000 eV                                                          
   ICORE  =        2    local potential                                                             
   LCOR   =        T    correct aug charges                                                         
   LPAW   =        T    paw PP                                                                      
   EAUG   =  888.804                                                                                
   DEXC   =    0.000                                                                                
   RMAX   =    1.128    core radius for proj-oper                                                   
   RAUG   =    1.300    factor for augmentation sphere                                              
   RDEP   =    1.125    radius for radial grids                                                     
   RDEPT  =    1.088    core radius for aug-charge                                                  
                                                                                                    
   Atomic configuration                                                                             
    4 entries                                                                                       
     n  l   j            E        occ.                                                              
     1  0  0.50      -514.6923   2.0000                                                             
     2  0  0.50       -23.9615   2.0000                                                             
     2  1  0.50        -9.0305   4.0000                                                             
     3  2  1.50        -9.5241   0.0000                                                             
   Description                                                                                      
     l       E           TYP  RCUT    TYP  RCUT                                                     
     0    -23.9615319     23  1.100                                                                 
     0    -25.3221145     23  1.100                                                                 
     1     -9.0304911     23  1.100                                                                 
     1     -5.4802209     23  1.100                                                                 
     2     -9.5240782      7  1.100                                                                 
  local pseudopotential read in
  partial core-charges read in
  partial kinetic energy density read in
  atomic valenz-charges read in
  non local Contribution for L=           0  read in
    real space projection operators read in
  non local Contribution for L=           0  read in
    real space projection operators read in
  non local Contribution for L=           1  read in
    real space projection operators read in
  non local Contribution for L=           1  read in
    real space projection operators read in
    PAW grid and wavefunctions read in
 
   number of l-projection  operators is LMAX  =           4
   number of lm-projection operators is LMMAX =           8
 
 -----------------------------------------------------------------------------
|                                                                             |
|               ----> ADVICE to this user running VASP <----                  |
|                                                                             |
|     You have a (more or less) 'large supercell' and for larger cells it     |
|     might be more efficient to use real-space projection operators.         |
|     Therefore, try LREAL= Auto in the INCAR file.                           |
|     Mind: For very accurate calculation, you might also keep the            |
|     reciprocal projection scheme (i.e. LREAL=.FALSE.).                      |
|                                                                             |
 -----------------------------------------------------------------------------

  PAW_PBE C_h 06Feb2004                 :
 energy of atom  1       EATOM= -147.1560
 kinetic energy error for atom=    0.0031 (will be added to EATOM!!)
  PAW_PBE O_h 06Feb2004                 :
 energy of atom  2       EATOM= -432.3788
 kinetic energy error for atom=    0.0171 (will be added to EATOM!!)
 
 
 POSCAR:  C  O
  positions in cartesian coordinates
  No initial velocities read in

 METAGGA = SCAN     LMAXTAU =  6    LMIXTAU =  F

 exchange correlation table for  LEXCH =        8
   RHO(1)=    0.500       N(1)  =     2000
   RHO(2)=  100.500       N(2)  =     4000
 


--------------------------------------------------------------------------------------------------------


 ion  position               nearest neighbor table
   1  0.972  0.000  0.001-  50 1.42   2 1.42  42 1.42
   2  0.039  0.134  0.000-   5 1.42   7 1.42   1 1.42
   3  0.172  0.000  0.000-  42 1.42  44 1.42   4 1.42
   4  0.239  0.134  0.000-   7 1.42   3 1.42  23 1.42
   5  0.972  0.200  0.000-   6 1.42   2 1.42  34 1.42
   6  0.039  0.334  0.000-   5 1.42  21 1.42  11 1.42
   7  0.172  0.200  0.000-   8 1.42   2 1.42   4 1.42
   8  0.239  0.334  0.000-  13 1.42   7 1.42  21 1.42
   9  0.372  0.000  0.000-  10 1.42  44 1.42  46 1.42
  10  0.439  0.134  0.000-  27 1.42   9 1.42  23 1.42
  11  0.972  0.400  0.001-  12 1.42  36 1.42   6 1.42
  12  0.039  0.534  0.001-  25 1.42  11 1.42  17 1.42
  13  0.372  0.400  0.000-   8 1.42  14 1.42  24 1.42
  14  0.439  0.534  0.000-  13 1.42  29 1.42  19 1.42
  15  0.572  0.000  0.001-  46 1.42  16 1.42  48 1.42
  16  0.639  0.134  0.001-  15 1.42  35 1.42  27 1.42
  17  0.972  0.600  0.001-  38 1.42  18 1.42  12 1.42
  18  0.039  0.734  0.001-  43 1.42  41 1.42  17 1.42
  19  0.572  0.600  0.000-  14 1.42  20 1.42  32 1.42
  20  0.639  0.734  0.001-  49 1.42  19 1.42  47 1.42
  21  0.172  0.400  0.000-  22 1.42   8 1.42   6 1.42
  22  0.239  0.534  0.000-  21 1.42  29 1.42  25 1.42
  23  0.372  0.200  0.000-  10 1.42   4 1.42  24 1.42
  24  0.439  0.334  0.000-  13 1.42  31 1.42  23 1.42
  25  0.172  0.600  0.001-  26 1.42  12 1.42  22 1.42
  26  0.239  0.734  0.001-  25 1.42  45 1.42  43 1.42
  27  0.572  0.200  0.000-  10 1.42  28 1.42  16 1.42
  28  0.639  0.334  0.000-  27 1.42  37 1.42  31 1.42
  29  0.372  0.600  0.000-  22 1.42  14 1.42  30 1.42
  30  0.439  0.734  0.000-  47 1.42  29 1.42  45 1.42
  31  0.572  0.400  0.000-  32 1.42  28 1.42  24 1.42
  32  0.639  0.534  0.000-  31 1.42  39 1.42  19 1.42
  33  0.772  0.000  0.001-  34 1.42  48 1.42  50 1.42
  34  0.839  0.134  0.001-  33 1.42   5 1.42  35 1.42
  35  0.772  0.200  0.001-  36 1.42  16 1.42  34 1.42
  36  0.839  0.334  0.001-  35 1.42  11 1.42  37 1.42
  37  0.772  0.400  0.001-  28 1.42  38 1.42  36 1.42
  38  0.839  0.534  0.001-  17 1.42  37 1.42  39 1.42
  39  0.772  0.600  0.001-  40 1.42  38 1.42  32 1.42
  40  0.839  0.734  0.001-  39 1.42  49 1.42  41 1.42
  41  0.972  0.800  0.001-  18 1.42  42 1.42  40 1.42
  42  0.039  0.934  0.001-   3 1.42  41 1.42   1 1.42
  43  0.172  0.800  0.001-  18 1.42  44 1.42  26 1.42
  44  0.239  0.934  0.001-   9 1.42  43 1.42   3 1.42
  45  0.372  0.800  0.001-  26 1.42  46 1.42  30 1.42
  46  0.439  0.934  0.001-  15 1.42  45 1.42   9 1.42
  47  0.572  0.800  0.001-  30 1.42  48 1.42  20 1.42
  48  0.639  0.934  0.001-  47 1.42  33 1.42  15 1.42
  49  0.772  0.800  0.001-  50 1.42  20 1.42  40 1.42
  50  0.839  0.934  0.001-  49 1.42   1 1.42  33 1.42
  51  0.373  0.251  0.159-  52 1.18  53 1.18
  52  0.421  0.189  0.161-  51 1.18
  53  0.325  0.313  0.156-  51 1.18
 
  LATTYP: Found a hexagonal cell.
 ALAT       =    12.3250000000
 C/A-ratio  =     2.0283975659
  
  Lattice vectors:
  
 A1 = (  12.3250000000,   0.0000000000,   0.0000000000)
 A2 = (  -6.1625000000,  10.6737631016,   0.0000000000)
 A3 = (   0.0000000000,   0.0000000000,  25.0000000000)


Analysis of symmetry for initial positions (statically):
=====================================================================
 Subroutine PRICEL returns:
 Original cell was already a primitive cell.
 

 Routine SETGRP: Setting up the symmetry group for a 
 hexagonal supercell.


 Subroutine GETGRP returns: Found  1 space group operations
 (whereof  1 operations were pure point group operations)
 out of a pool of 24 trial point group operations.


The static configuration has the point symmetry C_1 .


Analysis of symmetry for dynamics (positions and initial velocities):
=====================================================================
 Subroutine PRICEL returns:
 Original cell was already a primitive cell.
 

 Routine SETGRP: Setting up the symmetry group for a 
 hexagonal supercell.


 Subroutine GETGRP returns: Found  1 space group operations
 (whereof  1 operations were pure point group operations)
 out of a pool of 24 trial point group operations.


The dynamic configuration has the point symmetry C_1 .


 Subroutine INISYM returns: Found  1 space group operations
 (whereof  1 operations are pure point group operations),
 and found     1 'primitive' translations


----------------------------------------------------------------------------------------

                                     Primitive cell                                     

  volume of cell :    3288.8533

  direct lattice vectors                    reciprocal lattice vectors
    12.325000000  0.000000000  0.000000000     0.081135903  0.046843835  0.000000000
    -6.162500000 10.673763102  0.000000000     0.000000000  0.093687670  0.000000000
     0.000000000  0.000000000 25.000000000     0.000000000  0.000000000  0.040000000

  length of vectors
    12.325000000 12.325000000 25.000000000     0.093687670  0.093687670  0.040000000

  position of ions in fractional coordinates (direct lattice)
     0.972450841  0.000320818  0.000566711
     0.039118382  0.133659505  0.000440173
     0.172443627  0.000295449  0.000499628
     0.239096278  0.133647917  0.000256468
     0.972452058  0.200322012  0.000485219
     0.039128360  0.333643771  0.000444150
     0.172451764  0.200354552  0.000219167
     0.239124359  0.333665720  0.000072260
     0.372465565  0.000324403  0.000453913
     0.439137473  0.133619939  0.000258338
     0.972449824  0.400309362  0.000547611
     0.039124981  0.533636789  0.000573410
     0.372416176  0.400329481  0.000000000
     0.439099602  0.533638981  0.000232414
     0.572443676  0.000312125  0.000559580
     0.639110207  0.133631751  0.000547275
     0.972452703  0.600305653  0.000640289
     0.039124495  0.733640359  0.000654513
     0.572433471  0.600306242  0.000402895
     0.639111888  0.733641879  0.000527905
     0.172454630  0.400318228  0.000289045
     0.239120185  0.533636548  0.000378509
     0.372459750  0.200295993  0.000088997
     0.439107096  0.333673419  0.000055762
     0.172452155  0.600311506  0.000524340
     0.239123371  0.733638574  0.000575129
     0.572431082  0.200289171  0.000413296
     0.639112773  0.333618630  0.000462376
     0.372439808  0.600308022  0.000362844
     0.439116090  0.733637858  0.000494190
     0.572469358  0.400320504  0.000339918
     0.639119408  0.533650873  0.000459610
     0.772445723  0.000315427  0.000596161
     0.839116277  0.133640203  0.000575306
     0.772440513  0.200307432  0.000581033
     0.839120241  0.333635728  0.000585467
     0.772446320  0.400298367  0.000582978
     0.839118980  0.533633964  0.000621100
     0.772456143  0.600308173  0.000595712
     0.839115033  0.733643180  0.000631512
     0.972455313  0.800305582  0.000652233
     0.039114714  0.933643289  0.000598051
     0.172457971  0.800312211  0.000623372
     0.239134551  0.933647193  0.000544850
     0.372451396  0.800316674  0.000551399
     0.439124489  0.933644769  0.000541430
     0.572441101  0.800310054  0.000534535
     0.639115067  0.933638985  0.000587644
     0.772445098  0.800313187  0.000602062
     0.839116614  0.933644338  0.000606830
     0.373021009  0.251226878  0.158740105
     0.420879805  0.189313152  0.161316980
     0.325156981  0.313167186  0.156361910

  ion indices of the primitive-cell ions
   primitive index   ion index
                 1           1
                 2           2
                 3           3
                 4           4
                 5           5
                 6           6
                 7           7
                 8           8
                 9           9
                10          10
                11          11
                12          12
                13          13
                14          14
                15          15
                16          16
                17          17
                18          18
                19          19
                20          20
                21          21
                22          22
                23          23
                24          24
                25          25
                26          26
                27          27
                28          28
                29          29
                30          30
                31          31
                32          32
                33          33
                34          34
                35          35
                36          36
                37          37
                38          38
                39          39
                40          40
                41          41
                42          42
                43          43
                44          44
                45          45
                46          46
                47          47
                48          48
                49          49
                50          50
                51          51
                52          52
                53          53

----------------------------------------------------------------------------------------

 
 
 KPOINTS: auto                                    

Automatic generation of k-mesh.
 Grid dimensions read from file:
 generate k-points for:    1    1    1

 Generating k-lattice:

  Cartesian coordinates                     Fractional coordinates (reciprocal lattice)
     0.081135903  0.046843835  0.000000000     1.000000000 -0.000000000  0.000000000
     0.000000000  0.093687670  0.000000000     0.000000000  1.000000000  0.000000000
     0.000000000  0.000000000  0.040000000     0.000000000  0.000000000  1.000000000

  Length of vectors
     0.093687670  0.093687670  0.040000000

  Shift w.r.t. Gamma in fractional coordinates (k-lattice)
     0.000000000  0.000000000  0.000000000

 
 Subroutine IBZKPT returns following result:
 ===========================================
 
 Found      1 irreducible k-points:
 
 Following reciprocal coordinates:
            Coordinates               Weight
  0.000000  0.000000  0.000000      1.000000
 
 Following cartesian coordinates:
            Coordinates               Weight
  0.000000  0.000000  0.000000      1.000000
 


--------------------------------------------------------------------------------------------------------




 Dimension of arrays:
   k-points           NKPTS =      1   k-points in BZ     NKDIM =      1   number of bands    NBANDS=    168
   number of dos      NEDOS =    301   number of ions     NIONS =     53
   non local maximal  LDIM  =      4   non local SUM 2l+1 LMDIM =      8
   total plane-waves  NPLWV = ******
   max r-space proj   IRMAX =      1   max aug-charges    IRDMAX=  10008
   dimension x,y,z NGX =   128 NGY =  128 NGZ =  270
   dimension x,y,z NGXF=   256 NGYF=  256 NGZF=  540
   support grid    NGXF=   256 NGYF=  256 NGZF=  540
   ions per type =              51   2
   NGX,Y,Z   is equivalent  to a cutoff of  17.27, 17.27, 17.95 a.u.
   NGXF,Y,Z  is equivalent  to a cutoff of  34.53, 34.53, 35.91 a.u.

 SYSTEM =  unknown system                          
 POSCAR =   C  O                                   

 Startparameter for this run:
   NWRITE =      2    write-flag & timer
   PREC   = accura    normal or accurate (medium, high low for compatibility)
   ISTART =      0    job   : 0-new  1-cont  2-samecut
   ICHARG =      2    charge: 1-file 2-atom 10-const
   ISPIN  =      1    spin polarized calculation?
   LNONCOLLINEAR =      F non collinear calculations
   LSORBIT =      F    spin-orbit coupling
   INIWAV =      1    electr: 0-lowe 1-rand  2-diag
   LASPH  =      T    aspherical Exc in radial PAW
 Electronic Relaxation 1
   ENCUT  = 1000.0 eV  73.50 Ry    8.57 a.u.  31.78 31.78 64.46*2*pi/ulx,y,z
   ENINI  = 1000.0     initial cutoff
   ENAUG  =  946.8 eV  augmentation charge cutoff
   NELM   =    200;   NELMIN=  2; NELMDL= -5     # of ELM steps 
   EDIFF  = 0.1E-06   stopping-criterion for ELM
   LREAL  =      F    real-space projection
   NLSPLINE    = F    spline interpolate recip. space projectors
   LCOMPAT=      F    compatible to vasp.4.4
   GGA_COMPAT  = T    GGA compatible to vasp.4.4-vasp.4.6
   LMAXPAW     = -100 max onsite density
   LMAXMIX     =    2 max onsite mixed and CHGCAR
   VOSKOWN=      0    Vosko Wilk Nusair interpolation
   ROPT   =    0.00000   0.00000
 Ionic relaxation
   EDIFFG = 0.1E-05   stopping-criterion for IOM
   NSW    =      0    number of steps for IOM
   NBLOCK =      1;   KBLOCK =      1    inner block; outer block 
   IBRION =     -1    ionic relax: 0-MD 1-quasi-New 2-CG
   NFREE  =      0    steps in history (QN), initial steepest desc. (CG)
   ISIF   =      0    stress and relaxation
   IWAVPR =     10    prediction:  0-non 1-charg 2-wave 3-comb
   ISYM   =      2    0-nonsym 1-usesym 2-fastsym
   LCORR  =      T    Harris-Foulkes like correction to forces

   POTIM  = 0.5000    time-step for ionic-motion
   TEIN   =    0.0    initial temperature
   TEBEG  =    0.0;   TEEND  =   0.0 temperature during run
   SMASS  =  -3.00    Nose mass-parameter (am)
   estimated Nose-frequenzy (Omega)   =  0.10E-29 period in steps = 0.13E+47 mass=  -0.347E-26a.u.
   SCALEE = 1.0000    scale energy and forces
   NPACO  =    256;   APACO  = 16.0  distance and # of slots for P.C.
   PSTRESS=    0.0 pullay stress

  Mass of Ions in am
   POMASS =  12.01 16.00
  Ionic Valenz
   ZVAL   =   4.00  6.00
  Atomic Wigner-Seitz radii
   RWIGS  =  -1.00 -1.00
  virtual crystal weights 
   VCA    =   1.00  1.00
   NELECT =     216.0000    total number of electrons
   NUPDOWN=      -1.0000    fix difference up-down

 DOS related values:
   EMIN   =  10.00;   EMAX   =-10.00  energy-range for DOS
   EFERMI =   0.00
   ISMEAR =     0;   SIGMA  =   0.01  broadening in eV -4-tet -1-fermi 0-gaus

 Electronic relaxation 2 (details)
   IALGO  =     58    algorithm
   LDIAG  =      T    sub-space diagonalisation (order eigenvalues)
   LSUBROT=      F    optimize rotation matrix (better conditioning)
   TURBO    =      0    0=normal 1=particle mesh
   IRESTART =      0    0=no restart 2=restart with 2 vectors
   NREBOOT  =      0    no. of reboots
   NMIN     =      0    reboot dimension
   EREF     =   0.00    reference energy to select bands
   IMIX   =      4    mixing-type and parameters
     AMIX     =   0.40;   BMIX     =  1.00
     AMIX_MAG =   1.60;   BMIX_MAG =  1.00
     AMIN     =   0.10
     WC   =   100.;   INIMIX=   1;  MIXPRE=   1;  MAXMIX= -45

 Intra band minimization:
   WEIMIN = 0.0000     energy-eigenvalue tresh-hold
   EBREAK =  0.15E-09  absolut break condition
   DEPER  =   0.30     relativ break condition  

   TIME   =   0.40     timestep for ELM

  volume/ion in A,a.u.               =      62.05       418.76
  Fermi-wavevector in a.u.,A,eV,Ry     =   0.660508  1.248179  5.935820  0.436270
  Thomas-Fermi vector in A             =   1.732977
 
 Write flags
   LWAVE        =      T    write WAVECAR
   LDOWNSAMPLE  =      F    k-point downsampling of WAVECAR
   LCHARG       =      T    write CHGCAR
   LVTOT        =      F    write LOCPOT, total local potential
   LVHAR        =      F    write LOCPOT, Hartree potential only
   LELF         =      F    write electronic localiz. function (ELF)
   LORBIT       =      0    0 simple, 1 ext, 2 COOP (PROOUT), +10 PAW based schemes


 Dipole corrections
   LMONO  =      F    monopole corrections only (constant potential shift)
   LDIPOL =      F    correct potential (dipole corrections)
   IDIPOL =      0    1-x, 2-y, 3-z, 4-all directions 
   EPSILON=  1.0000000 bulk dielectric constant

 Exchange correlation treatment:
   GGA     =    --    GGA type
   LEXCH   =     8    internal setting for exchange type
   VOSKOWN=      0    Vosko Wilk Nusair interpolation
   LHFCALC =     F    Hartree Fock is set to
   LHFONE  =     F    Hartree Fock one center treatment
   AEXX    =    0.0000 exact exchange contribution

 vdW DFT:
   LUSE_VDW   =     T    switch on vdW DFT
   Zab_VDW    =-.8491    correlation parameter
   PARAM1     =0.1234
   PARAM2     =1.0000
   PARAM3     =0.0000
   -- rVV10 --
   BPARAM     =15.7000
   CPARAM     = 0.0093

 Linear response parameters
   LEPSILON=     F    determine dielectric tensor
   LRPA    =     F    only Hartree local field effects (RPA)
   LNABLA  =     F    use nabla operator in PAW spheres
   LVEL    =     F    velocity operator in full k-point grid
   LINTERFAST=   F  fast interpolation
   KINTER  =     0    interpolate to denser k-point grid
   CSHIFT  =0.1000    complex shift for real part using Kramers Kronig
   OMEGAMAX=  -1.0    maximum frequency
   DEG_THRESHOLD= 0.2000000E-02 threshold for treating states as degnerate
   RTIME   =   -0.100 relaxation time in fs
  (WPLASMAI=    0.000 imaginary part of plasma frequency in eV, 0.658/RTIME)
   DFIELD  = 0.0000000 0.0000000 0.0000000 field for delta impulse in time
 
 Orbital magnetization related:
   ORBITALMAG=     F  switch on orbital magnetization
   LCHIMAG   =     F  perturbation theory with respect to B field
   DQ        =  0.001000  dq finite difference perturbation B field
   LLRAUG    =     F  two centre corrections for induced B field



--------------------------------------------------------------------------------------------------------


 Static calculation
 charge density and potential will be updated during run
 non-spin polarized calculation
 Conjugate gradient for all bands (Freysoldt, et al. PRB 79, 241103 (2009))
 preconditioned conjugated gradient                                        
 perform sub-space diagonalisation
    before iterative eigenvector-optimisation
 modified Broyden-mixing scheme, WC =      100.0
 initial mixing is a Kerker type mixing with AMIX =  0.4000 and BMIX =      1.0000
 Hartree-type preconditioning will be used
 using additional bands           60
 reciprocal scheme for non local part
 use partial core corrections
 no Harris-corrections to forces 
 use gradient corrections 
 use of overlap-Matrix (Vanderbilt PP)
 Gauss-broadening in eV      SIGMA  =   0.01


--------------------------------------------------------------------------------------------------------


  energy-cutoff  :     1000.00
  volume of cell :     3288.85
      direct lattice vectors                 reciprocal lattice vectors
    12.325000000  0.000000000  0.000000000     0.081135903  0.046843835  0.000000000
    -6.162500000 10.673763102  0.000000000     0.000000000  0.093687670  0.000000000
     0.000000000  0.000000000 25.000000000     0.000000000  0.000000000  0.040000000

  length of vectors
    12.325000000 12.325000000 25.000000000     0.093687670  0.093687670  0.040000000


 
 k-points in units of 2pi/SCALE and weight: auto                                    
   0.00000000  0.00000000  0.00000000       1.000
 
 k-points in reciprocal lattice and weights: auto                                    
   0.00000000  0.00000000  0.00000000       1.000
 
 position of ions in fractional coordinates (direct lattice) 
   0.97245084  0.00032082  0.00056671
   0.03911838  0.13365950  0.00044017
   0.17244363  0.00029545  0.00049963
   0.23909628  0.13364792  0.00025647
   0.97245206  0.20032201  0.00048522
   0.03912836  0.33364377  0.00044415
   0.17245176  0.20035455  0.00021917
   0.23912436  0.33366572  0.00007226
   0.37246557  0.00032440  0.00045391
   0.43913747  0.13361994  0.00025834
   0.97244982  0.40030936  0.00054761
   0.03912498  0.53363679  0.00057341
   0.37241618  0.40032948  0.00000000
   0.43909960  0.53363898  0.00023241
   0.57244368  0.00031213  0.00055958
   0.63911021  0.13363175  0.00054727
   0.97245270  0.60030565  0.00064029
   0.03912449  0.73364036  0.00065451
   0.57243347  0.60030624  0.00040289
   0.63911189  0.73364188  0.00052791
   0.17245463  0.40031823  0.00028904
   0.23912018  0.53363655  0.00037851
   0.37245975  0.20029599  0.00008900
   0.43910710  0.33367342  0.00005576
   0.17245216  0.60031151  0.00052434
   0.23912337  0.73363857  0.00057513
   0.57243108  0.20028917  0.00041330
   0.63911277  0.33361863  0.00046238
   0.37243981  0.60030802  0.00036284
   0.43911609  0.73363786  0.00049419
   0.57246936  0.40032050  0.00033992
   0.63911941  0.53365087  0.00045961
   0.77244572  0.00031543  0.00059616
   0.83911628  0.13364020  0.00057531
   0.77244051  0.20030743  0.00058103
   0.83912024  0.33363573  0.00058547
   0.77244632  0.40029837  0.00058298
   0.83911898  0.53363396  0.00062110
   0.77245614  0.60030817  0.00059571
   0.83911503  0.73364318  0.00063151
   0.97245531  0.80030558  0.00065223
   0.03911471  0.93364329  0.00059805
   0.17245797  0.80031221  0.00062337
   0.23913455  0.93364719  0.00054485
   0.37245140  0.80031667  0.00055140
   0.43912449  0.93364477  0.00054143
   0.57244110  0.80031005  0.00053453
   0.63911507  0.93363899  0.00058764
   0.77244510  0.80031319  0.00060206
   0.83911661  0.93364434  0.00060683
   0.37302101  0.25122688  0.15874011
   0.42087980  0.18931315  0.16131698
   0.32515698  0.31316719  0.15636191
 
 position of ions in cartesian coordinates  (Angst):
  11.98347958  0.00342433  0.01416777
  -0.34154264  1.42664989  0.01100432
   2.12354700  0.00315355  0.01249070
   2.12325634  1.42652621  0.00641170
  10.75098721  2.13818970  0.01213047
  -1.57382270  3.56123457  0.01110375
   0.89078307  2.13853702  0.00547917
   0.89099273  3.56146885  0.00180651
   4.58863896  0.00346260  0.01134782
   4.58893648  1.42622757  0.00645846
   9.51853763  4.27280730  0.01369027
  -2.80632132  5.69591267  0.01433526
   2.12299894  4.27302204  0.00000000
   2.12335237  5.69593607  0.00581036
   7.05344483  0.00333155  0.01398950
   7.05352764  1.42635365  0.01368187
   8.28609598  6.40752033  0.01600723
  -4.03884931  7.83070339  0.01636283
   3.35585531  6.40752662  0.01007237
   3.35598594  7.83071962  0.01319763
  -0.34145776  4.27290193  0.00722612
  -0.34137895  5.69591010  0.00946273
   3.35624236  2.13791198  0.00222492
   3.35573251  3.56155103  0.00139405
  -1.57394684  6.40758280  0.01310850
  -1.57385216  7.83068434  0.01437823
   5.82093107  2.13783916  0.01033241
   5.82114012  3.56096622  0.01155939
   0.89092245  6.40754561  0.00907111
   0.89106251  7.83067670  0.01235474
   4.58870974  4.27292622  0.00849795
   4.58852320  5.69606300  0.01149026
   9.51844972  0.00336679  0.01490402
   9.51855036  1.42644387  0.01438264
   8.28593477  2.13803408  0.01452582
   8.28612680  3.56114872  0.01463668
   7.05356221  4.27268994  0.01457444
   7.05362213  5.69588251  0.01552751
   5.82112285  6.40754723  0.01489279
   5.82101669  7.83073350  0.01578780
   7.05362858  8.54227219  0.01630582
  -5.27148792  9.96548729  0.01495127
  -2.80637951  8.54234295  0.01558431
  -2.80626749  9.96552896  0.01362126
  -0.34148805  8.54239058  0.01378498
  -0.34137657  9.96550309  0.01353576
   2.12342586  8.54231992  0.01336337
   2.12354296  9.96544135  0.01469111
   4.58845581  8.54235337  0.01505154
   4.58852904  9.96549848  0.01517076
   3.04929830  2.68153618  3.96850263
   4.02070129  2.02068374  4.03292449
   2.07766701  3.34267235  3.90904776
 


--------------------------------------------------------------------------------------------------------


 k-point   1 :   0.0000 0.0000 0.0000  plane waves:  236157

 maximum and minimum number of plane-waves per node :    236157   236157

 maximum number of plane-waves:    236157
 maximum index in each direction: 
   IXMAX=   31   IYMAX=   31   IZMAX=   64
   IXMIN=  -31   IYMIN=  -31   IZMIN=  -64


 serial   3D FFT for wavefunctions
 parallel 3D FFT for charge:
    minimum data exchange during FFTs selected (reduces bandwidth)


 total amount of memory used by VASP MPI-rank0   698619. kBytes
=======================================================================

   base      :      30000. kBytes
   nonl-proj :     230539. kBytes
   fftplans  :      40716. kBytes
   grid      :     363125. kBytes
   one-center:        162. kBytes
   wavefun   :      34077. kBytes
 
     INWAV:  cpu time    0.0000: real time    0.0000
 Broyden mixing: mesh for mixing (old mesh)
   NGX = 63   NGY = 63   NGZ =129
  (NGX  =256   NGY  =256   NGZ  =540)
  gives a total of 512001 points

 initial charge density was supplied:
 charge density of overlapping atoms calculated
 number of electron     216.0000000 magnetization 
 keeping initial charge density in first step


--------------------------------------------------------------------------------------------------------


 Maximum index for augmentation-charges          471 (set IRDMAX)


--------------------------------------------------------------------------------------------------------


 First call to EWALD:  gamma=   0.119
 Maximum number of real-space cells 4x 4x 2
 Maximum number of reciprocal cells 2x 2x 4

    FEWALD:  cpu time    0.0023: real time    0.0023


--------------------------------------- Iteration      1(   1)  ---------------------------------------


    POTLOK:  cpu time    8.4433: real time    8.5204
    SETDIJ:  cpu time    0.0028: real time    0.0029
    TRIAL :  cpu time   31.5771: real time   31.8594
    CORREC:  cpu time    0.0004: real time    0.0006
    --------------------------------------------
      LOOP:  cpu time   40.0369: real time   40.4266

 eigenvalue-minimisations  :   336
 total energy-change (2. order) : 0.2539014E+04  (-0.1080203E+05)
 number of electron     216.0000000 magnetization 
 augmentation part      216.0000000 magnetization 

 Free energy of the ion-electron system (eV)
  ---------------------------------------------------
  alpha Z        PSCENC =        47.94900195
  Ewald energy   TEWEN  =     46249.24210674
  -Hartree energ DENC   =    -52318.32417697
  -exchange      EXHF   =         0.00000000
  -V(xc)+E(xc)   XCENC  =       604.33850675
  PAW double counting   =      6339.73130699    -6197.22120962
  entropy T*S    EENTRO =        -0.00000008
  eigenvalues    EBANDS =      -556.22520194
  atomic energy  EATOM  =      8369.52358910
  ---------------------------------------------------
  free energy    TOTEN  =      2539.01392294 eV

  energy without entropy =     2539.01392302  energy(sigma->0) =     2539.01392298


--------------------------------------------------------------------------------------------------------




--------------------------------------- Iteration      1(   2)  ---------------------------------------


    TRIAL :  cpu time   44.9188: real time   45.2537
    CORREC:  cpu time    0.0001: real time    0.0003
    --------------------------------------------
      LOOP:  cpu time   44.9765: real time   45.3129

 eigenvalue-minimisations  :   560
 total energy-change (2. order) :-0.2481278E+04  (-0.2324110E+04)
 number of electron     216.0000000 magnetization 
 augmentation part      216.0000000 magnetization 

 Free energy of the ion-electron system (eV)
  ---------------------------------------------------
  alpha Z        PSCENC =        47.94900195
  Ewald energy   TEWEN  =     46249.24210674
  -Hartree energ DENC   =    -52318.32417697
  -exchange      EXHF   =         0.00000000
  -V(xc)+E(xc)   XCENC  =       604.33850675
  PAW double counting   =      6339.73130699    -6197.22120962
  entropy T*S    EENTRO =        -0.00000000
  eigenvalues    EBANDS =     -3037.50306376
  atomic energy  EATOM  =      8369.52358910
  ---------------------------------------------------
  free energy    TOTEN  =        57.73606119 eV

  energy without entropy =       57.73606119  energy(sigma->0) =       57.73606119


--------------------------------------------------------------------------------------------------------




--------------------------------------- Iteration      1(   3)  ---------------------------------------


    TRIAL :  cpu time   34.8586: real time   35.1520
    CORREC:  cpu time    0.0001: real time    0.0001
    --------------------------------------------
      LOOP:  cpu time   34.8923: real time   35.1889

 eigenvalue-minimisations  :   392
 total energy-change (2. order) :-0.6382580E+03  (-0.6351534E+03)
 number of electron     216.0000000 magnetization 
 augmentation part      216.0000000 magnetization 

 Free energy of the ion-electron system (eV)
  ---------------------------------------------------
  alpha Z        PSCENC =        47.94900195
  Ewald energy   TEWEN  =     46249.24210674
  -Hartree energ DENC   =    -52318.32417697
  -exchange      EXHF   =         0.00000000
  -V(xc)+E(xc)   XCENC  =       604.33850675
  PAW double counting   =      6339.73130699    -6197.22120962
  entropy T*S    EENTRO =        -0.00000000
  eigenvalues    EBANDS =     -3675.76105150
  atomic energy  EATOM  =      8369.52358910
  ---------------------------------------------------
  free energy    TOTEN  =      -580.52192655 eV

  energy without entropy =     -580.52192655  energy(sigma->0) =     -580.52192655


--------------------------------------------------------------------------------------------------------




--------------------------------------- Iteration      1(   4)  ---------------------------------------


    TRIAL :  cpu time   38.2012: real time   38.5082
    CORREC:  cpu time    0.0001: real time    0.0001
    --------------------------------------------
      LOOP:  cpu time   38.2610: real time   38.5881

 eigenvalue-minimisations  :   448
 total energy-change (2. order) :-0.3366009E+02  (-0.3341399E+02)
 number of electron     216.0000000 magnetization 
 augmentation part      216.0000000 magnetization 

 Free energy of the ion-electron system (eV)
  ---------------------------------------------------
  alpha Z        PSCENC =        47.94900195
  Ewald energy   TEWEN  =     46249.24210674
  -Hartree energ DENC   =    -52318.32417697
  -exchange      EXHF   =         0.00000000
  -V(xc)+E(xc)   XCENC  =       604.33850675
  PAW double counting   =      6339.73130699    -6197.22120962
  entropy T*S    EENTRO =        -0.00000000
  eigenvalues    EBANDS =     -3709.42114331
  atomic energy  EATOM  =      8369.52358910
  ---------------------------------------------------
  free energy    TOTEN  =      -614.18201836 eV

  energy without entropy =     -614.18201836  energy(sigma->0) =     -614.18201836


--------------------------------------------------------------------------------------------------------




--------------------------------------- Iteration      1(   5)  ---------------------------------------


    TRIAL :  cpu time   34.8667: real time   35.1558
    CORREC:  cpu time    0.0001: real time    0.0001
    CHARGE:  cpu time    3.2632: real time    3.2885
    --------------------------------------------
      LOOP:  cpu time   38.1592: real time   38.4852

 eigenvalue-minimisations  :   392
 total energy-change (2. order) :-0.1146326E+01  (-0.1144355E+01)
 number of electron     216.0000000 magnetization 
 augmentation part       -0.4343476 magnetization 

 Free energy of the ion-electron system (eV)
  ---------------------------------------------------
  alpha Z        PSCENC =        47.94900195
  Ewald energy   TEWEN  =     46249.24210674
  -Hartree energ DENC   =    -52318.32417697
  -exchange      EXHF   =         0.00000000
  -V(xc)+E(xc)   XCENC  =       604.33850675
  PAW double counting   =      6339.73130699    -6197.22120962
  entropy T*S    EENTRO =        -0.00000000
  eigenvalues    EBANDS =     -3710.56746945
  atomic energy  EATOM  =      8369.52358910
  ---------------------------------------------------
  free energy    TOTEN  =      -615.32834450 eV

  energy without entropy =     -615.32834450  energy(sigma->0) =     -615.32834450


--------------------------------------------------------------------------------------------------------




--------------------------------------- Iteration      1(   6)  ---------------------------------------


    POTLOK:  cpu time    8.3815: real time    8.4371
    SETDIJ:  cpu time    0.0018: real time    0.0018
    TRIAL :  cpu time   22.3706: real time   22.5603
    CORREC:  cpu time   16.1437: real time   16.2570
    CHARGE:  cpu time    3.2412: real time    3.2647
    --------------------------------------------
      LOOP:  cpu time   50.2086: real time   50.5987

 eigenvalue-minimisations  :     0
 total energy-change (2. order) : 0.1038183E+03  (-0.1202370E+02)
 number of electron     216.0000000 magnetization 
 augmentation part       -0.4931859 magnetization 

 Free energy of the ion-electron system (eV)
  ---------------------------------------------------
  alpha Z        PSCENC =        47.94900195
  Ewald energy   TEWEN  =     46249.24210674
  -Hartree energ DENC   =    -53674.40415550
  -exchange      EXHF   =         0.00000000
  -V(xc)+E(xc)   XCENC  =       670.98484446
  PAW double counting   =    114052.34469587  -113915.54258466
  entropy T*S    EENTRO =        -0.00000000
  eigenvalues    EBANDS =     -2311.60756395
  atomic energy  EATOM  =      8369.52358910
  ---------------------------------------------------
  free energy    TOTEN  =      -511.51006597 eV

  energy without entropy =     -511.51006597  energy(sigma->0) =     -511.51006597


--------------------------------------------------------------------------------------------------------




--------------------------------------- Iteration      1(   7)  ---------------------------------------


    POTLOK:  cpu time    8.3601: real time    8.4154
    SETDIJ:  cpu time    0.0018: real time    0.0018
    TRIAL :  cpu time   22.3800: real time   22.5605
    CORREC:  cpu time   16.1494: real time   16.2595
    CHARGE:  cpu time    3.2504: real time    3.2785
    --------------------------------------------
      LOOP:  cpu time   50.1789: real time   50.5557

 eigenvalue-minimisations  :     0
 total energy-change (2. order) :-0.1203661E+02  (-0.1566730E+01)
 number of electron     216.0000000 magnetization 
 augmentation part       -0.5231619 magnetization 

 Free energy of the ion-electron system (eV)
  ---------------------------------------------------
  alpha Z        PSCENC =        47.94900195
  Ewald energy   TEWEN  =     46249.24210674
  -Hartree energ DENC   =    -53245.72904446
  -exchange      EXHF   =         0.00000000
  -V(xc)+E(xc)   XCENC  =       651.19889659
  PAW double counting   =    132155.33158741  -132015.79103352
  entropy T*S    EENTRO =        -0.00000000
  eigenvalues    EBANDS =     -2735.27178327
  atomic energy  EATOM  =      8369.52358910
  ---------------------------------------------------
  free energy    TOTEN  =      -523.54667946 eV

  energy without entropy =     -523.54667946  energy(sigma->0) =     -523.54667946


--------------------------------------------------------------------------------------------------------




--------------------------------------- Iteration      1(   8)  ---------------------------------------


    POTLOK:  cpu time    8.3743: real time    8.4266
    SETDIJ:  cpu time    0.0018: real time    0.0019
    TRIAL :  cpu time   22.3410: real time   22.5481
    CORREC:  cpu time   16.1449: real time   16.2520
    CHARGE:  cpu time    3.2490: real time    3.2715
    --------------------------------------------
      LOOP:  cpu time   50.1498: real time   50.5433

 eigenvalue-minimisations  :     0
 total energy-change (2. order) :-0.1567403E+01  (-0.5072871E+00)
 number of electron     216.0000000 magnetization 
 augmentation part       -0.5206326 magnetization 

 Free energy of the ion-electron system (eV)
  ---------------------------------------------------
  alpha Z        PSCENC =        47.94900195
  Ewald energy   TEWEN  =     46249.24210674
  -Hartree energ DENC   =    -53217.00143769
  -exchange      EXHF   =         0.00000000
  -V(xc)+E(xc)   XCENC  =       649.58596779
  PAW double counting   =    140284.11784918  -140144.09459767
  entropy T*S    EENTRO =        -0.00000000
  eigenvalues    EBANDS =     -2764.43656185
  atomic energy  EATOM  =      8369.52358910
  ---------------------------------------------------
  free energy    TOTEN  =      -525.11408244 eV

  energy without entropy =     -525.11408244  energy(sigma->0) =     -525.11408244


--------------------------------------------------------------------------------------------------------




--------------------------------------- Iteration      1(   9)  ---------------------------------------


    POTLOK:  cpu time    8.3912: real time    8.4428
    SETDIJ:  cpu time    0.0018: real time    0.0018
    TRIAL :  cpu time   22.3748: real time   22.5372
    CORREC:  cpu time   16.1548: real time   16.2634
    CHARGE:  cpu time    3.2456: real time    3.2687
    --------------------------------------------
      LOOP:  cpu time   50.1971: real time   50.5439

 eigenvalue-minimisations  :     0
 total energy-change (2. order) :-0.5070308E+00  (-0.1979517E+00)
 number of electron     216.0000000 magnetization 
 augmentation part       -0.5147806 magnetization 

 Free energy of the ion-electron system (eV)
  ---------------------------------------------------
  alpha Z        PSCENC =        47.94900195
  Ewald energy   TEWEN  =     46249.24210674
  -Hartree energ DENC   =    -53224.91696954
  -exchange      EXHF   =         0.00000000
  -V(xc)+E(xc)   XCENC  =       649.32942601
  PAW double counting   =    146438.20955283  -146297.98903589
  entropy T*S    EENTRO =        -0.00000000
  eigenvalues    EBANDS =     -2756.96878442
  atomic energy  EATOM  =      8369.52358910
  ---------------------------------------------------
  free energy    TOTEN  =      -525.62111321 eV

  energy without entropy =     -525.62111321  energy(sigma->0) =     -525.62111321


--------------------------------------------------------------------------------------------------------




--------------------------------------- Iteration      1(  10)  ---------------------------------------


    POTLOK:  cpu time    8.3839: real time    8.4351
    SETDIJ:  cpu time    0.0018: real time    0.0018
    TRIAL :  cpu time   22.3034: real time   22.5684
    CORREC:  cpu time   16.1460: real time   16.2757
    CHARGE:  cpu time    3.2487: real time    3.2782
    --------------------------------------------
      LOOP:  cpu time   50.1335: real time   50.6094

 eigenvalue-minimisations  :     0
 total energy-change (2. order) :-0.1977333E+00  (-0.8507851E-01)
 number of electron     216.0000000 magnetization 
 augmentation part       -0.5081411 magnetization 

 Free energy of the ion-electron system (eV)
  ---------------------------------------------------
  alpha Z        PSCENC =        47.94900195
  Ewald energy   TEWEN  =     46249.24210674
  -Hartree energ DENC   =    -53224.74305712
  -exchange      EXHF   =         0.00000000
  -V(xc)+E(xc)   XCENC  =       649.12166896
  PAW double counting   =    148788.15252634  -148647.83669747
  entropy T*S    EENTRO =        -0.00000000
  eigenvalues    EBANDS =     -2757.22798506
  atomic energy  EATOM  =      8369.52358910
  ---------------------------------------------------
  free energy    TOTEN  =      -525.81884656 eV

  energy without entropy =     -525.81884656  energy(sigma->0) =     -525.81884656


--------------------------------------------------------------------------------------------------------




--------------------------------------- Iteration      1(  11)  ---------------------------------------


    POTLOK:  cpu time    8.3833: real time    8.4522
    SETDIJ:  cpu time    0.0021: real time    0.0022
    TRIAL :  cpu time   22.3234: real time   22.5475
    CORREC:  cpu time   16.1832: real time   16.2961
    CHARGE:  cpu time    3.2426: real time    3.2664
    --------------------------------------------
      LOOP:  cpu time   50.1837: real time   50.6151

 eigenvalue-minimisations  :     0
 total energy-change (2. order) :-0.8484927E-01  (-0.3338558E-01)
 number of electron     216.0000000 magnetization 
 augmentation part       -0.5043653 magnetization 

 Free energy of the ion-electron system (eV)
  ---------------------------------------------------
  alpha Z        PSCENC =        47.94900195
  Ewald energy   TEWEN  =     46249.24210674
  -Hartree energ DENC   =    -53218.86761467
  -exchange      EXHF   =         0.00000000
  -V(xc)+E(xc)   XCENC  =       648.97380010
  PAW double counting   =    148636.88358323  -148496.56662726
  entropy T*S    EENTRO =        -0.00000000
  eigenvalues    EBANDS =     -2763.04153502
  atomic energy  EATOM  =      8369.52358910
  ---------------------------------------------------
  free energy    TOTEN  =      -525.90369583 eV

  energy without entropy =     -525.90369583  energy(sigma->0) =     -525.90369583


--------------------------------------------------------------------------------------------------------




--------------------------------------- Iteration      1(  12)  ---------------------------------------


    POTLOK:  cpu time    8.3862: real time    8.4407
    SETDIJ:  cpu time    0.0019: real time    0.0020
    TRIAL :  cpu time   22.3940: real time   22.5691
    CORREC:  cpu time   16.1627: real time   16.2815
    CHARGE:  cpu time    3.2396: real time    3.2636
    --------------------------------------------
      LOOP:  cpu time   50.2186: real time   50.6270

 eigenvalue-minimisations  :     0
 total energy-change (2. order) :-0.3330605E-01  (-0.1067594E-01)
 number of electron     216.0000000 magnetization 
 augmentation part       -0.5044149 magnetization 

 Free energy of the ion-electron system (eV)
  ---------------------------------------------------
  alpha Z        PSCENC =        47.94900195
  Ewald energy   TEWEN  =     46249.24210674
  -Hartree energ DENC   =    -53214.26280957
  -exchange      EXHF   =         0.00000000
  -V(xc)+E(xc)   XCENC  =       648.87570685
  PAW double counting   =    147891.03055150  -147750.74021536
  entropy T*S    EENTRO =        -0.00000000
  eigenvalues    EBANDS =     -2767.55493310
  atomic energy  EATOM  =      8369.52358910
  ---------------------------------------------------
  free energy    TOTEN  =      -525.93700188 eV

  energy without entropy =     -525.93700188  energy(sigma->0) =     -525.93700188


--------------------------------------------------------------------------------------------------------




--------------------------------------- Iteration      1(  13)  ---------------------------------------


    POTLOK:  cpu time    8.3760: real time    8.4395
    SETDIJ:  cpu time    0.0018: real time    0.0018
    TRIAL :  cpu time   22.3545: real time   22.5492
    CORREC:  cpu time   16.1431: real time   16.2625
    CHARGE:  cpu time    3.2386: real time    3.2643
    --------------------------------------------
      LOOP:  cpu time   50.1468: real time   50.5862

 eigenvalue-minimisations  :     0
 total energy-change (2. order) :-0.1066828E-01  (-0.2972188E-02)
 number of electron     216.0000000 magnetization 
 augmentation part       -0.5050670 magnetization 

 Free energy of the ion-electron system (eV)
  ---------------------------------------------------
  alpha Z        PSCENC =        47.94900195
  Ewald energy   TEWEN  =     46249.24210674
  -Hartree energ DENC   =    -53212.82657010
  -exchange      EXHF   =         0.00000000
  -V(xc)+E(xc)   XCENC  =       648.82638339
  PAW double counting   =    147342.61328574  -147202.33572217
  entropy T*S    EENTRO =        -0.00000000
  eigenvalues    EBANDS =     -2768.93974482
  atomic energy  EATOM  =      8369.52358910
  ---------------------------------------------------
  free energy    TOTEN  =      -525.94767016 eV

  energy without entropy =     -525.94767016  energy(sigma->0) =     -525.94767016


--------------------------------------------------------------------------------------------------------




--------------------------------------- Iteration      1(  14)  ---------------------------------------


    POTLOK:  cpu time    8.3879: real time    8.4572
    SETDIJ:  cpu time    0.0018: real time    0.0018
    TRIAL :  cpu time   22.3178: real time   22.5395
    CORREC:  cpu time   16.1486: real time   16.2625
    CHARGE:  cpu time    3.2451: real time    3.2680
    --------------------------------------------
      LOOP:  cpu time   50.1579: real time   50.5894

 eigenvalue-minimisations  :     0
 total energy-change (2. order) :-0.2977197E-02  (-0.7852671E-03)
 number of electron     216.0000000 magnetization 
 augmentation part       -0.5053486 magnetization 

 Free energy of the ion-electron system (eV)
  ---------------------------------------------------
  alpha Z        PSCENC =        47.94900195
  Ewald energy   TEWEN  =     46249.24210674
  -Hartree energ DENC   =    -53212.83126200
  -exchange      EXHF   =         0.00000000
  -V(xc)+E(xc)   XCENC  =       648.82320414
  PAW double counting   =    147095.25101458  -146954.97906119
  entropy T*S    EENTRO =        -0.00000000
  eigenvalues    EBANDS =     -2768.92924068
  atomic energy  EATOM  =      8369.52358910
  ---------------------------------------------------
  free energy    TOTEN  =      -525.95064736 eV

  energy without entropy =     -525.95064736  energy(sigma->0) =     -525.95064736


--------------------------------------------------------------------------------------------------------




--------------------------------------- Iteration      1(  15)  ---------------------------------------


    POTLOK:  cpu time    8.3996: real time    8.4523
    SETDIJ:  cpu time    0.0018: real time    0.0018
    TRIAL :  cpu time   22.4068: real time   22.5902
    CORREC:  cpu time   16.1384: real time   16.2783
    CHARGE:  cpu time    3.2453: real time    3.2686
    --------------------------------------------
      LOOP:  cpu time   50.2091: real time   50.6144

 eigenvalue-minimisations  :     0
 total energy-change (2. order) :-0.7904072E-03  (-0.2162379E-03)
 number of electron     216.0000000 magnetization 
 augmentation part       -0.5055009 magnetization 

 Free energy of the ion-electron system (eV)
  ---------------------------------------------------
  alpha Z        PSCENC =        47.94900195
  Ewald energy   TEWEN  =     46249.24210674
  -Hartree energ DENC   =    -53212.78082717
  -exchange      EXHF   =         0.00000000
  -V(xc)+E(xc)   XCENC  =       648.82605521
  PAW double counting   =    146994.31394255  -146854.04464683
  entropy T*S    EENTRO =        -0.00000000
  eigenvalues    EBANDS =     -2768.98065932
  atomic energy  EATOM  =      8369.52358910
  ---------------------------------------------------
  free energy    TOTEN  =      -525.95143776 eV

  energy without entropy =     -525.95143776  energy(sigma->0) =     -525.95143776


--------------------------------------------------------------------------------------------------------




--------------------------------------- Iteration      1(  16)  ---------------------------------------


    POTLOK:  cpu time    8.4095: real time    8.4620
    SETDIJ:  cpu time    0.0019: real time    0.0019
    TRIAL :  cpu time   22.3420: real time   22.5575
    CORREC:  cpu time   16.1820: real time   16.2938
    CHARGE:  cpu time    3.2480: real time    3.2723
    --------------------------------------------
      LOOP:  cpu time   50.2513: real time   50.7061

 eigenvalue-minimisations  :     0
 total energy-change (2. order) :-0.2198117E-03  (-0.8504209E-04)
 number of electron     216.0000000 magnetization 
 augmentation part       -0.5055557 magnetization 

 Free energy of the ion-electron system (eV)
  ---------------------------------------------------
  alpha Z        PSCENC =        47.94900195
  Ewald energy   TEWEN  =     46249.24210674
  -Hartree energ DENC   =    -53212.69433119
  -exchange      EXHF   =         0.00000000
  -V(xc)+E(xc)   XCENC  =       648.82480361
  PAW double counting   =    146936.60625206  -146796.33737803
  entropy T*S    EENTRO =        -0.00000000
  eigenvalues    EBANDS =     -2769.06570181
  atomic energy  EATOM  =      8369.52358910
  ---------------------------------------------------
  free energy    TOTEN  =      -525.95165758 eV

  energy without entropy =     -525.95165758  energy(sigma->0) =     -525.95165758


--------------------------------------------------------------------------------------------------------




--------------------------------------- Iteration      1(  17)  ---------------------------------------


    POTLOK:  cpu time    8.3808: real time    8.4338
    SETDIJ:  cpu time    0.0018: real time    0.0018
    TRIAL :  cpu time   22.4303: real time   22.5940
    CORREC:  cpu time   16.1802: real time   16.2898
    CHARGE:  cpu time    3.2418: real time    3.2658
    --------------------------------------------
      LOOP:  cpu time   50.2620: real time   50.6188

 eigenvalue-minimisations  :     0
 total energy-change (2. order) :-0.8247845E-04  (-0.3745693E-04)
 number of electron     216.0000000 magnetization 
 augmentation part       -0.5055861 magnetization 

 Free energy of the ion-electron system (eV)
  ---------------------------------------------------
  alpha Z        PSCENC =        47.94900195
  Ewald energy   TEWEN  =     46249.24210674
  -Hartree energ DENC   =    -53212.83090538
  -exchange      EXHF   =         0.00000000
  -V(xc)+E(xc)   XCENC  =       648.83259824
  PAW double counting   =    146890.38933509  -146750.12120736
  entropy T*S    EENTRO =        -0.00000000
  eigenvalues    EBANDS =     -2768.93625845
  atomic energy  EATOM  =      8369.52358910
  ---------------------------------------------------
  free energy    TOTEN  =      -525.95174005 eV

  energy without entropy =     -525.95174005  energy(sigma->0) =     -525.95174005


--------------------------------------------------------------------------------------------------------




--------------------------------------- Iteration      1(  18)  ---------------------------------------


    POTLOK:  cpu time    8.4029: real time    8.4583
    SETDIJ:  cpu time    0.0018: real time    0.0018
    TRIAL :  cpu time   22.4217: real time   22.5853
    CORREC:  cpu time   16.1281: real time   16.2748
    CHARGE:  cpu time    3.2420: real time    3.2653
    --------------------------------------------
      LOOP:  cpu time   50.2996: real time   50.6962

 eigenvalue-minimisations  :     0
 total energy-change (2. order) :-0.3568616E-04  (-0.1387088E-04)
 number of electron     216.0000000 magnetization 
 augmentation part       -0.5056276 magnetization 

 Free energy of the ion-electron system (eV)
  ---------------------------------------------------
  alpha Z        PSCENC =        47.94900195
  Ewald energy   TEWEN  =     46249.24210674
  -Hartree energ DENC   =    -53212.93224488
  -exchange      EXHF   =         0.00000000
  -V(xc)+E(xc)   XCENC  =       648.83741081
  PAW double counting   =    146870.74191453  -146730.47376174
  entropy T*S    EENTRO =        -0.00000000
  eigenvalues    EBANDS =     -2768.83979226
  atomic energy  EATOM  =      8369.52358910
  ---------------------------------------------------
  free energy    TOTEN  =      -525.95177574 eV

  energy without entropy =     -525.95177574  energy(sigma->0) =     -525.95177574


--------------------------------------------------------------------------------------------------------




--------------------------------------- Iteration      1(  19)  ---------------------------------------


    POTLOK:  cpu time    8.3872: real time    8.4395
    SETDIJ:  cpu time    0.0018: real time    0.0019
    TRIAL :  cpu time   22.3608: real time   22.5602
    CORREC:  cpu time   16.1533: real time   16.2593
    CHARGE:  cpu time    3.2471: real time    3.2737
    --------------------------------------------
      LOOP:  cpu time   50.1583: real time   50.5642

 eigenvalue-minimisations  :     0
 total energy-change (2. order) :-0.1415602E-04  (-0.1077470E-04)
 number of electron     216.0000000 magnetization 
 augmentation part       -0.5056437 magnetization 

 Free energy of the ion-electron system (eV)
  ---------------------------------------------------
  alpha Z        PSCENC =        47.94900195
  Ewald energy   TEWEN  =     46249.24210674
  -Hartree energ DENC   =    -53212.92824731
  -exchange      EXHF   =         0.00000000
  -V(xc)+E(xc)   XCENC  =       648.83636210
  PAW double counting   =    146876.84497439  -146736.57617588
  entropy T*S    EENTRO =        -0.00000000
  eigenvalues    EBANDS =     -2768.84340100
  atomic energy  EATOM  =      8369.52358910
  ---------------------------------------------------
  free energy    TOTEN  =      -525.95178990 eV

  energy without entropy =     -525.95178990  energy(sigma->0) =     -525.95178990


--------------------------------------------------------------------------------------------------------




--------------------------------------- Iteration      1(  20)  ---------------------------------------


    POTLOK:  cpu time    8.3890: real time    8.4398
    SETDIJ:  cpu time    0.0018: real time    0.0018
    TRIAL :  cpu time   22.3593: real time   22.5564
    CORREC:  cpu time   16.1601: real time   16.2669
    CHARGE:  cpu time    3.2489: real time    3.2740
    --------------------------------------------
      LOOP:  cpu time   50.2057: real time   50.5913

 eigenvalue-minimisations  :     0
 total energy-change (2. order) :-0.5923532E-05  (-0.4335649E-05)
 number of electron     216.0000000 magnetization 
 augmentation part       -0.5056393 magnetization 

 Free energy of the ion-electron system (eV)
  ---------------------------------------------------
  alpha Z        PSCENC =        47.94900195
  Ewald energy   TEWEN  =     46249.24210674
  -Hartree energ DENC   =    -53212.96104906
  -exchange      EXHF   =         0.00000000
  -V(xc)+E(xc)   XCENC  =       648.83695078
  PAW double counting   =    146897.66790741  -146757.39879026
  entropy T*S    EENTRO =        -0.00000000
  eigenvalues    EBANDS =     -2768.81151247
  atomic energy  EATOM  =      8369.52358910
  ---------------------------------------------------
  free energy    TOTEN  =      -525.95179582 eV

  energy without entropy =     -525.95179582  energy(sigma->0) =     -525.95179582


--------------------------------------------------------------------------------------------------------




--------------------------------------- Iteration      1(  21)  ---------------------------------------


    POTLOK:  cpu time    8.3621: real time    8.4353
    SETDIJ:  cpu time    0.0018: real time    0.0018
    TRIAL :  cpu time   22.3571: real time   22.5487
    CORREC:  cpu time   16.1289: real time   16.2560
    CHARGE:  cpu time    3.2573: real time    3.2826
    --------------------------------------------
      LOOP:  cpu time   50.1466: real time   50.5647

 eigenvalue-minimisations  :     0
 total energy-change (2. order) :-0.4160102E-05  (-0.7886811E-06)
 number of electron     216.0000000 magnetization 
 augmentation part       -0.5056253 magnetization 

 Free energy of the ion-electron system (eV)
  ---------------------------------------------------
  alpha Z        PSCENC =        47.94900195
  Ewald energy   TEWEN  =     46249.24210674
  -Hartree energ DENC   =    -53212.94738221
  -exchange      EXHF   =         0.00000000
  -V(xc)+E(xc)   XCENC  =       648.83613840
  PAW double counting   =    146896.96601505  -146756.69690044
  entropy T*S    EENTRO =        -0.00000000
  eigenvalues    EBANDS =     -2768.82436859
  atomic energy  EATOM  =      8369.52358910
  ---------------------------------------------------
  free energy    TOTEN  =      -525.95179998 eV

  energy without entropy =     -525.95179998  energy(sigma->0) =     -525.95179998


--------------------------------------------------------------------------------------------------------




--------------------------------------- Iteration      1(  22)  ---------------------------------------


    POTLOK:  cpu time    8.3779: real time    8.4317
    SETDIJ:  cpu time    0.0018: real time    0.0018
    TRIAL :  cpu time   22.3309: real time   22.5502
    CORREC:  cpu time   16.1573: real time   16.2734
    CHARGE:  cpu time    3.2416: real time    3.2652
    --------------------------------------------
      LOOP:  cpu time   50.1391: real time   50.5627

 eigenvalue-minimisations  :     0
 total energy-change (2. order) :-0.7766939E-06  (-0.1606585E-06)
 number of electron     216.0000000 magnetization 
 augmentation part       -0.5056201 magnetization 

 Free energy of the ion-electron system (eV)
  ---------------------------------------------------
  alpha Z        PSCENC =        47.94900195
  Ewald energy   TEWEN  =     46249.24210674
  -Hartree energ DENC   =    -53212.94602500
  -exchange      EXHF   =         0.00000000
  -V(xc)+E(xc)   XCENC  =       648.83617613
  PAW double counting   =    146896.69795344  -146756.42897370
  entropy T*S    EENTRO =        -0.00000000
  eigenvalues    EBANDS =     -2768.82562943
  atomic energy  EATOM  =      8369.52358910
  ---------------------------------------------------
  free energy    TOTEN  =      -525.95180076 eV

  energy without entropy =     -525.95180076  energy(sigma->0) =     -525.95180076


--------------------------------------------------------------------------------------------------------




--------------------------------------- Iteration      1(  23)  ---------------------------------------


    POTLOK:  cpu time    8.3764: real time    8.4304
    SETDIJ:  cpu time    0.0018: real time    0.0019
    TRIAL :  cpu time   22.3795: real time   22.5572
    CORREC:  cpu time   16.1807: real time   16.2896
    CHARGE:  cpu time    3.2836: real time    3.3084
    --------------------------------------------
      LOOP:  cpu time   50.2244: real time   50.6307

 eigenvalue-minimisations  :     0
 total energy-change (2. order) :-0.1017761E-06  (-0.5002743E-07)
 number of electron     216.0000000 magnetization 
 augmentation part       -0.5056195 magnetization 

 Free energy of the ion-electron system (eV)
  ---------------------------------------------------
  alpha Z        PSCENC =        47.94900195
  Ewald energy   TEWEN  =     46249.24210674
  -Hartree energ DENC   =    -53212.94270053
  -exchange      EXHF   =         0.00000000
  -V(xc)+E(xc)   XCENC  =       648.83605846
  PAW double counting   =    146897.05973794  -146756.79080055
  entropy T*S    EENTRO =        -0.00000000
  eigenvalues    EBANDS =     -2768.82879397
  atomic energy  EATOM  =      8369.52358910
  ---------------------------------------------------
  free energy    TOTEN  =      -525.95180086 eV

  energy without entropy =     -525.95180086  energy(sigma->0) =     -525.95180086


--------------------------------------------------------------------------------------------------------




--------------------------------------- Iteration      1(  24)  ---------------------------------------


    POTLOK:  cpu time    8.3820: real time    8.4371
    SETDIJ:  cpu time    0.0018: real time    0.0018
    TRIAL :  cpu time   22.3749: real time   22.5514
    CORREC:  cpu time   16.2714: real time   16.3934
    EDDIAG:  cpu time    4.6113: real time    4.6456
    CHARGE:  cpu time    3.2385: real time    3.2657
    --------------------------------------------
      LOOP:  cpu time   54.9319: real time   55.3491

 eigenvalue-minimisations  :     0
 total energy-change (2. order) : 0.4365575E-09  (-0.3506416E-07)
 number of electron     216.0000000 magnetization 
 augmentation part       -0.5056185 magnetization 

 Free energy of the ion-electron system (eV)
  ---------------------------------------------------
  alpha Z        PSCENC =        47.94900195
  Ewald energy   TEWEN  =     46249.24210674
  -Hartree energ DENC   =    -53212.94070834
  -exchange      EXHF   =         0.00000000
  -V(xc)+E(xc)   XCENC  =       648.83596680
  PAW double counting   =    146897.40912179  -146757.14018436
  entropy T*S    EENTRO =        -0.00000000
  eigenvalues    EBANDS =     -2768.83069455
  atomic energy  EATOM  =      8369.52358910
  ---------------------------------------------------
  free energy    TOTEN  =      -525.95180086 eV

  energy without entropy =     -525.95180086  energy(sigma->0) =     -525.95180086


--------------------------------------------------------------------------------------------------------


  average scaling for gradient   0.9793


 average (electrostatic) potential at core
  the test charge radii are     0.5770  0.5955
  (the norm of the test charge is              1.0000)
       1 -88.0749       2 -88.0711       3 -88.0787       4 -88.0839       5 -88.0663
       6 -88.0629       7 -88.0765       8 -88.0670       9 -88.0680      10 -88.0748
      11 -88.0628      12 -88.0662      13 -88.0734      14 -88.0638      15 -88.0614
      16 -88.0648      17 -88.0678      18 -88.0718      19 -88.0711      20 -88.0670
      21 -88.0629      22 -88.0591      23 -88.0847      24 -88.0821      25 -88.0643
      26 -88.0651      27 -88.0653      28 -88.0740      29 -88.0646      30 -88.0610
      31 -88.0761      32 -88.0723      33 -88.0682      34 -88.0662      35 -88.0616
      36 -88.0667      37 -88.0652      38 -88.0712      39 -88.0710      40 -88.0719
      41 -88.0731      42 -88.0754      43 -88.0692      44 -88.0739      45 -88.0641
      46 -88.0633      47 -88.0668      48 -88.0643      49 -88.0719      50 -88.0704
      51 -92.1360      52-124.2687      53-124.2708
 
 
 
 E-fermi :  -4.4150     XC(G=0):  -1.8679     alpha+bet : -1.6890

 Fermi energy:        -4.4150087657

 k-point     1 :       0.0000    0.0000    0.0000
  band No.  band energies     occupation 
      1     -29.1943      2.00000
      2     -28.1687      2.00000
      3     -23.5790      2.00000
      4     -22.5974      2.00000
      5     -22.5952      2.00000
      6     -22.5916      2.00000
      7     -22.5912      2.00000
      8     -22.5887      2.00000
      9     -22.5887      2.00000
     10     -20.6613      2.00000
     11     -20.6611      2.00000
     12     -20.6599      2.00000
     13     -20.6594      2.00000
     14     -20.6588      2.00000
     15     -20.6586      2.00000
     16     -19.7250      2.00000
     17     -19.7247      2.00000
     18     -19.7245      2.00000
     19     -19.7240      2.00000
     20     -19.7236      2.00000
     21     -19.7231      2.00000
     22     -17.5046      2.00000
     23     -17.5042      2.00000
     24     -17.5033      2.00000
     25     -17.5026      2.00000
     26     -17.5001      2.00000
     27     -17.4998      2.00000
     28     -16.3457      2.00000
     29     -16.3455      2.00000
     30     -16.3441      2.00000
     31     -16.3439      2.00000
     32     -16.3436      2.00000
     33     -16.3435      2.00000
     34     -14.9525      2.00000
     35     -14.9522      2.00000
     36     -14.9520      2.00000
     37     -14.9513      2.00000
     38     -14.9513      2.00000
     39     -14.9499      2.00000
     40     -13.1481      2.00000
     41     -12.4930      2.00000
     42     -12.4928      2.00000
     43     -12.4921      2.00000
     44     -12.4921      2.00000
     45     -12.4915      2.00000
     46     -12.4915      2.00000
     47     -12.2768      2.00000
     48     -12.2767      2.00000
     49     -12.2749      2.00000
     50     -12.2748      2.00000
     51     -12.2726      2.00000
     52     -12.2722      2.00000
     53     -11.8719      2.00000
     54     -11.6217      2.00000
     55     -11.6151      2.00000
     56     -10.9421      2.00000
     57     -10.8292      2.00000
     58     -10.8290      2.00000
     59     -10.8283      2.00000
     60     -10.8281      2.00000
     61     -10.8274      2.00000
     62     -10.8273      2.00000
     63      -9.7775      2.00000
     64      -9.7748      2.00000
     65      -9.7686      2.00000
     66      -9.7683      2.00000
     67      -9.7650      2.00000
     68      -9.7643      2.00000
     69      -9.5287      2.00000
     70      -9.5282      2.00000
     71      -9.5280      2.00000
     72      -9.5279      2.00000
     73      -9.5273      2.00000
     74      -9.5261      2.00000
     75      -9.5260      2.00000
     76      -9.5257      2.00000
     77      -9.5256      2.00000
     78      -9.5240      2.00000
     79      -9.5236      2.00000
     80      -9.5231      2.00000
     81      -8.0252      2.00000
     82      -8.0206      2.00000
     83      -7.8223      2.00000
     84      -7.8214      2.00000
     85      -7.8202      2.00000
     86      -7.8199      2.00000
     87      -7.8165      2.00000
     88      -7.8161      2.00000
     89      -7.5319      2.00000
     90      -7.5313      2.00000
     91      -7.5265      2.00000
     92      -7.5251      2.00000
     93      -7.5250      2.00000
     94      -7.5225      2.00000
     95      -6.5868      2.00000
     96      -6.5846      2.00000
     97      -6.5835      2.00000
     98      -6.5804      2.00000
     99      -6.5797      2.00000
    100      -6.5790      2.00000
    101      -6.3041      2.00000
    102      -6.3017      2.00000
    103      -4.4873      2.00000
    104      -4.4863      2.00000
    105      -4.4845      2.00000
    106      -4.4838      2.00000
    107      -4.4799      2.00000
    108      -4.4797      2.00000
    109      -1.5126      0.00000
    110      -1.5123      0.00000
    111      -1.5081      0.00000
    112      -1.5079      0.00000
    113      -1.5067      0.00000
    114      -1.5062      0.00000
    115       0.4509      0.00000
    116       0.4655      0.00000
    117       0.4674      0.00000
    118       0.4685      0.00000
    119       0.4716      0.00000
    120       0.4727      0.00000
    121       0.4756      0.00000
    122       1.0821      0.00000
    123       1.2360      0.00000
    124       1.2473      0.00000
    125       1.5236      0.00000
    126       1.6243      0.00000
    127       1.8512      0.00000
    128       1.9320      0.00000
    129       1.9398      0.00000
    130       1.9418      0.00000
    131       1.9678      0.00000
    132       2.0894      0.00000
    133       2.2619      0.00000
    134       2.3472      0.00000
    135       2.3480      0.00000
    136       2.3518      0.00000
    137       2.3529      0.00000
    138       2.3532      0.00000
    139       2.3534      0.00000
    140       2.4338      0.00000
    141       2.5940      0.00000
    142       2.6846      0.00000
    143       2.6960      0.00000
    144       2.6978      0.00000
    145       2.7230      0.00000
    146       2.8269      0.00000
    147       2.8285      0.00000
    148       2.8432      0.00000
    149       2.8512      0.00000
    150       2.8537      0.00000
    151       2.8555      0.00000
    152       3.5627      0.00000
    153       3.6825      0.00000
    154       3.8984      0.00000
    155       3.9502      0.00000
    156       4.1301      0.00000
    157       4.1631      0.00000
    158       4.3142      0.00000
    159       4.4303      0.00000
    160       4.4777      0.00000
    161       4.4948      0.00000
    162       4.6971      0.00000
    163       4.9370      0.00000
    164       4.9500      0.00000
    165       4.9517      0.00000
    166       4.9542      0.00000
    167       4.9548      0.00000
    168       4.9577      0.00000


--------------------------------------------------------------------------------------------------------


 soft charge-density along one line, spin component           1
         0         1         2         3         4         5         6         7         8         9
 total charge-density along one line
 
 pseudopotential strength for first ion, spin component:           1
 12.643  21.273  -0.000   0.000   0.000  -0.000   0.000   0.000
 21.273  35.793  -0.000   0.000   0.000  -0.000   0.000   0.000
 -0.000  -0.000  -3.239   0.000   0.000  -5.804   0.000   0.000
  0.000   0.000   0.000  -3.243   0.000   0.000  -5.810   0.000
  0.000   0.000   0.000   0.000  -3.239   0.000   0.000  -5.804
 -0.000  -0.000  -5.804   0.000   0.000 -10.375   0.000   0.000
  0.000   0.000   0.000  -5.810   0.000   0.000 -10.386   0.000
  0.000   0.000   0.000   0.000  -5.804   0.000   0.000 -10.376
 total augmentation occupancy for first ion, spin component:           1
  9.643  -3.599   0.000  -0.002  -0.000  -0.000   0.001   0.000
 -3.599   1.374  -0.000   0.001   0.000   0.000  -0.000  -0.000
  0.000  -0.000   8.196  -0.009   0.001  -2.895   0.003  -0.000
 -0.002   0.001  -0.009   3.782  -0.000   0.003  -1.106   0.000
 -0.000   0.000   0.001  -0.000   8.195  -0.000   0.000  -2.895
 -0.000   0.000  -2.895   0.003  -0.000   1.036  -0.001   0.000
  0.001  -0.000   0.003  -1.106   0.000  -0.001   0.329   0.000
  0.000  -0.000  -0.000   0.000  -2.895   0.000   0.000   1.035


------------------------ aborting loop because EDIFF is reached ----------------------------------------


    FORLOC:  cpu time    0.1400: real time    0.1411
    FORNL :  cpu time    4.1476: real time    4.1877
    FORCOR:  cpu time    8.2692: real time    8.3436
    OFIELD:  cpu time    0.0031: real time    0.0032

 VOLUME and BASIS-vectors are now :
 -----------------------------------------------------------------------------
  energy-cutoff  :     1000.00
  volume of cell :     3288.85
      direct lattice vectors                 reciprocal lattice vectors
    12.325000000  0.000000000  0.000000000     0.081135903  0.046843835  0.000000000
    -6.162500000 10.673763102  0.000000000     0.000000000  0.093687670  0.000000000
     0.000000000  0.000000000 25.000000000     0.000000000  0.000000000  0.040000000

  length of vectors
    12.325000000 12.325000000 25.000000000     0.093687670  0.093687670  0.040000000


 FORCES acting on ions:
    Electron-Ion                     Ewald-Force                    Non-Local-Force
 -----------------------------------------------------------------------------------------------
   0.758E+01 0.661E+01 0.256E+02   -.758E+01 -.661E+01 -.256E+02   0.377E-02 0.454E-02 0.113E-01
   0.118E+02 0.574E+01 0.312E+02   -.118E+02 -.575E+01 -.312E+02   0.106E-01 0.813E-02 -.683E-02
   0.543E+01 0.142E+02 0.363E+02   -.543E+01 -.142E+02 -.363E+02   0.842E-02 0.388E-01 0.181E-01
   0.785E+01 0.114E+02 0.508E+02   -.788E+01 -.114E+02 -.509E+02   0.396E-01 0.273E-01 0.386E-01
   0.816E+01 0.191E+01 0.258E+02   -.816E+01 -.192E+01 -.258E+02   -.690E-02 0.165E-02 -.369E-02
   0.847E+01 -.154E+01 0.262E+02   -.846E+01 0.154E+01 -.262E+02   -.153E-01 0.108E-01 -.159E-01
   0.142E+02 0.539E+01 0.457E+02   -.142E+02 -.538E+01 -.457E+02   0.377E-01 -.161E-01 0.557E-02
   0.137E+02 -.483E+01 0.476E+02   -.138E+02 0.484E+01 -.476E+02   0.124E-01 -.283E-02 -.220E-01
   -.625E+01 0.129E+02 0.367E+02   0.626E+01 -.129E+02 -.367E+02   0.342E-02 0.253E-02 -.178E-01
   -.104E+02 0.876E+01 0.492E+02   0.104E+02 -.880E+01 -.491E+02   -.414E-01 0.431E-01 0.521E-02
   0.206E+01 -.190E+01 0.219E+02   -.205E+01 0.190E+01 -.219E+02   -.285E-02 -.142E-02 -.706E-02
   0.169E+01 -.139E+01 0.207E+02   -.169E+01 0.139E+01 -.207E+02   -.541E-02 -.385E-02 0.118E-02
   0.547E+01 -.122E+02 0.525E+02   -.551E+01 0.122E+02 -.525E+02   0.609E-01 -.156E-01 0.373E-02
   0.279E+01 -.142E+02 0.372E+02   -.281E+01 0.142E+02 -.371E+02   0.157E-01 -.280E-02 -.264E-01
   -.729E+01 0.455E+01 0.251E+02   0.729E+01 -.455E+01 -.251E+02   0.921E-02 -.206E-02 -.553E-02
   -.104E+02 0.302E+01 0.281E+02   0.104E+02 -.302E+01 -.281E+02   -.703E-02 0.129E-01 -.255E-01
   -.118E+01 -.464E+00 0.200E+02   0.119E+01 0.472E+00 -.200E+02   -.335E-04 -.149E-01 0.146E-02
   0.600E+00 0.425E+01 0.210E+02   -.601E+00 -.424E+01 -.210E+02   0.191E-02 -.821E-02 0.111E-01
   -.208E+01 -.125E+02 0.303E+02   0.208E+01 0.125E+02 -.303E+02   0.890E-02 -.170E-01 -.159E-02
   -.973E+00 -.648E+01 0.228E+02   0.975E+00 0.649E+01 -.228E+02   -.977E-02 -.142E-01 -.102E-02
   0.119E+02 -.524E+01 0.331E+02   -.119E+02 0.524E+01 -.330E+02   0.131E-04 0.237E-02 -.424E-01
   0.748E+01 -.636E+01 0.276E+02   -.748E+01 0.636E+01 -.276E+02   -.631E-02 0.101E-01 -.153E-01
   -.268E+01 0.543E+01 0.602E+02   0.269E+01 -.546E+01 -.602E+02   -.156E-01 0.411E-01 0.768E-01
   -.402E+01 -.858E+01 0.582E+02   0.401E+01 0.860E+01 -.582E+02   0.276E-01 -.260E-01 0.577E-01
   0.367E+01 -.155E+01 0.220E+02   -.366E+01 0.155E+01 -.220E+02   0.382E-02 -.781E-02 -.132E-01
   0.725E+00 0.327E+01 0.222E+02   -.730E+00 -.326E+01 -.222E+02   0.374E-02 -.167E-02 0.137E-02
   -.146E+02 0.189E+01 0.394E+02   0.146E+02 -.190E+01 -.394E+02   0.287E-02 0.228E-01 -.122E-01
   -.138E+02 -.566E+01 0.368E+02   0.138E+02 0.564E+01 -.368E+02   -.274E-01 0.176E-01 0.166E-02
   0.451E+01 -.913E+01 0.286E+02   -.452E+01 0.913E+01 -.286E+02   0.120E-01 0.181E-02 -.263E-01
   0.414E+00 -.358E+01 0.232E+02   -.420E+00 0.358E+01 -.232E+02   -.177E-02 0.169E-02 -.778E-02
   -.107E+02 -.113E+02 0.433E+02   0.107E+02 0.114E+02 -.433E+02   -.299E-01 -.211E-01 0.180E-01
   -.660E+01 -.121E+02 0.318E+02   0.661E+01 0.121E+02 -.319E+02   -.743E-02 -.280E-01 0.103E-01
   0.467E+00 0.182E+01 0.206E+02   -.460E+00 -.182E+01 -.206E+02   -.673E-02 -.233E-02 0.545E-02
   0.124E+01 0.182E+01 0.218E+02   -.124E+01 -.182E+01 -.218E+02   -.121E-01 0.909E-02 -.742E-02
   -.512E+01 0.701E+00 0.234E+02   0.512E+01 -.708E+00 -.234E+02   -.201E-02 0.451E-02 0.918E-03
   -.446E+01 -.182E+01 0.229E+02   0.446E+01 0.181E+01 -.229E+02   -.106E-01 0.551E-02 -.594E-02
   -.889E+01 -.461E+01 0.260E+02   0.891E+01 0.462E+01 -.260E+02   -.124E-01 -.689E-02 0.333E-02
   -.535E+01 -.430E+01 0.226E+02   0.535E+01 0.431E+01 -.226E+02   -.937E-02 -.124E-01 0.968E-02
   -.496E+01 -.644E+01 0.239E+02   0.497E+01 0.645E+01 -.239E+02   -.141E-01 -.217E-01 0.879E-02
   -.735E+00 -.157E+01 0.211E+02   0.741E+00 0.158E+01 -.211E+02   -.536E-02 -.141E-01 0.107E-01
   0.186E+01 0.454E+01 0.218E+02   -.186E+01 -.454E+01 -.218E+02   -.395E-02 -.267E-02 0.105E-01
   0.600E+01 0.940E+01 0.268E+02   -.601E+01 -.941E+01 -.268E+02   0.776E-02 0.794E-02 0.152E-01
   0.487E+00 0.790E+01 0.236E+02   -.487E+00 -.790E+01 -.236E+02   0.811E-02 0.473E-03 0.450E-03
   -.611E-01 0.137E+02 0.322E+02   0.684E-01 -.137E+02 -.322E+02   -.565E-02 0.117E-01 0.678E-02
   -.150E+01 0.293E+01 0.231E+02   0.150E+01 -.293E+01 -.231E+02   0.114E-01 -.550E-02 -.929E-02
   -.609E+01 0.763E+01 0.273E+02   0.609E+01 -.763E+01 -.272E+02   -.126E-02 0.831E-03 -.179E-01
   -.114E+01 -.314E+01 0.217E+02   0.114E+01 0.314E+01 -.217E+02   0.146E-02 -.468E-02 -.692E-03
   -.288E+01 0.115E+01 0.210E+02   0.288E+01 -.114E+01 -.210E+02   -.935E-02 0.103E-03 -.102E-01
   0.265E+00 -.195E+01 0.208E+02   -.259E+00 0.196E+01 -.208E+02   -.653E-02 -.119E-01 0.818E-02
   0.310E+01 0.225E+01 0.210E+02   -.310E+01 -.225E+01 -.210E+02   -.954E-02 0.142E-02 0.491E-02
   0.704E-01 -.527E-01 -.375E+03   -.617E-01 0.426E-01 0.375E+03   -.193E-01 0.190E-01 -.314E-01
   -.228E+03 0.155E+03 -.575E+03   0.279E+03 -.190E+03 0.578E+03   -.527E+02 0.358E+02 -.354E+01
   0.228E+03 -.155E+03 -.553E+03   -.279E+03 0.190E+03 0.550E+03   0.527E+02 -.358E+02 0.317E+01
 -----------------------------------------------------------------------------------------------
   -.358E-02 -.620E-02 0.359E+00   0.114E-12 -.114E-12 0.000E+00   0.740E-02 0.476E-01 -.355E+00
 
 
 POSITION                                       TOTAL-FORCE (eV/Angst)
 -----------------------------------------------------------------------------------
     11.98348      0.00342      0.01417        -0.007260      0.007272     -0.000424
     -0.34154      1.42665      0.01100        -0.015763      0.017939     -0.000722
      2.12355      0.00315      0.01249         0.010969      0.009710     -0.002478
      2.12326      1.42653      0.00641         0.019121      0.016644      0.005336
     10.75099      2.13819      0.01213        -0.007538      0.017340      0.001078
     -1.57382      3.56123      0.01110        -0.023670      0.014470     -0.001827
      0.89078      2.13854      0.00548         0.003625      0.018891      0.008930
      0.89099      3.56147      0.00181        -0.012085      0.014382      0.017841
      4.58864      0.00346      0.01135         0.027182     -0.017630     -0.000236
      4.58894      1.42623      0.00646         0.014887      0.021708      0.020223
      9.51854      4.27281      0.01369         0.016750     -0.000655     -0.000702
     -2.80632      5.69591      0.01434        -0.006379     -0.017367      0.000225
      2.12300      4.27302      0.00000         0.010697      0.020684      0.028689
      2.12335      5.69594      0.00581         0.002292      0.004316      0.002067
      7.05344      0.00333      0.01399         0.006251     -0.014303     -0.000847
      7.05353      1.42635      0.01368        -0.003939      0.012960     -0.005258
      8.28610      6.40752      0.01601         0.018000     -0.021317     -0.000213
     -4.03885      7.83070      0.01636         0.007513     -0.018352      0.000482
      3.35586      6.40753      0.01007        -0.018097     -0.012223     -0.002415
      3.35599      7.83072      0.01320        -0.018399     -0.007792      0.000841
     -0.34146      4.27290      0.00723         0.001904      0.019376     -0.003255
     -0.34138      5.69591      0.00946        -0.011445      0.000996      0.001340
      3.35624      2.13791      0.00222         0.002129      0.026676      0.035355
      3.35573      3.56155      0.00139         0.026823      0.000641      0.026026
     -1.57395      6.40758      0.01311         0.027167     -0.015476     -0.002057
     -1.57385      7.83068      0.01438         0.009588     -0.002882      0.000998
      5.82093      2.13784      0.01033         0.019798      0.004318      0.001628
      5.82114      3.56097      0.01156         0.004350     -0.002865     -0.004282
      0.89092      6.40755      0.00907         0.003322     -0.001610     -0.003245
      0.89106      7.83068      0.01235        -0.008389      0.006527      0.001678
      4.58871      4.27293      0.00850        -0.015377      0.000151     -0.004386
      4.58852      5.69606      0.01149         0.000359     -0.020096     -0.003535
      9.51845      0.00337      0.01490        -0.017395     -0.006485      0.000718
      9.51855      1.42644      0.01438        -0.030377      0.021260     -0.000698
      8.28593      2.13803      0.01453         0.000086     -0.001295      0.001839
      8.28613      3.56115      0.01464        -0.013109     -0.004736     -0.002079
      7.05356      4.27269      0.01457         0.004686     -0.008117      0.001111
      7.05362      5.69588      0.01553        -0.002234     -0.029892     -0.000704
      5.82112      6.40755      0.01489        -0.014589     -0.018010      0.000523
      5.82102      7.83073      0.01579        -0.005697     -0.019637      0.000573
      7.05363      8.54227      0.01631        -0.003079     -0.012184      0.001924
     -5.27149      9.96549      0.01495        -0.000295     -0.002140     -0.001504
     -2.80638      8.54234      0.01558         0.028193     -0.015724      0.000056
     -2.80627      9.96553      0.01362         0.019962      0.004104     -0.002323
     -0.34149      8.54239      0.01378         0.022839     -0.015444     -0.001256
     -0.34138      9.96550      0.01354         0.010751      0.011469     -0.001514
      2.12343      8.54232      0.01336        -0.013332     -0.014418     -0.000447
      2.12354      9.96544      0.01469        -0.025592      0.014007     -0.002608
      4.58846      8.54235      0.01505        -0.020162     -0.016923      0.002073
      4.58853      9.96550      0.01517        -0.025460      0.006515      0.001453
      3.04930      2.68154      3.96850        -0.027736      0.017730     -0.021069
      4.02070      2.02068      4.03292        -1.616960      1.090329     -0.146692
      2.07767      3.34267      3.90905         1.645115     -1.082845      0.053768
 -----------------------------------------------------------------------------------
    total drift:                                0.003815      0.041388      0.003610


--------------------------------------------------------------------------------------------------------



  FREE ENERGIE OF THE ION-ELECTRON SYSTEM (eV)
  ---------------------------------------------------
  free  energy   TOTEN  =      -525.95180086 eV

  energy  without entropy=     -525.95180086  energy(sigma->0) =     -525.95180086
 


--------------------------------------------------------------------------------------------------------


    POTLOK:  cpu time    8.3976: real time    8.4503


--------------------------------------------------------------------------------------------------------


 writing wavefunctions
     LOOP+:  cpu time 1205.6735: real time 1215.7864
    4ORBIT:  cpu time    0.0000: real time    0.0000

 total amount of memory used by VASP MPI-rank0   698619. kBytes
=======================================================================

   base      :      30000. kBytes
   nonl-proj :     230539. kBytes
   fftplans  :      40716. kBytes
   grid      :     363125. kBytes
   one-center:        162. kBytes
   wavefun   :      34077. kBytes
 
  
  
 General timing and accounting informations for this job:
 ========================================================
  
                  Total CPU time used (sec):     1249.807
                            User time (sec):     1209.238
                          System time (sec):       40.569
                         Elapsed time (sec):     1261.239
  
                   Maximum memory used (kb):     1472760.
                   Average memory used (kb):          N/A
  
                          Minor page faults:       370617
                          Major page faults:           80
                 Voluntary context switches:         3740
