 vasp.6.2.1 16May21 (build Nov 06 2021 14:46:37) complex                        
  
 executed on             LinuxIFC date 2025.03.03  19:07:57
 running on  112 total cores
 distrk:  each k-point on   56 cores,    2 groups
 distr:  one band on NCORE=   1 cores,   56 groups


--------------------------------------------------------------------------------------------------------


 INCAR:
   ALGO = Conjugate
   KPAR = 2
   NCORE = 32
   ISMEAR = 0
   SIGMA = 0.01
   PREC = Accurate
   EDIFF = 1E-7
   ENCUT = 1000
   ISIF = 0
   METAGGA = SCAN
   LUSE_VDW = .TRUE.
   BPARAM = 15.7
   LASPH = .TRUE.
   SYMPREC = 1E-7
   NELM = 200

 POTCAR:    PAW_PBE C_h 06Feb2004                 
 POTCAR:    PAW_PBE O_h 06Feb2004                 
 -----------------------------------------------------------------------------
|                                                                             |
|           W    W    AA    RRRRR   N    N  II  N    N   GGGG   !!!           |
|           W    W   A  A   R    R  NN   N  II  NN   N  G    G  !!!           |
|           W    W  A    A  R    R  N N  N  II  N N  N  G       !!!           |
|           W WW W  AAAAAA  RRRRR   N  N N  II  N  N N  G  GGG   !            |
|           WW  WW  A    A  R   R   N   NN  II  N   NN  G    G                |
|           W    W  A    A  R    R  N    N  II  N    N   GGGG   !!!           |
|                                                                             |
|     The value NCORE = 32 specified in the INCAR file was overwritten,       |
|     because it was not compatible with the 56 processes available:          |
|     NCORE = 1                                                               |
|     was used instead, please check that this makes sense for your           |
|     machine.                                                                |
|                                                                             |
 -----------------------------------------------------------------------------

 -----------------------------------------------------------------------------
|                                                                             |
|           W    W    AA    RRRRR   N    N  II  N    N   GGGG   !!!           |
|           W    W   A  A   R    R  NN   N  II  NN   N  G    G  !!!           |
|           W    W  A    A  R    R  N N  N  II  N N  N  G       !!!           |
|           W WW W  AAAAAA  RRRRR   N  N N  II  N  N N  G  GGG   !            |
|           WW  WW  A    A  R   R   N   NN  II  N   NN  G    G                |
|           W    W  A    A  R    R  N    N  II  N    N   GGGG   !!!           |
|                                                                             |
|     For optimal performance we recommend to set                             |
|       NCORE = 2 up to number-of-cores-per-socket                            |
|     NCORE specifies how many cores store one orbital (NPAR=cpu/NCORE).      |
|     This setting can greatly improve the performance of VASP for DFT.       |
|     The default, NCORE=1 might be grossly inefficient on modern             |
|     multi-core architectures or massively parallel machines. Do your        |
|     own testing! More info at https://www.vasp.at/wiki/index.php/NCORE      |
|     Unfortunately you need to use the default for GW and RPA                |
|     calculations (for HF NCORE is supported but not extensively tested      |
|     yet).                                                                   |
|                                                                             |
 -----------------------------------------------------------------------------

 -----------------------------------------------------------------------------
|                                                                             |
|               ----> ADVICE to this user running VASP <----                  |
|                                                                             |
|     You have switched on vdW-DFT.                                           |
|     This routine was written and supplied by Jiri Klimes. We recommend      |
|     that you carefully read and cite the following publications:            |
|       J. Klimes, D.R. Bowler, A. Michelides                                 |
|          J. Phys.: Cond Matt. 22 022201 (2010)                              |
|       J. Klimes, D.R. Bowler, A. Michelides                                 |
|          Phys. Rev. B. 83, 195131 (2011)                                    |
|     and references therein.                                                 |
|                                                                             |
 -----------------------------------------------------------------------------

 POTCAR:    PAW_PBE C_h 06Feb2004                 
   VRHFIN =C: s2p2                                                                                  
   LEXCH  = PE                                                                                      
   EATOM  =   147.1560 eV,   10.8157 Ry                                                             
                                                                                                    
   TITEL  = PAW_PBE C_h 06Feb2004                                                                   
   LULTRA =        F    use ultrasoft PP ?                                                          
   IUNSCR =        1    unscreen: 0-lin 1-nonlin 2-no                                               
   RPACOR =    0.800    partial core radius                                                         
   POMASS =   12.011; ZVAL   =    4.000    mass and valenz                                          
   RCORE  =    1.100    outmost cutoff radius                                                       
   RWIGS  =    1.630; RWIGS  =    0.863    wigner-seitz radius (au A)                               
   ENMAX  =  700.000; ENMIN  =  500.000 eV                                                          
   ICORE  =        2    local potential                                                             
   LCOR   =        T    correct aug charges                                                         
   LPAW   =        T    paw PP                                                                      
   EAUG   =  946.768                                                                                
   DEXC   =    0.000                                                                                
   RMAX   =    1.128    core radius for proj-oper                                                   
   RAUG   =    1.300    factor for augmentation sphere                                              
   RDEP   =    1.162    radius for radial grids                                                     
   RDEPT  =    1.088    core radius for aug-charge                                                  
                                                                                                    
   Atomic configuration                                                                             
    4 entries                                                                                       
     n  l   j            E        occ.                                                              
     1  0  0.50      -273.3789   2.0000                                                             
     2  0  0.50       -13.7508   2.0000                                                             
     2  1  0.50        -5.2854   2.0000                                                             
     3  2  1.50        -5.4423   0.0000                                                             
   Description                                                                                      
     l       E           TYP  RCUT    TYP  RCUT                                                     
     0    -13.7508458     23  1.100                                                                 
     0     -8.2022199     23  1.100                                                                 
     1     -5.2854383     23  1.100                                                                 
     1      1.1560700     23  1.100                                                                 
     2     -5.4423304      7  1.100                                                                 
  local pseudopotential read in
  partial core-charges read in
  partial kinetic energy density read in
  atomic valenz-charges read in
  non local Contribution for L=           0  read in
    real space projection operators read in
  non local Contribution for L=           0  read in
    real space projection operators read in
  non local Contribution for L=           1  read in
    real space projection operators read in
  non local Contribution for L=           1  read in
    real space projection operators read in
    PAW grid and wavefunctions read in
 
   number of l-projection  operators is LMAX  =           4
   number of lm-projection operators is LMMAX =           8
 
 POTCAR:    PAW_PBE O_h 06Feb2004                 
   VRHFIN =O: s2p4                                                                                  
   LEXCH  = PE                                                                                      
   EATOM  =   432.3788 eV,   31.7789 Ry                                                             
                                                                                                    
   TITEL  = PAW_PBE O_h 06Feb2004                                                                   
   LULTRA =        F    use ultrasoft PP ?                                                          
   IUNSCR =        1    unscreen: 0-lin 1-nonlin 2-no                                               
   RPACOR =    0.800    partial core radius                                                         
   POMASS =   16.000; ZVAL   =    6.000    mass and valenz                                          
   RCORE  =    1.100    outmost cutoff radius                                                       
   RWIGS  =    1.400; RWIGS  =    0.741    wigner-seitz radius (au A)                               
   ENMAX  =  700.000; ENMIN  =  500.000 eV                                                          
   ICORE  =        2    local potential                                                             
   LCOR   =        T    correct aug charges                                                         
   LPAW   =        T    paw PP                                                                      
   EAUG   =  888.804                                                                                
   DEXC   =    0.000                                                                                
   RMAX   =    1.128    core radius for proj-oper                                                   
   RAUG   =    1.300    factor for augmentation sphere                                              
   RDEP   =    1.125    radius for radial grids                                                     
   RDEPT  =    1.088    core radius for aug-charge                                                  
                                                                                                    
   Atomic configuration                                                                             
    4 entries                                                                                       
     n  l   j            E        occ.                                                              
     1  0  0.50      -514.6923   2.0000                                                             
     2  0  0.50       -23.9615   2.0000                                                             
     2  1  0.50        -9.0305   4.0000                                                             
     3  2  1.50        -9.5241   0.0000                                                             
   Description                                                                                      
     l       E           TYP  RCUT    TYP  RCUT                                                     
     0    -23.9615319     23  1.100                                                                 
     0    -25.3221145     23  1.100                                                                 
     1     -9.0304911     23  1.100                                                                 
     1     -5.4802209     23  1.100                                                                 
     2     -9.5240782      7  1.100                                                                 
  local pseudopotential read in
  partial core-charges read in
  partial kinetic energy density read in
  atomic valenz-charges read in
  non local Contribution for L=           0  read in
    real space projection operators read in
  non local Contribution for L=           0  read in
    real space projection operators read in
  non local Contribution for L=           1  read in
    real space projection operators read in
  non local Contribution for L=           1  read in
    real space projection operators read in
    PAW grid and wavefunctions read in
 
   number of l-projection  operators is LMAX  =           4
   number of lm-projection operators is LMMAX =           8
 
 -----------------------------------------------------------------------------
|                                                                             |
|               ----> ADVICE to this user running VASP <----                  |
|                                                                             |
|     You have a (more or less) 'large supercell' and for larger cells it     |
|     might be more efficient to use real-space projection operators.         |
|     Therefore, try LREAL= Auto in the INCAR file.                           |
|     Mind: For very accurate calculation, you might also keep the            |
|     reciprocal projection scheme (i.e. LREAL=.FALSE.).                      |
|                                                                             |
 -----------------------------------------------------------------------------

  PAW_PBE C_h 06Feb2004                 :
 energy of atom  1       EATOM= -147.1560
 kinetic energy error for atom=    0.0031 (will be added to EATOM!!)
  PAW_PBE O_h 06Feb2004                 :
 energy of atom  2       EATOM= -432.3788
 kinetic energy error for atom=    0.0171 (will be added to EATOM!!)
 
 
 POSCAR:  C  O
  positions in cartesian coordinates
  No initial velocities read in

 METAGGA = SCAN     LMAXTAU =  6    LMIXTAU =  F

 exchange correlation table for  LEXCH =        8
   RHO(1)=    0.500       N(1)  =     2000
   RHO(2)=  100.500       N(2)  =     4000
 


--------------------------------------------------------------------------------------------------------


 ion  position               nearest neighbor table
   1  0.972  0.000  0.001-  50 1.42   2 1.42  42 1.42
   2  0.039  0.134  0.001-   5 1.42   7 1.42   1 1.42
   3  0.172  0.000  0.001-  42 1.42  44 1.42   4 1.42
   4  0.239  0.134  0.000-   7 1.42   3 1.42  23 1.42
   5  0.972  0.200  0.001-   6 1.42   2 1.42  34 1.42
   6  0.039  0.334  0.001-   5 1.42  21 1.42  11 1.42
   7  0.172  0.200  0.000-   8 1.42   2 1.42   4 1.42
   8  0.239  0.334  0.000-  13 1.42   7 1.42  21 1.42
   9  0.372  0.000  0.001-  10 1.42  44 1.42  46 1.42
  10  0.439  0.134  0.000-  27 1.42   9 1.42  23 1.42
  11  0.972  0.400  0.001-  12 1.42  36 1.42   6 1.42
  12  0.039  0.534  0.001-  25 1.42  11 1.42  17 1.42
  13  0.372  0.400  0.000-   8 1.42  14 1.42  24 1.42
  14  0.439  0.534  0.000-  13 1.42  29 1.42  19 1.42
  15  0.572  0.000  0.001-  46 1.42  16 1.42  48 1.42
  16  0.639  0.134  0.001-  15 1.42  35 1.42  27 1.42
  17  0.972  0.600  0.001-  38 1.42  18 1.42  12 1.42
  18  0.039  0.734  0.001-  43 1.42  41 1.42  17 1.42
  19  0.572  0.600  0.001-  14 1.42  20 1.42  32 1.42
  20  0.639  0.734  0.001-  49 1.42  19 1.42  47 1.42
  21  0.172  0.400  0.000-  22 1.42   8 1.42   6 1.42
  22  0.239  0.534  0.000-  21 1.42  29 1.42  25 1.42
  23  0.372  0.200  0.000-  10 1.42   4 1.42  24 1.42
  24  0.439  0.334  0.000-  13 1.42  31 1.42  23 1.42
  25  0.172  0.600  0.001-  26 1.42  12 1.42  22 1.42
  26  0.239  0.734  0.001-  25 1.42  45 1.42  43 1.42
  27  0.572  0.200  0.001-  10 1.42  28 1.42  16 1.42
  28  0.639  0.334  0.001-  27 1.42  37 1.42  31 1.42
  29  0.372  0.600  0.000-  22 1.42  14 1.42  30 1.42
  30  0.439  0.734  0.001-  47 1.42  29 1.42  45 1.42
  31  0.572  0.400  0.000-  32 1.42  28 1.42  24 1.42
  32  0.639  0.534  0.001-  31 1.42  39 1.42  19 1.42
  33  0.772  0.000  0.001-  34 1.42  48 1.42  50 1.42
  34  0.839  0.134  0.001-  33 1.42   5 1.42  35 1.42
  35  0.772  0.200  0.001-  36 1.42  16 1.42  34 1.42
  36  0.839  0.334  0.001-  35 1.42  11 1.42  37 1.42
  37  0.772  0.400  0.001-  28 1.42  38 1.42  36 1.42
  38  0.839  0.534  0.001-  17 1.42  37 1.42  39 1.42
  39  0.772  0.600  0.001-  40 1.42  38 1.42  32 1.42
  40  0.839  0.734  0.001-  39 1.42  49 1.42  41 1.42
  41  0.972  0.800  0.001-  18 1.42  42 1.42  40 1.42
  42  0.039  0.934  0.001-   3 1.42  41 1.42   1 1.42
  43  0.172  0.800  0.001-  18 1.42  44 1.42  26 1.42
  44  0.239  0.934  0.001-   9 1.42  43 1.42   3 1.42
  45  0.372  0.800  0.001-  26 1.42  46 1.42  30 1.42
  46  0.439  0.934  0.001-  15 1.42  45 1.42   9 1.42
  47  0.572  0.800  0.001-  30 1.42  48 1.42  20 1.42
  48  0.639  0.934  0.001-  47 1.42  33 1.42  15 1.42
  49  0.772  0.800  0.001-  50 1.42  20 1.42  40 1.42
  50  0.839  0.934  0.001-  49 1.42   1 1.42  33 1.42
  51  0.373  0.251  0.187-  52 1.18  53 1.18
  52  0.421  0.189  0.191-  51 1.18
  53  0.325  0.313  0.184-  51 1.18
 
  LATTYP: Found a hexagonal cell.
 ALAT       =    12.3250000000
 C/A-ratio  =     1.6227180527
  
  Lattice vectors:
  
 A1 = (  12.3250000000,   0.0000000000,   0.0000000000)
 A2 = (  -6.1625000000,  10.6737631016,   0.0000000000)
 A3 = (   0.0000000000,   0.0000000000,  20.0000000000)


Analysis of symmetry for initial positions (statically):
=====================================================================
 Subroutine PRICEL returns:
 Original cell was already a primitive cell.
 

 Routine SETGRP: Setting up the symmetry group for a 
 hexagonal supercell.


 Subroutine GETGRP returns: Found  1 space group operations
 (whereof  1 operations were pure point group operations)
 out of a pool of 24 trial point group operations.


The static configuration has the point symmetry C_1 .


Analysis of symmetry for dynamics (positions and initial velocities):
=====================================================================
 Subroutine PRICEL returns:
 Original cell was already a primitive cell.
 

 Routine SETGRP: Setting up the symmetry group for a 
 hexagonal supercell.


 Subroutine GETGRP returns: Found  1 space group operations
 (whereof  1 operations were pure point group operations)
 out of a pool of 24 trial point group operations.


The dynamic configuration has the point symmetry C_1 .


 Subroutine INISYM returns: Found  1 space group operations
 (whereof  1 operations are pure point group operations),
 and found     1 'primitive' translations


----------------------------------------------------------------------------------------

                                     Primitive cell                                     

  volume of cell :    2631.0826

  direct lattice vectors                    reciprocal lattice vectors
    12.325000000  0.000000000  0.000000000     0.081135903  0.046843835  0.000000000
    -6.162500000 10.673763102  0.000000000     0.000000000  0.093687670  0.000000000
     0.000000000  0.000000000 20.000000000     0.000000000  0.000000000  0.050000000

  length of vectors
    12.325000000 12.325000000 20.000000000     0.093687670  0.093687670  0.050000000

  position of ions in fractional coordinates (direct lattice)
     0.972450841  0.000320818  0.000708389
     0.039118382  0.133659505  0.000550216
     0.172443627  0.000295449  0.000624535
     0.239096278  0.133647917  0.000320585
     0.972452058  0.200322012  0.000606523
     0.039128360  0.333643771  0.000555187
     0.172451764  0.200354552  0.000273959
     0.239124359  0.333665720  0.000090325
     0.372465565  0.000324403  0.000567391
     0.439137473  0.133619939  0.000322923
     0.972449824  0.400309362  0.000684513
     0.039124981  0.533636789  0.000716763
     0.372416176  0.400329481  0.000000000
     0.439099602  0.533638981  0.000290518
     0.572443676  0.000312125  0.000699475
     0.639110207  0.133631751  0.000684093
     0.972452703  0.600305653  0.000800361
     0.039124495  0.733640359  0.000818141
     0.572433471  0.600306242  0.000503618
     0.639111888  0.733641879  0.000659881
     0.172454630  0.400318228  0.000361306
     0.239120185  0.533636548  0.000473136
     0.372459750  0.200295993  0.000111246
     0.439107096  0.333673419  0.000069702
     0.172452155  0.600311506  0.000655425
     0.239123371  0.733638574  0.000718912
     0.572431082  0.200289171  0.000516621
     0.639112773  0.333618630  0.000577970
     0.372439808  0.600308022  0.000453556
     0.439116090  0.733637858  0.000617737
     0.572469358  0.400320504  0.000424897
     0.639119408  0.533650873  0.000574513
     0.772445723  0.000315427  0.000745201
     0.839116277  0.133640203  0.000719132
     0.772440513  0.200307432  0.000726291
     0.839120241  0.333635728  0.000731834
     0.772446320  0.400298367  0.000728722
     0.839118980  0.533633964  0.000776376
     0.772456143  0.600308173  0.000744639
     0.839115033  0.733643180  0.000789390
     0.972455313  0.800305582  0.000815291
     0.039114714  0.933643289  0.000747563
     0.172457971  0.800312211  0.000779216
     0.239134551  0.933647193  0.000681063
     0.372451396  0.800316674  0.000689249
     0.439124489  0.933644769  0.000676788
     0.572441101  0.800310054  0.000668168
     0.639115067  0.933638985  0.000734556
     0.772445098  0.800313187  0.000752577
     0.839116614  0.933644338  0.000758538
     0.373021009  0.251226878  0.187288385
     0.420879805  0.189313152  0.190509478
     0.325156981  0.313167186  0.184315641

  ion indices of the primitive-cell ions
   primitive index   ion index
                 1           1
                 2           2
                 3           3
                 4           4
                 5           5
                 6           6
                 7           7
                 8           8
                 9           9
                10          10
                11          11
                12          12
                13          13
                14          14
                15          15
                16          16
                17          17
                18          18
                19          19
                20          20
                21          21
                22          22
                23          23
                24          24
                25          25
                26          26
                27          27
                28          28
                29          29
                30          30
                31          31
                32          32
                33          33
                34          34
                35          35
                36          36
                37          37
                38          38
                39          39
                40          40
                41          41
                42          42
                43          43
                44          44
                45          45
                46          46
                47          47
                48          48
                49          49
                50          50
                51          51
                52          52
                53          53

----------------------------------------------------------------------------------------

 
 
 KPOINTS: auto                                    

Automatic generation of k-mesh.
 Grid dimensions read from file:
 generate k-points for:    1    1    1

 Generating k-lattice:

  Cartesian coordinates                     Fractional coordinates (reciprocal lattice)
     0.081135903  0.046843835  0.000000000     1.000000000 -0.000000000  0.000000000
     0.000000000  0.093687670  0.000000000     0.000000000  1.000000000  0.000000000
     0.000000000  0.000000000  0.050000000     0.000000000  0.000000000  1.000000000

  Length of vectors
     0.093687670  0.093687670  0.050000000

  Shift w.r.t. Gamma in fractional coordinates (k-lattice)
     0.000000000  0.000000000  0.000000000

 
 Subroutine IBZKPT returns following result:
 ===========================================
 
 Found      1 irreducible k-points:
 
 Following reciprocal coordinates:
            Coordinates               Weight
  0.000000  0.000000  0.000000      1.000000
 
 Following cartesian coordinates:
            Coordinates               Weight
  0.000000  0.000000  0.000000      1.000000
 


--------------------------------------------------------------------------------------------------------




 Dimension of arrays:
   k-points           NKPTS =      1   k-points in BZ     NKDIM =      1   number of bands    NBANDS=    168
   number of dos      NEDOS =    301   number of ions     NIONS =     53
   non local maximal  LDIM  =      4   non local SUM 2l+1 LMDIM =      8
   total plane-waves  NPLWV = ******
   max r-space proj   IRMAX =      1   max aug-charges    IRDMAX=   9736
   dimension x,y,z NGX =   128 NGY =  128 NGZ =  210
   dimension x,y,z NGXF=   256 NGYF=  256 NGZF=  420
   support grid    NGXF=   256 NGYF=  256 NGZF=  420
   ions per type =              51   2
   NGX,Y,Z   is equivalent  to a cutoff of  17.27, 17.27, 17.46 a.u.
   NGXF,Y,Z  is equivalent  to a cutoff of  34.53, 34.53, 34.91 a.u.

 SYSTEM =  unknown system                          
 POSCAR =   C  O                                   

 Startparameter for this run:
   NWRITE =      2    write-flag & timer
   PREC   = accura    normal or accurate (medium, high low for compatibility)
   ISTART =      0    job   : 0-new  1-cont  2-samecut
   ICHARG =      2    charge: 1-file 2-atom 10-const
   ISPIN  =      1    spin polarized calculation?
   LNONCOLLINEAR =      F non collinear calculations
   LSORBIT =      F    spin-orbit coupling
   INIWAV =      1    electr: 0-lowe 1-rand  2-diag
   LASPH  =      T    aspherical Exc in radial PAW
 Electronic Relaxation 1
   ENCUT  = 1000.0 eV  73.50 Ry    8.57 a.u.  31.78 31.78 51.57*2*pi/ulx,y,z
   ENINI  = 1000.0     initial cutoff
   ENAUG  =  946.8 eV  augmentation charge cutoff
   NELM   =    200;   NELMIN=  2; NELMDL= -5     # of ELM steps 
   EDIFF  = 0.1E-06   stopping-criterion for ELM
   LREAL  =      F    real-space projection
   NLSPLINE    = F    spline interpolate recip. space projectors
   LCOMPAT=      F    compatible to vasp.4.4
   GGA_COMPAT  = T    GGA compatible to vasp.4.4-vasp.4.6
   LMAXPAW     = -100 max onsite density
   LMAXMIX     =    2 max onsite mixed and CHGCAR
   VOSKOWN=      0    Vosko Wilk Nusair interpolation
   ROPT   =    0.00000   0.00000
 Ionic relaxation
   EDIFFG = 0.1E-05   stopping-criterion for IOM
   NSW    =      0    number of steps for IOM
   NBLOCK =      1;   KBLOCK =      1    inner block; outer block 
   IBRION =     -1    ionic relax: 0-MD 1-quasi-New 2-CG
   NFREE  =      0    steps in history (QN), initial steepest desc. (CG)
   ISIF   =      0    stress and relaxation
   IWAVPR =     10    prediction:  0-non 1-charg 2-wave 3-comb
   ISYM   =      2    0-nonsym 1-usesym 2-fastsym
   LCORR  =      T    Harris-Foulkes like correction to forces

   POTIM  = 0.5000    time-step for ionic-motion
   TEIN   =    0.0    initial temperature
   TEBEG  =    0.0;   TEEND  =   0.0 temperature during run
   SMASS  =  -3.00    Nose mass-parameter (am)
   estimated Nose-frequenzy (Omega)   =  0.10E-29 period in steps = 0.13E+47 mass=  -0.347E-26a.u.
   SCALEE = 1.0000    scale energy and forces
   NPACO  =    256;   APACO  = 16.0  distance and # of slots for P.C.
   PSTRESS=    0.0 pullay stress

  Mass of Ions in am
   POMASS =  12.01 16.00
  Ionic Valenz
   ZVAL   =   4.00  6.00
  Atomic Wigner-Seitz radii
   RWIGS  =  -1.00 -1.00
  virtual crystal weights 
   VCA    =   1.00  1.00
   NELECT =     216.0000    total number of electrons
   NUPDOWN=      -1.0000    fix difference up-down

 DOS related values:
   EMIN   =  10.00;   EMAX   =-10.00  energy-range for DOS
   EFERMI =   0.00
   ISMEAR =     0;   SIGMA  =   0.01  broadening in eV -4-tet -1-fermi 0-gaus

 Electronic relaxation 2 (details)
   IALGO  =     58    algorithm
   LDIAG  =      T    sub-space diagonalisation (order eigenvalues)
   LSUBROT=      F    optimize rotation matrix (better conditioning)
   TURBO    =      0    0=normal 1=particle mesh
   IRESTART =      0    0=no restart 2=restart with 2 vectors
   NREBOOT  =      0    no. of reboots
   NMIN     =      0    reboot dimension
   EREF     =   0.00    reference energy to select bands
   IMIX   =      4    mixing-type and parameters
     AMIX     =   0.40;   BMIX     =  1.00
     AMIX_MAG =   1.60;   BMIX_MAG =  1.00
     AMIN     =   0.10
     WC   =   100.;   INIMIX=   1;  MIXPRE=   1;  MAXMIX= -45

 Intra band minimization:
   WEIMIN = 0.0000     energy-eigenvalue tresh-hold
   EBREAK =  0.15E-09  absolut break condition
   DEPER  =   0.30     relativ break condition  

   TIME   =   0.40     timestep for ELM

  volume/ion in A,a.u.               =      49.64       335.01
  Fermi-wavevector in a.u.,A,eV,Ry     =   0.711510  1.344560  6.887909  0.506247
  Thomas-Fermi vector in A             =   1.798641
 
 Write flags
   LWAVE        =      T    write WAVECAR
   LDOWNSAMPLE  =      F    k-point downsampling of WAVECAR
   LCHARG       =      T    write CHGCAR
   LVTOT        =      F    write LOCPOT, total local potential
   LVHAR        =      F    write LOCPOT, Hartree potential only
   LELF         =      F    write electronic localiz. function (ELF)
   LORBIT       =      0    0 simple, 1 ext, 2 COOP (PROOUT), +10 PAW based schemes


 Dipole corrections
   LMONO  =      F    monopole corrections only (constant potential shift)
   LDIPOL =      F    correct potential (dipole corrections)
   IDIPOL =      0    1-x, 2-y, 3-z, 4-all directions 
   EPSILON=  1.0000000 bulk dielectric constant

 Exchange correlation treatment:
   GGA     =    --    GGA type
   LEXCH   =     8    internal setting for exchange type
   VOSKOWN=      0    Vosko Wilk Nusair interpolation
   LHFCALC =     F    Hartree Fock is set to
   LHFONE  =     F    Hartree Fock one center treatment
   AEXX    =    0.0000 exact exchange contribution

 vdW DFT:
   LUSE_VDW   =     T    switch on vdW DFT
   Zab_VDW    =-.8491    correlation parameter
   PARAM1     =0.1234
   PARAM2     =1.0000
   PARAM3     =0.0000
   -- rVV10 --
   BPARAM     =15.7000
   CPARAM     = 0.0093

 Linear response parameters
   LEPSILON=     F    determine dielectric tensor
   LRPA    =     F    only Hartree local field effects (RPA)
   LNABLA  =     F    use nabla operator in PAW spheres
   LVEL    =     F    velocity operator in full k-point grid
   LINTERFAST=   F  fast interpolation
   KINTER  =     0    interpolate to denser k-point grid
   CSHIFT  =0.1000    complex shift for real part using Kramers Kronig
   OMEGAMAX=  -1.0    maximum frequency
   DEG_THRESHOLD= 0.2000000E-02 threshold for treating states as degnerate
   RTIME   =   -0.100 relaxation time in fs
  (WPLASMAI=    0.000 imaginary part of plasma frequency in eV, 0.658/RTIME)
   DFIELD  = 0.0000000 0.0000000 0.0000000 field for delta impulse in time
 
 Orbital magnetization related:
   ORBITALMAG=     F  switch on orbital magnetization
   LCHIMAG   =     F  perturbation theory with respect to B field
   DQ        =  0.001000  dq finite difference perturbation B field
   LLRAUG    =     F  two centre corrections for induced B field



--------------------------------------------------------------------------------------------------------


 Static calculation
 charge density and potential will be updated during run
 non-spin polarized calculation
 Conjugate gradient for all bands (Freysoldt, et al. PRB 79, 241103 (2009))
 preconditioned conjugated gradient                                        
 perform sub-space diagonalisation
    before iterative eigenvector-optimisation
 modified Broyden-mixing scheme, WC =      100.0
 initial mixing is a Kerker type mixing with AMIX =  0.4000 and BMIX =      1.0000
 Hartree-type preconditioning will be used
 using additional bands           60
 reciprocal scheme for non local part
 use partial core corrections
 no Harris-corrections to forces 
 use gradient corrections 
 use of overlap-Matrix (Vanderbilt PP)
 Gauss-broadening in eV      SIGMA  =   0.01


--------------------------------------------------------------------------------------------------------


  energy-cutoff  :     1000.00
  volume of cell :     2631.08
      direct lattice vectors                 reciprocal lattice vectors
    12.325000000  0.000000000  0.000000000     0.081135903  0.046843835  0.000000000
    -6.162500000 10.673763102  0.000000000     0.000000000  0.093687670  0.000000000
     0.000000000  0.000000000 20.000000000     0.000000000  0.000000000  0.050000000

  length of vectors
    12.325000000 12.325000000 20.000000000     0.093687670  0.093687670  0.050000000


 
 k-points in units of 2pi/SCALE and weight: auto                                    
   0.00000000  0.00000000  0.00000000       1.000
 
 k-points in reciprocal lattice and weights: auto                                    
   0.00000000  0.00000000  0.00000000       1.000
 
 position of ions in fractional coordinates (direct lattice) 
   0.97245084  0.00032082  0.00070839
   0.03911838  0.13365950  0.00055022
   0.17244363  0.00029545  0.00062454
   0.23909628  0.13364792  0.00032058
   0.97245206  0.20032201  0.00060652
   0.03912836  0.33364377  0.00055519
   0.17245176  0.20035455  0.00027396
   0.23912436  0.33366572  0.00009033
   0.37246557  0.00032440  0.00056739
   0.43913747  0.13361994  0.00032292
   0.97244982  0.40030936  0.00068451
   0.03912498  0.53363679  0.00071676
   0.37241618  0.40032948  0.00000000
   0.43909960  0.53363898  0.00029052
   0.57244368  0.00031213  0.00069947
   0.63911021  0.13363175  0.00068409
   0.97245270  0.60030565  0.00080036
   0.03912449  0.73364036  0.00081814
   0.57243347  0.60030624  0.00050362
   0.63911189  0.73364188  0.00065988
   0.17245463  0.40031823  0.00036131
   0.23912018  0.53363655  0.00047314
   0.37245975  0.20029599  0.00011125
   0.43910710  0.33367342  0.00006970
   0.17245216  0.60031151  0.00065542
   0.23912337  0.73363857  0.00071891
   0.57243108  0.20028917  0.00051662
   0.63911277  0.33361863  0.00057797
   0.37243981  0.60030802  0.00045356
   0.43911609  0.73363786  0.00061774
   0.57246936  0.40032050  0.00042490
   0.63911941  0.53365087  0.00057451
   0.77244572  0.00031543  0.00074520
   0.83911628  0.13364020  0.00071913
   0.77244051  0.20030743  0.00072629
   0.83912024  0.33363573  0.00073183
   0.77244632  0.40029837  0.00072872
   0.83911898  0.53363396  0.00077638
   0.77245614  0.60030817  0.00074464
   0.83911503  0.73364318  0.00078939
   0.97245531  0.80030558  0.00081529
   0.03911471  0.93364329  0.00074756
   0.17245797  0.80031221  0.00077922
   0.23913455  0.93364719  0.00068106
   0.37245140  0.80031667  0.00068925
   0.43912449  0.93364477  0.00067679
   0.57244110  0.80031005  0.00066817
   0.63911507  0.93363899  0.00073456
   0.77244510  0.80031319  0.00075258
   0.83911661  0.93364434  0.00075854
   0.37302101  0.25122688  0.18728838
   0.42087980  0.18931315  0.19050948
   0.32515698  0.31316719  0.18431564
 
 position of ions in cartesian coordinates  (Angst):
  11.98347958  0.00342433  0.01416777
  -0.34154264  1.42664989  0.01100432
   2.12354700  0.00315355  0.01249070
   2.12325634  1.42652621  0.00641170
  10.75098721  2.13818970  0.01213047
  -1.57382270  3.56123457  0.01110375
   0.89078307  2.13853702  0.00547917
   0.89099273  3.56146885  0.00180651
   4.58863896  0.00346260  0.01134782
   4.58893648  1.42622757  0.00645846
   9.51853763  4.27280730  0.01369027
  -2.80632132  5.69591267  0.01433526
   2.12299894  4.27302204  0.00000000
   2.12335237  5.69593607  0.00581036
   7.05344483  0.00333155  0.01398950
   7.05352764  1.42635365  0.01368187
   8.28609598  6.40752033  0.01600723
  -4.03884931  7.83070339  0.01636283
   3.35585531  6.40752662  0.01007237
   3.35598594  7.83071962  0.01319763
  -0.34145776  4.27290193  0.00722612
  -0.34137895  5.69591010  0.00946273
   3.35624236  2.13791198  0.00222492
   3.35573251  3.56155103  0.00139405
  -1.57394684  6.40758280  0.01310850
  -1.57385216  7.83068434  0.01437823
   5.82093107  2.13783916  0.01033241
   5.82114012  3.56096622  0.01155939
   0.89092245  6.40754561  0.00907111
   0.89106251  7.83067670  0.01235474
   4.58870974  4.27292622  0.00849795
   4.58852320  5.69606300  0.01149026
   9.51844972  0.00336679  0.01490402
   9.51855036  1.42644387  0.01438264
   8.28593477  2.13803408  0.01452582
   8.28612680  3.56114872  0.01463668
   7.05356221  4.27268994  0.01457444
   7.05362213  5.69588251  0.01552751
   5.82112285  6.40754723  0.01489279
   5.82101669  7.83073350  0.01578780
   7.05362858  8.54227219  0.01630582
  -5.27148792  9.96548729  0.01495127
  -2.80637951  8.54234295  0.01558431
  -2.80626749  9.96552896  0.01362126
  -0.34148805  8.54239058  0.01378498
  -0.34137657  9.96550309  0.01353576
   2.12342586  8.54231992  0.01336337
   2.12354296  9.96544135  0.01469111
   4.58845581  8.54235337  0.01505154
   4.58852904  9.96549848  0.01517076
   3.04929830  2.68153618  3.74576769
   4.02070129  2.02068374  3.81018955
   2.07766701  3.34267235  3.68631282
 


--------------------------------------------------------------------------------------------------------


 k-point   1 :   0.0000 0.0000 0.0000  plane waves:  189031

 maximum and minimum number of plane-waves per node :    189031   189031

 maximum number of plane-waves:    189031
 maximum index in each direction: 
   IXMAX=   31   IYMAX=   31   IZMAX=   51
   IXMIN=  -31   IYMIN=  -31   IZMIN=  -51


 serial   3D FFT for wavefunctions
 parallel 3D FFT for charge:
    minimum data exchange during FFTs selected (reduces bandwidth)


 total amount of memory used by VASP MPI-rank0   556209. kBytes
=======================================================================

   base      :      30000. kBytes
   nonl-proj :     184518. kBytes
   fftplans  :      31725. kBytes
   grid      :     282516. kBytes
   one-center:        162. kBytes
   wavefun   :      27288. kBytes
 
     INWAV:  cpu time    0.0000: real time    0.0000
 Broyden mixing: mesh for mixing (old mesh)
   NGX = 63   NGY = 63   NGZ =103
  (NGX  =256   NGY  =256   NGZ  =420)
  gives a total of 408807 points

 initial charge density was supplied:
 charge density of overlapping atoms calculated
 number of electron     216.0000000 magnetization 
 keeping initial charge density in first step


--------------------------------------------------------------------------------------------------------


 Maximum index for augmentation-charges          459 (set IRDMAX)


--------------------------------------------------------------------------------------------------------


 First call to EWALD:  gamma=   0.128
 Maximum number of real-space cells 3x 3x 2
 Maximum number of reciprocal cells 3x 3x 4

    FEWALD:  cpu time    0.0032: real time    0.0032


--------------------------------------- Iteration      1(   1)  ---------------------------------------


    POTLOK:  cpu time    6.3170: real time    6.3585
    SETDIJ:  cpu time    0.1008: real time    0.1012
    TRIAL :  cpu time   21.7158: real time   21.9493
    CORREC:  cpu time    0.0003: real time    0.0003
    --------------------------------------------
      LOOP:  cpu time   28.1460: real time   28.4297

 eigenvalue-minimisations  :   336
 total energy-change (2. order) : 0.2411567E+04  (-0.1180819E+05)
 number of electron     216.0000000 magnetization 
 augmentation part      216.0000000 magnetization 

 Free energy of the ion-electron system (eV)
  ---------------------------------------------------
  alpha Z        PSCENC =        59.93625244
  Ewald energy   TEWEN  =     33525.66468612
  -Hartree energ DENC   =    -39700.97097628
  -exchange      EXHF   =         0.00000000
  -V(xc)+E(xc)   XCENC  =       604.38000936
  PAW double counting   =      6339.73130699    -6197.22120962
  entropy T*S    EENTRO =        -0.00000000
  eigenvalues    EBANDS =      -589.47656417
  atomic energy  EATOM  =      8369.52358910
  ---------------------------------------------------
  free energy    TOTEN  =      2411.56709394 eV

  energy without entropy =     2411.56709394  energy(sigma->0) =     2411.56709394


--------------------------------------------------------------------------------------------------------




--------------------------------------- Iteration      1(   2)  ---------------------------------------


    TRIAL :  cpu time   30.9366: real time   31.2067
    CORREC:  cpu time    0.0001: real time    0.0003
    --------------------------------------------
      LOOP:  cpu time   30.9631: real time   31.2392

 eigenvalue-minimisations  :   560
 total energy-change (2. order) :-0.2437067E+04  (-0.2306709E+04)
 number of electron     216.0000000 magnetization 
 augmentation part      216.0000000 magnetization 

 Free energy of the ion-electron system (eV)
  ---------------------------------------------------
  alpha Z        PSCENC =        59.93625244
  Ewald energy   TEWEN  =     33525.66468612
  -Hartree energ DENC   =    -39700.97097628
  -exchange      EXHF   =         0.00000000
  -V(xc)+E(xc)   XCENC  =       604.38000936
  PAW double counting   =      6339.73130699    -6197.22120962
  entropy T*S    EENTRO =        -0.00000000
  eigenvalues    EBANDS =     -3026.54361526
  atomic energy  EATOM  =      8369.52358910
  ---------------------------------------------------
  free energy    TOTEN  =       -25.49995715 eV

  energy without entropy =      -25.49995715  energy(sigma->0) =      -25.49995715


--------------------------------------------------------------------------------------------------------




--------------------------------------- Iteration      1(   3)  ---------------------------------------


    TRIAL :  cpu time   24.0021: real time   24.2173
    CORREC:  cpu time    0.0001: real time    0.0001
    --------------------------------------------
      LOOP:  cpu time   24.0292: real time   24.2472

 eigenvalue-minimisations  :   392
 total energy-change (2. order) :-0.5625507E+03  (-0.5596999E+03)
 number of electron     216.0000000 magnetization 
 augmentation part      216.0000000 magnetization 

 Free energy of the ion-electron system (eV)
  ---------------------------------------------------
  alpha Z        PSCENC =        59.93625244
  Ewald energy   TEWEN  =     33525.66468612
  -Hartree energ DENC   =    -39700.97097628
  -exchange      EXHF   =         0.00000000
  -V(xc)+E(xc)   XCENC  =       604.38000936
  PAW double counting   =      6339.73130699    -6197.22120962
  entropy T*S    EENTRO =        -0.00000000
  eigenvalues    EBANDS =     -3589.09433115
  atomic energy  EATOM  =      8369.52358910
  ---------------------------------------------------
  free energy    TOTEN  =      -588.05067304 eV

  energy without entropy =     -588.05067304  energy(sigma->0) =     -588.05067304


--------------------------------------------------------------------------------------------------------




--------------------------------------- Iteration      1(   4)  ---------------------------------------


    TRIAL :  cpu time   26.3269: real time   26.5605
    CORREC:  cpu time    0.0001: real time    0.0001
    --------------------------------------------
      LOOP:  cpu time   26.3529: real time   26.5955

 eigenvalue-minimisations  :   448
 total energy-change (2. order) :-0.2635954E+02  (-0.2620069E+02)
 number of electron     216.0000000 magnetization 
 augmentation part      216.0000000 magnetization 

 Free energy of the ion-electron system (eV)
  ---------------------------------------------------
  alpha Z        PSCENC =        59.93625244
  Ewald energy   TEWEN  =     33525.66468612
  -Hartree energ DENC   =    -39700.97097628
  -exchange      EXHF   =         0.00000000
  -V(xc)+E(xc)   XCENC  =       604.38000936
  PAW double counting   =      6339.73130699    -6197.22120962
  entropy T*S    EENTRO =        -0.00000000
  eigenvalues    EBANDS =     -3615.45387231
  atomic energy  EATOM  =      8369.52358910
  ---------------------------------------------------
  free energy    TOTEN  =      -614.41021419 eV

  energy without entropy =     -614.41021419  energy(sigma->0) =     -614.41021419


--------------------------------------------------------------------------------------------------------




--------------------------------------- Iteration      1(   5)  ---------------------------------------


    TRIAL :  cpu time   26.3356: real time   26.5589
    CORREC:  cpu time    0.0002: real time    0.0003
    CHARGE:  cpu time    2.2841: real time    2.3025
    --------------------------------------------
      LOOP:  cpu time   28.6499: real time   28.8920

 eigenvalue-minimisations  :   448
 total energy-change (2. order) :-0.9299450E+00  (-0.9258231E+00)
 number of electron     216.0000000 magnetization 
 augmentation part       -0.4311849 magnetization 

 Free energy of the ion-electron system (eV)
  ---------------------------------------------------
  alpha Z        PSCENC =        59.93625244
  Ewald energy   TEWEN  =     33525.66468612
  -Hartree energ DENC   =    -39700.97097628
  -exchange      EXHF   =         0.00000000
  -V(xc)+E(xc)   XCENC  =       604.38000936
  PAW double counting   =      6339.73130699    -6197.22120962
  entropy T*S    EENTRO =        -0.00000000
  eigenvalues    EBANDS =     -3616.38381732
  atomic energy  EATOM  =      8369.52358910
  ---------------------------------------------------
  free energy    TOTEN  =      -615.34015921 eV

  energy without entropy =     -615.34015921  energy(sigma->0) =     -615.34015921


--------------------------------------------------------------------------------------------------------




--------------------------------------- Iteration      1(   6)  ---------------------------------------


    POTLOK:  cpu time    6.1357: real time    6.1737
    SETDIJ:  cpu time    0.2186: real time    0.2194
    TRIAL :  cpu time   15.4773: real time   15.6155
    CORREC:  cpu time   11.7473: real time   11.8304
    CHARGE:  cpu time    2.2865: real time    2.3054
    --------------------------------------------
      LOOP:  cpu time   35.8911: real time   36.1740

 eigenvalue-minimisations  :     0
 total energy-change (2. order) : 0.1038206E+03  (-0.1209124E+02)
 number of electron     216.0000000 magnetization 
 augmentation part       -0.4892861 magnetization 

 Free energy of the ion-electron system (eV)
  ---------------------------------------------------
  alpha Z        PSCENC =        59.93625244
  Ewald energy   TEWEN  =     33525.66468612
  -Hartree energ DENC   =    -41028.62565758
  -exchange      EXHF   =         0.00000000
  -V(xc)+E(xc)   XCENC  =       670.98070809
  PAW double counting   =    113847.32548456  -113710.53061907
  entropy T*S    EENTRO =        -0.00000000
  eigenvalues    EBANDS =     -2245.79405082
  atomic energy  EATOM  =      8369.52358910
  ---------------------------------------------------
  free energy    TOTEN  =      -511.51960716 eV

  energy without entropy =     -511.51960716  energy(sigma->0) =     -511.51960716


--------------------------------------------------------------------------------------------------------




--------------------------------------- Iteration      1(   7)  ---------------------------------------


    POTLOK:  cpu time    6.1170: real time    6.1587
    SETDIJ:  cpu time    0.1921: real time    0.1927
    TRIAL :  cpu time   15.4792: real time   15.6176
    CORREC:  cpu time   11.7547: real time   11.8489
    CHARGE:  cpu time    2.2891: real time    2.3054
    --------------------------------------------
      LOOP:  cpu time   35.8860: real time   36.1830

 eigenvalue-minimisations  :     0
 total energy-change (2. order) :-0.1210450E+02  (-0.1552807E+01)
 number of electron     216.0000000 magnetization 
 augmentation part       -0.5199567 magnetization 

 Free energy of the ion-electron system (eV)
  ---------------------------------------------------
  alpha Z        PSCENC =        59.93625244
  Ewald energy   TEWEN  =     33525.66468612
  -Hartree energ DENC   =    -40606.64524527
  -exchange      EXHF   =         0.00000000
  -V(xc)+E(xc)   XCENC  =       651.08490859
  PAW double counting   =    132008.09373178  -131868.54691114
  entropy T*S    EENTRO =        -0.00000000
  eigenvalues    EBANDS =     -2662.73511960
  atomic energy  EATOM  =      8369.52358910
  ---------------------------------------------------
  free energy    TOTEN  =      -523.62410798 eV

  energy without entropy =     -523.62410798  energy(sigma->0) =     -523.62410798


--------------------------------------------------------------------------------------------------------




--------------------------------------- Iteration      1(   8)  ---------------------------------------


    POTLOK:  cpu time    6.1071: real time    6.1536
    SETDIJ:  cpu time    0.2382: real time    0.2389
    TRIAL :  cpu time   15.4646: real time   15.6038
    CORREC:  cpu time   11.7606: real time   11.8484
    CHARGE:  cpu time    2.2782: real time    2.3016
    --------------------------------------------
      LOOP:  cpu time   35.8679: real time   36.1709

 eigenvalue-minimisations  :     0
 total energy-change (2. order) :-0.1553491E+01  (-0.4898339E+00)
 number of electron     216.0000000 magnetization 
 augmentation part       -0.5187229 magnetization 

 Free energy of the ion-electron system (eV)
  ---------------------------------------------------
  alpha Z        PSCENC =        59.93625244
  Ewald energy   TEWEN  =     33525.66468612
  -Hartree energ DENC   =    -40579.51954764
  -exchange      EXHF   =         0.00000000
  -V(xc)+E(xc)   XCENC  =       649.53250612
  PAW double counting   =    140169.20491602  -140029.17971458
  entropy T*S    EENTRO =        -0.00000000
  eigenvalues    EBANDS =     -2690.34028640
  atomic energy  EATOM  =      8369.52358910
  ---------------------------------------------------
  free energy    TOTEN  =      -525.17759881 eV

  energy without entropy =     -525.17759881  energy(sigma->0) =     -525.17759881


--------------------------------------------------------------------------------------------------------




--------------------------------------- Iteration      1(   9)  ---------------------------------------


    POTLOK:  cpu time    6.0949: real time    6.1691
    SETDIJ:  cpu time    0.2103: real time    0.2109
    TRIAL :  cpu time   15.4715: real time   15.6104
    CORREC:  cpu time   11.7667: real time   11.8799
    CHARGE:  cpu time    2.2853: real time    2.3019
    --------------------------------------------
      LOOP:  cpu time   35.8631: real time   36.2419

 eigenvalue-minimisations  :     0
 total energy-change (2. order) :-0.4896587E+00  (-0.1863275E+00)
 number of electron     216.0000000 magnetization 
 augmentation part       -0.5140413 magnetization 

 Free energy of the ion-electron system (eV)
  ---------------------------------------------------
  alpha Z        PSCENC =        59.93625244
  Ewald energy   TEWEN  =     33525.66468612
  -Hartree energ DENC   =    -40587.31476459
  -exchange      EXHF   =         0.00000000
  -V(xc)+E(xc)   XCENC  =       649.31078448
  PAW double counting   =    146233.40711816  -146093.18944759
  entropy T*S    EENTRO =        -0.00000000
  eigenvalues    EBANDS =     -2683.00547566
  atomic energy  EATOM  =      8369.52358910
  ---------------------------------------------------
  free energy    TOTEN  =      -525.66725753 eV

  energy without entropy =     -525.66725753  energy(sigma->0) =     -525.66725753


--------------------------------------------------------------------------------------------------------




--------------------------------------- Iteration      1(  10)  ---------------------------------------


    POTLOK:  cpu time    6.1122: real time    6.1635
    SETDIJ:  cpu time    0.2066: real time    0.2074
    TRIAL :  cpu time   15.4633: real time   15.6365
    CORREC:  cpu time   11.7481: real time   11.8725
    CHARGE:  cpu time    2.2779: real time    2.2987
    --------------------------------------------
      LOOP:  cpu time   35.8801: real time   36.2516

 eigenvalue-minimisations  :     0
 total energy-change (2. order) :-0.1861734E+00  (-0.7851705E-01)
 number of electron     216.0000000 magnetization 
 augmentation part       -0.5080761 magnetization 

 Free energy of the ion-electron system (eV)
  ---------------------------------------------------
  alpha Z        PSCENC =        59.93625244
  Ewald energy   TEWEN  =     33525.66468612
  -Hartree energ DENC   =    -40587.13926004
  -exchange      EXHF   =         0.00000000
  -V(xc)+E(xc)   XCENC  =       649.11899487
  PAW double counting   =    148565.49137365  -148425.18038735
  entropy T*S    EENTRO =        -0.00000000
  eigenvalues    EBANDS =     -2683.26867971
  atomic energy  EATOM  =      8369.52358910
  ---------------------------------------------------
  free energy    TOTEN  =      -525.85343092 eV

  energy without entropy =     -525.85343092  energy(sigma->0) =     -525.85343092


--------------------------------------------------------------------------------------------------------




--------------------------------------- Iteration      1(  11)  ---------------------------------------


    POTLOK:  cpu time    6.1332: real time    6.1816
    SETDIJ:  cpu time    0.1838: real time    0.1847
    TRIAL :  cpu time   15.4642: real time   15.6108
    CORREC:  cpu time   11.7515: real time   11.8385
    CHARGE:  cpu time    2.2860: real time    2.3024
    --------------------------------------------
      LOOP:  cpu time   35.8674: real time   36.1723

 eigenvalue-minimisations  :     0
 total energy-change (2. order) :-0.7830692E-01  (-0.3105603E-01)
 number of electron     216.0000000 magnetization 
 augmentation part       -0.5045621 magnetization 

 Free energy of the ion-electron system (eV)
  ---------------------------------------------------
  alpha Z        PSCENC =        59.93625244
  Ewald energy   TEWEN  =     33525.66468612
  -Hartree energ DENC   =    -40581.79147973
  -exchange      EXHF   =         0.00000000
  -V(xc)+E(xc)   XCENC  =       648.98135600
  PAW double counting   =    148499.77756638  -148359.46413132
  entropy T*S    EENTRO =        -0.00000000
  eigenvalues    EBANDS =     -2688.55957683
  atomic energy  EATOM  =      8369.52358910
  ---------------------------------------------------
  free energy    TOTEN  =      -525.93173784 eV

  energy without entropy =     -525.93173784  energy(sigma->0) =     -525.93173784


--------------------------------------------------------------------------------------------------------




--------------------------------------- Iteration      1(  12)  ---------------------------------------


    POTLOK:  cpu time    6.1232: real time    6.1628
    SETDIJ:  cpu time    0.2125: real time    0.2134
    TRIAL :  cpu time   15.4639: real time   15.6176
    CORREC:  cpu time   11.7503: real time   11.8432
    CHARGE:  cpu time    2.2821: real time    2.2981
    --------------------------------------------
      LOOP:  cpu time   35.8525: real time   36.1684

 eigenvalue-minimisations  :     0
 total energy-change (2. order) :-0.3096348E-01  (-0.1009154E-01)
 number of electron     216.0000000 magnetization 
 augmentation part       -0.5046235 magnetization 

 Free energy of the ion-electron system (eV)
  ---------------------------------------------------
  alpha Z        PSCENC =        59.93625244
  Ewald energy   TEWEN  =     33525.66468612
  -Hartree energ DENC   =    -40577.48620290
  -exchange      EXHF   =         0.00000000
  -V(xc)+E(xc)   XCENC  =       648.88242719
  PAW double counting   =    147835.88426333  -147695.59458954
  entropy T*S    EENTRO =        -0.00000000
  eigenvalues    EBANDS =     -2692.77312706
  atomic energy  EATOM  =      8369.52358910
  ---------------------------------------------------
  free energy    TOTEN  =      -525.96270132 eV

  energy without entropy =     -525.96270132  energy(sigma->0) =     -525.96270132


--------------------------------------------------------------------------------------------------------




--------------------------------------- Iteration      1(  13)  ---------------------------------------


    POTLOK:  cpu time    6.1396: real time    6.1913
    SETDIJ:  cpu time    0.1787: real time    0.1793
    TRIAL :  cpu time   15.4652: real time   15.5974
    CORREC:  cpu time   11.7452: real time   11.8372
    CHARGE:  cpu time    2.3087: real time    2.3250
    --------------------------------------------
      LOOP:  cpu time   35.8735: real time   36.1849

 eigenvalue-minimisations  :     0
 total energy-change (2. order) :-0.1007946E-01  (-0.2829748E-02)
 number of electron     216.0000000 magnetization 
 augmentation part       -0.5052419 magnetization 

 Free energy of the ion-electron system (eV)
  ---------------------------------------------------
  alpha Z        PSCENC =        59.93625244
  Ewald energy   TEWEN  =     33525.66468612
  -Hartree energ DENC   =    -40576.02928662
  -exchange      EXHF   =         0.00000000
  -V(xc)+E(xc)   XCENC  =       648.83041183
  PAW double counting   =    147327.15126208  -147186.87323797
  entropy T*S    EENTRO =        -0.00000000
  eigenvalues    EBANDS =     -2694.17645775
  atomic energy  EATOM  =      8369.52358910
  ---------------------------------------------------
  free energy    TOTEN  =      -525.97278077 eV

  energy without entropy =     -525.97278077  energy(sigma->0) =     -525.97278077


--------------------------------------------------------------------------------------------------------




--------------------------------------- Iteration      1(  14)  ---------------------------------------


    POTLOK:  cpu time    6.1387: real time    6.1829
    SETDIJ:  cpu time    0.1863: real time    0.1869
    TRIAL :  cpu time   15.4420: real time   15.6009
    CORREC:  cpu time   11.7368: real time   11.8338
    CHARGE:  cpu time    2.2758: real time    2.3030
    --------------------------------------------
      LOOP:  cpu time   35.8422: real time   36.1752

 eigenvalue-minimisations  :     0
 total energy-change (2. order) :-0.2834471E-02  (-0.7097779E-03)
 number of electron     216.0000000 magnetization 
 augmentation part       -0.5054690 magnetization 

 Free energy of the ion-electron system (eV)
  ---------------------------------------------------
  alpha Z        PSCENC =        59.93625244
  Ewald energy   TEWEN  =     33525.66468612
  -Hartree energ DENC   =    -40575.96222628
  -exchange      EXHF   =         0.00000000
  -V(xc)+E(xc)   XCENC  =       648.82509812
  PAW double counting   =    147093.09216442  -146952.81954440
  entropy T*S    EENTRO =        -0.00000000
  eigenvalues    EBANDS =     -2694.23563476
  atomic energy  EATOM  =      8369.52358910
  ---------------------------------------------------
  free energy    TOTEN  =      -525.97561524 eV

  energy without entropy =     -525.97561524  energy(sigma->0) =     -525.97561524


--------------------------------------------------------------------------------------------------------




--------------------------------------- Iteration      1(  15)  ---------------------------------------


    POTLOK:  cpu time    6.1242: real time    6.1790
    SETDIJ:  cpu time    0.2055: real time    0.2063
    TRIAL :  cpu time   15.4760: real time   15.6242
    CORREC:  cpu time   11.7494: real time   11.8535
    CHARGE:  cpu time    2.2785: real time    2.3039
    --------------------------------------------
      LOOP:  cpu time   35.8754: real time   36.2093

 eigenvalue-minimisations  :     0
 total energy-change (2. order) :-0.7149177E-03  (-0.1847890E-03)
 number of electron     216.0000000 magnetization 
 augmentation part       -0.5055898 magnetization 

 Free energy of the ion-electron system (eV)
  ---------------------------------------------------
  alpha Z        PSCENC =        59.93625244
  Ewald energy   TEWEN  =     33525.66468612
  -Hartree energ DENC   =    -40575.87968706
  -exchange      EXHF   =         0.00000000
  -V(xc)+E(xc)   XCENC  =       648.82633140
  PAW double counting   =    147001.04790767  -146860.77781171
  entropy T*S    EENTRO =        -0.00000000
  eigenvalues    EBANDS =     -2694.31759812
  atomic energy  EATOM  =      8369.52358910
  ---------------------------------------------------
  free energy    TOTEN  =      -525.97633016 eV

  energy without entropy =     -525.97633016  energy(sigma->0) =     -525.97633016


--------------------------------------------------------------------------------------------------------




--------------------------------------- Iteration      1(  16)  ---------------------------------------


    POTLOK:  cpu time    6.1361: real time    6.1756
    SETDIJ:  cpu time    0.2073: real time    0.2080
    TRIAL :  cpu time   15.4773: real time   15.6276
    CORREC:  cpu time   11.7570: real time   11.8448
    CHARGE:  cpu time    2.2845: real time    2.3042
    --------------------------------------------
      LOOP:  cpu time   35.9255: real time   36.2293

 eigenvalue-minimisations  :     0
 total energy-change (2. order) :-0.1880012E-03  (-0.6114370E-04)
 number of electron     216.0000000 magnetization 
 augmentation part       -0.5056291 magnetization 

 Free energy of the ion-electron system (eV)
  ---------------------------------------------------
  alpha Z        PSCENC =        59.93625244
  Ewald energy   TEWEN  =     33525.66468612
  -Hartree energ DENC   =    -40575.80630993
  -exchange      EXHF   =         0.00000000
  -V(xc)+E(xc)   XCENC  =       648.82536274
  PAW double counting   =    146947.15442448  -146806.88485567
  entropy T*S    EENTRO =        -0.00000000
  eigenvalues    EBANDS =     -2694.38966745
  atomic energy  EATOM  =      8369.52358910
  ---------------------------------------------------
  free energy    TOTEN  =      -525.97651816 eV

  energy without entropy =     -525.97651816  energy(sigma->0) =     -525.97651816


--------------------------------------------------------------------------------------------------------




--------------------------------------- Iteration      1(  17)  ---------------------------------------


    POTLOK:  cpu time    6.1457: real time    6.1967
    SETDIJ:  cpu time    0.1879: real time    0.1885
    TRIAL :  cpu time   15.4830: real time   15.6216
    CORREC:  cpu time   11.7575: real time   11.8386
    CHARGE:  cpu time    2.2882: real time    2.3046
    --------------------------------------------
      LOOP:  cpu time   35.8782: real time   36.1750

 eigenvalue-minimisations  :     0
 total energy-change (2. order) :-0.5981085E-04  (-0.2173742E-04)
 number of electron     216.0000000 magnetization 
 augmentation part       -0.5056406 magnetization 

 Free energy of the ion-electron system (eV)
  ---------------------------------------------------
  alpha Z        PSCENC =        59.93625244
  Ewald energy   TEWEN  =     33525.66468612
  -Hartree energ DENC   =    -40575.92288834
  -exchange      EXHF   =         0.00000000
  -V(xc)+E(xc)   XCENC  =       648.83189498
  PAW double counting   =    146904.65873584  -146764.38987212
  entropy T*S    EENTRO =        -0.00000000
  eigenvalues    EBANDS =     -2694.27897600
  atomic energy  EATOM  =      8369.52358910
  ---------------------------------------------------
  free energy    TOTEN  =      -525.97657797 eV

  energy without entropy =     -525.97657797  energy(sigma->0) =     -525.97657797


--------------------------------------------------------------------------------------------------------




--------------------------------------- Iteration      1(  18)  ---------------------------------------


    POTLOK:  cpu time    6.1604: real time    6.2013
    SETDIJ:  cpu time    0.1741: real time    0.1747
    TRIAL :  cpu time   15.4946: real time   15.6158
    CORREC:  cpu time   11.7462: real time   11.8519
    CHARGE:  cpu time    2.2755: real time    2.3023
    --------------------------------------------
      LOOP:  cpu time   35.8630: real time   36.1869

 eigenvalue-minimisations  :     0
 total energy-change (2. order) :-0.2079658E-04  (-0.6660022E-05)
 number of electron     216.0000000 magnetization 
 augmentation part       -0.5056668 magnetization 

 Free energy of the ion-electron system (eV)
  ---------------------------------------------------
  alpha Z        PSCENC =        59.93625244
  Ewald energy   TEWEN  =     33525.66468612
  -Hartree energ DENC   =    -40576.00017683
  -exchange      EXHF   =         0.00000000
  -V(xc)+E(xc)   XCENC  =       648.83564623
  PAW double counting   =    146885.47722545  -146745.20843989
  entropy T*S    EENTRO =        -0.00000000
  eigenvalues    EBANDS =     -2694.20538140
  atomic energy  EATOM  =      8369.52358910
  ---------------------------------------------------
  free energy    TOTEN  =      -525.97659877 eV

  energy without entropy =     -525.97659877  energy(sigma->0) =     -525.97659877


--------------------------------------------------------------------------------------------------------




--------------------------------------- Iteration      1(  19)  ---------------------------------------


    POTLOK:  cpu time    6.1302: real time    6.1730
    SETDIJ:  cpu time    0.2223: real time    0.2233
    TRIAL :  cpu time   15.4770: real time   15.6086
    CORREC:  cpu time   11.7680: real time   11.8540
    CHARGE:  cpu time    2.2765: real time    2.2944
    --------------------------------------------
      LOOP:  cpu time   35.9383: real time   36.2192

 eigenvalue-minimisations  :     0
 total energy-change (2. order) :-0.6846152E-05  (-0.6465806E-05)
 number of electron     216.0000000 magnetization 
 augmentation part       -0.5056988 magnetization 

 Free energy of the ion-electron system (eV)
  ---------------------------------------------------
  alpha Z        PSCENC =        59.93625244
  Ewald energy   TEWEN  =     33525.66468612
  -Hartree energ DENC   =    -40576.00176954
  -exchange      EXHF   =         0.00000000
  -V(xc)+E(xc)   XCENC  =       648.83519299
  PAW double counting   =    146886.53824179  -146746.26903806
  entropy T*S    EENTRO =        -0.00000000
  eigenvalues    EBANDS =     -2694.20376047
  atomic energy  EATOM  =      8369.52358910
  ---------------------------------------------------
  free energy    TOTEN  =      -525.97660561 eV

  energy without entropy =     -525.97660561  energy(sigma->0) =     -525.97660561


--------------------------------------------------------------------------------------------------------




--------------------------------------- Iteration      1(  20)  ---------------------------------------


    POTLOK:  cpu time    6.1313: real time    6.1773
    SETDIJ:  cpu time    0.1890: real time    0.1896
    TRIAL :  cpu time   15.4863: real time   15.6320
    CORREC:  cpu time   11.7855: real time   11.8786
    CHARGE:  cpu time    2.2777: real time    2.3019
    --------------------------------------------
      LOOP:  cpu time   35.9039: real time   36.2206

 eigenvalue-minimisations  :     0
 total energy-change (2. order) :-0.8290517E-06  (-0.4287723E-05)
 number of electron     216.0000000 magnetization 
 augmentation part       -0.5056934 magnetization 

 Free energy of the ion-electron system (eV)
  ---------------------------------------------------
  alpha Z        PSCENC =        59.93625244
  Ewald energy   TEWEN  =     33525.66468612
  -Hartree energ DENC   =    -40576.03860687
  -exchange      EXHF   =         0.00000000
  -V(xc)+E(xc)   XCENC  =       648.83600149
  PAW double counting   =    146901.93634430  -146761.66670255
  entropy T*S    EENTRO =        -0.00000000
  eigenvalues    EBANDS =     -2694.16817049
  atomic energy  EATOM  =      8369.52358910
  ---------------------------------------------------
  free energy    TOTEN  =      -525.97660644 eV

  energy without entropy =     -525.97660644  energy(sigma->0) =     -525.97660644


--------------------------------------------------------------------------------------------------------




--------------------------------------- Iteration      1(  21)  ---------------------------------------


    POTLOK:  cpu time    6.1478: real time    6.1862
    SETDIJ:  cpu time    0.1895: real time    0.1901
    TRIAL :  cpu time   15.5066: real time   15.6220
    CORREC:  cpu time   11.7658: real time   11.8458
    CHARGE:  cpu time    2.2862: real time    2.3051
    --------------------------------------------
      LOOP:  cpu time   35.9376: real time   36.1935

 eigenvalue-minimisations  :     0
 total energy-change (2. order) :-0.4201749E-05  (-0.6442019E-06)
 number of electron     216.0000000 magnetization 
 augmentation part       -0.5056816 magnetization 

 Free energy of the ion-electron system (eV)
  ---------------------------------------------------
  alpha Z        PSCENC =        59.93625244
  Ewald energy   TEWEN  =     33525.66468612
  -Hartree energ DENC   =    -40576.03166167
  -exchange      EXHF   =         0.00000000
  -V(xc)+E(xc)   XCENC  =       648.83554192
  PAW double counting   =    146900.60180260  -146760.33219825
  entropy T*S    EENTRO =        -0.00000000
  eigenvalues    EBANDS =     -2694.17462291
  atomic energy  EATOM  =      8369.52358910
  ---------------------------------------------------
  free energy    TOTEN  =      -525.97661065 eV

  energy without entropy =     -525.97661065  energy(sigma->0) =     -525.97661065


--------------------------------------------------------------------------------------------------------




--------------------------------------- Iteration      1(  22)  ---------------------------------------


    POTLOK:  cpu time    6.1342: real time    6.1758
    SETDIJ:  cpu time    0.1937: real time    0.1944
    TRIAL :  cpu time   15.4838: real time   15.6098
    CORREC:  cpu time   11.7577: real time   11.8520
    CHARGE:  cpu time    2.2797: real time    2.3017
    --------------------------------------------
      LOOP:  cpu time   35.8595: real time   36.1735

 eigenvalue-minimisations  :     0
 total energy-change (2. order) :-0.6309419E-06  (-0.3850965E-07)
 number of electron     216.0000000 magnetization 
 augmentation part       -0.5056808 magnetization 

 Free energy of the ion-electron system (eV)
  ---------------------------------------------------
  alpha Z        PSCENC =        59.93625244
  Ewald energy   TEWEN  =     33525.66468612
  -Hartree energ DENC   =    -40576.03176174
  -exchange      EXHF   =         0.00000000
  -V(xc)+E(xc)   XCENC  =       648.83568520
  PAW double counting   =    146899.57267033  -146759.30320434
  entropy T*S    EENTRO =        -0.00000000
  eigenvalues    EBANDS =     -2694.17452839
  atomic energy  EATOM  =      8369.52358910
  ---------------------------------------------------
  free energy    TOTEN  =      -525.97661128 eV

  energy without entropy =     -525.97661128  energy(sigma->0) =     -525.97661128


--------------------------------------------------------------------------------------------------------




--------------------------------------- Iteration      1(  23)  ---------------------------------------


    POTLOK:  cpu time    6.1348: real time    6.1870
    SETDIJ:  cpu time    0.1720: real time    0.1727
    TRIAL :  cpu time   15.4810: real time   15.6226
    CORREC:  cpu time   11.7517: real time   11.8421
    EDDIAG:  cpu time    3.1939: real time    3.2259
    CHARGE:  cpu time    2.2879: real time    2.3053
    --------------------------------------------
      LOOP:  cpu time   39.0721: real time   39.4339

 eigenvalue-minimisations  :     0
 total energy-change (2. order) : 0.2735760E-07  (-0.2149354E-07)
 number of electron     216.0000000 magnetization 
 augmentation part       -0.5056807 magnetization 

 Free energy of the ion-electron system (eV)
  ---------------------------------------------------
  alpha Z        PSCENC =        59.93625244
  Ewald energy   TEWEN  =     33525.66468612
  -Hartree energ DENC   =    -40576.03001086
  -exchange      EXHF   =         0.00000000
  -V(xc)+E(xc)   XCENC  =       648.83561175
  PAW double counting   =    146899.61379432  -146759.34433579
  entropy T*S    EENTRO =        -0.00000000
  eigenvalues    EBANDS =     -2694.17619834
  atomic energy  EATOM  =      8369.52358910
  ---------------------------------------------------
  free energy    TOTEN  =      -525.97661125 eV

  energy without entropy =     -525.97661125  energy(sigma->0) =     -525.97661125


--------------------------------------------------------------------------------------------------------


  average scaling for gradient   0.7845


 average (electrostatic) potential at core
  the test charge radii are     0.5770  0.5955
  (the norm of the test charge is              1.0000)
       1 -87.7299       2 -87.7253       3 -87.7342       4 -87.7403       5 -87.7204
       6 -87.7167       7 -87.7315       8 -87.7203       9 -87.7219      10 -87.7294
      11 -87.7169      12 -87.7208      13 -87.7278      14 -87.7177      15 -87.7151
      16 -87.7185      17 -87.7223      18 -87.7265      19 -87.7259      20 -87.7213
      21 -87.7162      22 -87.7127      23 -87.7412      24 -87.7387      25 -87.7184
      26 -87.7194      27 -87.7194      28 -87.7292      29 -87.7184      30 -87.7150
      31 -87.7323      32 -87.7273      33 -87.7231      34 -87.7204      35 -87.7156
      36 -87.7209      37 -87.7195      38 -87.7258      39 -87.7257      40 -87.7266
      41 -87.7279      42 -87.7304      43 -87.7235      44 -87.7288      45 -87.7181
      46 -87.7171      47 -87.7213      48 -87.7185      49 -87.7265      50 -87.7249
      51 -91.7897      52-123.9216      53-123.9244
 
 
 
 E-fermi :  -4.0030     XC(G=0):  -2.3380     alpha+bet : -2.1113

 Fermi energy:        -4.0030458588

 k-point     1 :       0.0000    0.0000    0.0000
  band No.  band energies     occupation 
      1     -28.8467      2.00000
      2     -27.8215      2.00000
      3     -23.2335      2.00000
      4     -22.2528      2.00000
      5     -22.2500      2.00000
      6     -22.2457      2.00000
      7     -22.2455      2.00000
      8     -22.2427      2.00000
      9     -22.2425      2.00000
     10     -20.3164      2.00000
     11     -20.3161      2.00000
     12     -20.3140      2.00000
     13     -20.3137      2.00000
     14     -20.3128      2.00000
     15     -20.3127      2.00000
     16     -19.3798      2.00000
     17     -19.3793      2.00000
     18     -19.3791      2.00000
     19     -19.3781      2.00000
     20     -19.3778      2.00000
     21     -19.3773      2.00000
     22     -17.1594      2.00000
     23     -17.1589      2.00000
     24     -17.1577      2.00000
     25     -17.1570      2.00000
     26     -17.1542      2.00000
     27     -17.1539      2.00000
     28     -16.0005      2.00000
     29     -16.0002      2.00000
     30     -15.9984      2.00000
     31     -15.9981      2.00000
     32     -15.9979      2.00000
     33     -15.9978      2.00000
     34     -14.6070      2.00000
     35     -14.6067      2.00000
     36     -14.6065      2.00000
     37     -14.6057      2.00000
     38     -14.6057      2.00000
     39     -14.6042      2.00000
     40     -12.8019      2.00000
     41     -12.1476      2.00000
     42     -12.1474      2.00000
     43     -12.1465      2.00000
     44     -12.1464      2.00000
     45     -12.1459      2.00000
     46     -12.1459      2.00000
     47     -11.9315      2.00000
     48     -11.9313      2.00000
     49     -11.9294      2.00000
     50     -11.9292      2.00000
     51     -11.9268      2.00000
     52     -11.9264      2.00000
     53     -11.5261      2.00000
     54     -11.2821      2.00000
     55     -11.2691      2.00000
     56     -10.5938      2.00000
     57     -10.4835      2.00000
     58     -10.4834      2.00000
     59     -10.4829      2.00000
     60     -10.4828      2.00000
     61     -10.4818      2.00000
     62     -10.4817      2.00000
     63      -9.4302      2.00000
     64      -9.4297      2.00000
     65      -9.4228      2.00000
     66      -9.4224      2.00000
     67      -9.4189      2.00000
     68      -9.4177      2.00000
     69      -9.1839      2.00000
     70      -9.1829      2.00000
     71      -9.1827      2.00000
     72      -9.1824      2.00000
     73      -9.1817      2.00000
     74      -9.1806      2.00000
     75      -9.1803      2.00000
     76      -9.1801      2.00000
     77      -9.1800      2.00000
     78      -9.1784      2.00000
     79      -9.1779      2.00000
     80      -9.1771      2.00000
     81      -7.6840      2.00000
     82      -7.6756      2.00000
     83      -7.4769      2.00000
     84      -7.4761      2.00000
     85      -7.4749      2.00000
     86      -7.4743      2.00000
     87      -7.4709      2.00000
     88      -7.4704      2.00000
     89      -7.1874      2.00000
     90      -7.1868      2.00000
     91      -7.1803      2.00000
     92      -7.1788      2.00000
     93      -7.1786      2.00000
     94      -7.1715      2.00000
     95      -6.2423      2.00000
     96      -6.2397      2.00000
     97      -6.2380      2.00000
     98      -6.2341      2.00000
     99      -6.2334      2.00000
    100      -6.2316      2.00000
    101      -5.9585      2.00000
    102      -5.9562      2.00000
    103      -4.1428      2.00000
    104      -4.1414      2.00000
    105      -4.1389      2.00000
    106      -4.1381      2.00000
    107      -4.1338      2.00000
    108      -4.1335      2.00000
    109      -1.1683      0.00000
    110      -1.1680      0.00000
    111      -1.1627      0.00000
    112      -1.1623      0.00000
    113      -1.1607      0.00000
    114      -1.1601      0.00000
    115       0.8006      0.00000
    116       0.8101      0.00000
    117       0.8120      0.00000
    118       0.8138      0.00000
    119       0.8175      0.00000
    120       0.8192      0.00000
    121       0.8213      0.00000
    122       1.4582      0.00000
    123       1.5824      0.00000
    124       1.5908      0.00000
    125       1.9596      0.00000
    126       2.0039      0.00000
    127       2.2005      0.00000
    128       2.2779      0.00000
    129       2.2853      0.00000
    130       2.2871      0.00000
    131       2.3254      0.00000
    132       2.6916      0.00000
    133       2.6926      0.00000
    134       2.6976      0.00000
    135       2.6989      0.00000
    136       2.6993      0.00000
    137       2.6997      0.00000
    138       2.7413      0.00000
    139       2.9290      0.00000
    140       2.9776      0.00000
    141       3.0686      0.00000
    142       3.0814      0.00000
    143       3.0832      0.00000
    144       3.1176      0.00000
    145       3.2572      0.00000
    146       3.2828      0.00000
    147       3.3347      0.00000
    148       3.3566      0.00000
    149       3.3855      0.00000
    150       3.4268      0.00000
    151       3.5629      0.00000
    152       4.5375      0.00000
    153       4.6595      0.00000
    154       4.7452      0.00000
    155       4.9357      0.00000
    156       5.0803      0.00000
    157       5.2953      0.00000
    158       5.2972      0.00000
    159       5.2999      0.00000
    160       5.3022      0.00000
    161       5.3033      0.00000
    162       5.3039      0.00000
    163       5.3564      0.00000
    164       5.5570      0.00000
    165       5.6372      0.00000
    166       5.6757      0.00000
    167       5.7710      0.00000
    168       5.9124      0.00000


--------------------------------------------------------------------------------------------------------


 soft charge-density along one line, spin component           1
         0         1         2         3         4         5         6         7         8         9
 total charge-density along one line
 
 pseudopotential strength for first ion, spin component:           1
 12.630  21.251  -0.000   0.000   0.000  -0.000   0.000   0.000
 21.251  35.755  -0.000   0.000   0.000  -0.000   0.000   0.000
 -0.000  -0.000  -3.234   0.000   0.000  -5.794   0.000   0.000
  0.000   0.000   0.000  -3.238   0.000   0.000  -5.800   0.000
  0.000   0.000   0.000   0.000  -3.234   0.000   0.000  -5.794
 -0.000  -0.000  -5.794   0.000   0.000 -10.358   0.000   0.000
  0.000   0.000   0.000  -5.800   0.000   0.000 -10.368   0.000
  0.000   0.000   0.000   0.000  -5.794   0.000   0.000 -10.358
 total augmentation occupancy for first ion, spin component:           1
  9.643  -3.599   0.000  -0.002  -0.000  -0.000   0.001   0.000
 -3.599   1.374  -0.000   0.001   0.000   0.000  -0.000  -0.000
  0.000  -0.000   8.197  -0.009   0.001  -2.895   0.004  -0.000
 -0.002   0.001  -0.009   3.782  -0.000   0.004  -1.106   0.000
 -0.000   0.000   0.001  -0.000   8.195  -0.000   0.000  -2.895
 -0.000   0.000  -2.895   0.004  -0.000   1.036  -0.001   0.000
  0.001  -0.000   0.004  -1.106   0.000  -0.001   0.329   0.000
  0.000  -0.000  -0.000   0.000  -2.895   0.000   0.000   1.035


------------------------ aborting loop because EDIFF is reached ----------------------------------------


    FORLOC:  cpu time    0.1034: real time    0.1042
    FORNL :  cpu time    2.9109: real time    2.9333
    FORCOR:  cpu time    6.1901: real time    6.2346
    OFIELD:  cpu time    0.0022: real time    0.0022

 VOLUME and BASIS-vectors are now :
 -----------------------------------------------------------------------------
  energy-cutoff  :     1000.00
  volume of cell :     2631.08
      direct lattice vectors                 reciprocal lattice vectors
    12.325000000  0.000000000  0.000000000     0.081135903  0.046843835  0.000000000
    -6.162500000 10.673763102  0.000000000     0.000000000  0.093687670  0.000000000
     0.000000000  0.000000000 20.000000000     0.000000000  0.000000000  0.050000000

  length of vectors
    12.325000000 12.325000000 20.000000000     0.093687670  0.093687670  0.050000000


 FORCES acting on ions:
    Electron-Ion                     Ewald-Force                    Non-Local-Force
 -----------------------------------------------------------------------------------------------
   0.847E+01 0.740E+01 0.225E+02   -.847E+01 -.740E+01 -.225E+02   0.412E-02 0.341E-02 0.896E-02
   0.133E+02 0.653E+01 0.286E+02   -.133E+02 -.653E+01 -.286E+02   0.116E-01 0.617E-02 -.870E-02
   0.626E+01 0.163E+02 0.344E+02   -.626E+01 -.163E+02 -.344E+02   0.815E-02 0.415E-01 0.189E-01
   0.926E+01 0.135E+02 0.511E+02   -.930E+01 -.135E+02 -.511E+02   0.428E-01 0.278E-01 0.523E-01
   0.914E+01 0.215E+01 0.226E+02   -.914E+01 -.215E+01 -.226E+02   -.689E-02 0.463E-03 -.361E-02
   0.951E+01 -.170E+01 0.230E+02   -.950E+01 0.170E+01 -.230E+02   -.170E-01 0.992E-02 -.142E-01
   0.165E+02 0.638E+01 0.450E+02   -.165E+02 -.636E+01 -.450E+02   0.419E-01 -.249E-01 0.713E-02
   0.161E+02 -.560E+01 0.472E+02   -.161E+02 0.561E+01 -.472E+02   0.136E-01 -.916E-02 -.317E-01
   -.714E+01 0.148E+02 0.349E+02   0.715E+01 -.148E+02 -.349E+02   0.122E-02 0.269E-02 -.208E-01
   -.121E+02 0.103E+02 0.492E+02   0.122E+02 -.103E+02 -.492E+02   -.478E-01 0.454E-01 0.527E-03
   0.229E+01 -.209E+01 0.185E+02   -.228E+01 0.209E+01 -.185E+02   -.364E-02 -.672E-03 -.379E-02
   0.186E+01 -.152E+01 0.172E+02   -.186E+01 0.153E+01 -.172E+02   -.584E-02 -.448E-02 0.391E-02
   0.635E+01 -.144E+02 0.528E+02   -.641E+01 0.144E+02 -.528E+02   0.677E-01 -.191E-01 -.406E-02
   0.316E+01 -.163E+02 0.351E+02   -.318E+01 0.163E+02 -.351E+02   0.183E-01 -.324E-02 -.264E-01
   -.816E+01 0.510E+01 0.220E+02   0.816E+01 -.511E+01 -.220E+02   0.103E-01 -.278E-02 -.353E-02
   -.118E+02 0.339E+01 0.253E+02   0.118E+02 -.339E+01 -.253E+02   -.650E-02 0.133E-01 -.239E-01
   -.130E+01 -.511E+00 0.165E+02   0.130E+01 0.521E+00 -.165E+02   0.821E-03 -.166E-01 0.223E-02
   0.672E+00 0.469E+01 0.176E+02   -.673E+00 -.468E+01 -.176E+02   0.185E-02 -.981E-02 0.991E-02
   -.238E+01 -.141E+02 0.276E+02   0.236E+01 0.141E+02 -.276E+02   0.117E-01 -.167E-01 0.255E-02
   -.108E+01 -.718E+01 0.194E+02   0.108E+01 0.719E+01 -.194E+02   -.101E-01 -.148E-01 0.101E-03
   0.136E+02 -.596E+01 0.306E+02   -.136E+02 0.596E+01 -.306E+02   -.918E-03 0.178E-02 -.429E-01
   0.840E+01 -.717E+01 0.246E+02   -.840E+01 0.717E+01 -.245E+02   -.718E-02 0.115E-01 -.132E-01
   -.312E+01 0.647E+01 0.622E+02   0.314E+01 -.651E+01 -.622E+02   -.235E-01 0.429E-01 0.919E-01
   -.485E+01 -.102E+02 0.597E+02   0.483E+01 0.103E+02 -.597E+02   0.298E-01 -.341E-01 0.717E-01
   0.405E+01 -.174E+01 0.186E+02   -.405E+01 0.174E+01 -.186E+02   0.217E-02 -.736E-02 -.102E-01
   0.785E+00 0.362E+01 0.187E+02   -.790E+00 -.362E+01 -.187E+02   0.425E-02 -.208E-02 0.244E-02
   -.169E+02 0.213E+01 0.380E+02   0.169E+02 -.215E+01 -.380E+02   0.839E-03 0.250E-01 -.132E-01
   -.158E+02 -.655E+01 0.349E+02   0.158E+02 0.653E+01 -.350E+02   -.305E-01 0.204E-01 0.684E-02
   0.508E+01 -.103E+02 0.257E+02   -.509E+01 0.103E+02 -.256E+02   0.124E-01 0.313E-02 -.239E-01
   0.469E+00 -.398E+01 0.198E+02   -.476E+00 0.398E+01 -.198E+02   -.103E-02 0.220E-02 -.449E-02
   -.124E+02 -.132E+02 0.423E+02   0.124E+02 0.132E+02 -.423E+02   -.341E-01 -.237E-01 0.301E-01
   -.750E+01 -.137E+02 0.293E+02   0.750E+01 0.137E+02 -.293E+02   -.743E-02 -.307E-01 0.146E-01
   0.508E+00 0.199E+01 0.171E+02   -.501E+00 -.199E+01 -.171E+02   -.766E-02 -.282E-02 0.614E-02
   0.137E+01 0.200E+01 0.184E+02   -.137E+01 -.200E+01 -.184E+02   -.129E-01 0.856E-02 -.556E-02
   -.572E+01 0.762E+00 0.201E+02   0.572E+01 -.771E+00 -.201E+02   -.179E-02 0.553E-02 0.333E-02
   -.497E+01 -.201E+01 0.196E+02   0.497E+01 0.201E+01 -.195E+02   -.109E-01 0.606E-02 -.297E-02
   -.996E+01 -.517E+01 0.229E+02   0.998E+01 0.518E+01 -.229E+02   -.139E-01 -.765E-02 0.584E-02
   -.592E+01 -.477E+01 0.192E+02   0.593E+01 0.478E+01 -.192E+02   -.978E-02 -.136E-01 0.112E-01
   -.551E+01 -.717E+01 0.206E+02   0.552E+01 0.719E+01 -.206E+02   -.152E-01 -.235E-01 0.926E-02
   -.814E+00 -.174E+01 0.176E+02   0.820E+00 0.175E+01 -.176E+02   -.550E-02 -.157E-01 0.926E-02
   0.207E+01 0.502E+01 0.184E+02   -.207E+01 -.502E+01 -.184E+02   -.375E-02 -.287E-02 0.821E-02
   0.673E+01 0.105E+02 0.238E+02   -.674E+01 -.106E+02 -.238E+02   0.869E-02 0.881E-02 0.124E-01
   0.541E+00 0.880E+01 0.203E+02   -.541E+00 -.880E+01 -.203E+02   0.884E-02 0.123E-04 -.575E-03
   -.328E-01 0.156E+02 0.298E+02   0.432E-01 -.156E+02 -.298E+02   -.810E-02 0.122E-01 0.565E-02
   -.167E+01 0.328E+01 0.197E+02   0.167E+01 -.328E+01 -.197E+02   0.115E-01 -.639E-02 -.665E-02
   -.685E+01 0.862E+01 0.243E+02   0.685E+01 -.862E+01 -.243E+02   -.876E-03 0.477E-03 -.168E-01
   -.125E+01 -.346E+01 0.183E+02   0.125E+01 0.347E+01 -.183E+02   0.178E-02 -.468E-02 0.219E-02
   -.318E+01 0.128E+01 0.175E+02   0.318E+01 -.127E+01 -.175E+02   -.899E-02 -.164E-03 -.769E-02
   0.283E+00 -.215E+01 0.173E+02   -.277E+00 0.216E+01 -.173E+02   -.713E-02 -.125E-01 0.722E-02
   0.342E+01 0.248E+01 0.175E+02   -.342E+01 -.248E+01 -.175E+02   -.105E-01 0.213E-02 0.363E-02
   0.856E-01 -.685E-01 -.343E+03   -.750E-01 0.541E-01 0.343E+03   -.205E-01 0.207E-01 -.420E-01
   -.228E+03 0.155E+03 -.527E+03   0.279E+03 -.190E+03 0.530E+03   -.527E+02 0.358E+02 -.351E+01
   0.228E+03 -.155E+03 -.507E+03   -.279E+03 0.190E+03 0.504E+03   0.527E+02 -.358E+02 0.318E+01
 -----------------------------------------------------------------------------------------------
   0.283E-02 0.110E-02 0.287E+00   0.000E+00 0.284E-13 -.114E-12   -.270E-01 0.328E-02 -.252E+00
 
 
 POSITION                                       TOTAL-FORCE (eV/Angst)
 -----------------------------------------------------------------------------------
     11.98348      0.00342      0.01417        -0.006911      0.008201     -0.003561
     -0.34154      1.42665      0.01100        -0.015030      0.018395     -0.002526
      2.12355      0.00315      0.01249         0.011833      0.007938     -0.004434
      2.12326      1.42653      0.00641         0.016306      0.016494      0.007240
     10.75099      2.13819      0.01213        -0.006884      0.018295      0.000509
     -1.57382      3.56123      0.01110        -0.022518      0.015214     -0.000353
      0.89078      2.13854      0.00548         0.002442      0.020303      0.009486
      0.89099      3.56147      0.00181        -0.010574      0.013697      0.016781
      4.58864      0.00346      0.01135         0.027817     -0.014686     -0.000398
      4.58894      1.42623      0.00646         0.017417      0.020089      0.020321
      9.51854      4.27281      0.01369         0.017626     -0.000454      0.001125
     -2.80632      5.69591      0.01434        -0.006099     -0.017348      0.001443
      2.12300      4.27302      0.00000         0.006905      0.021588      0.026466
      2.12335      5.69594      0.00581         0.002546      0.003120      0.003692
      7.05344      0.00333      0.01399         0.006283     -0.013531      0.001201
      7.05353      1.42635      0.01368        -0.003985      0.013490     -0.003180
      8.28610      6.40752      0.01601         0.019649     -0.021717     -0.000974
     -4.03885      7.83070      0.01636         0.008114     -0.018516     -0.001545
      3.35586      6.40753      0.01007        -0.017801     -0.011547     -0.000514
      3.35599      7.83072      0.01320        -0.018159     -0.007402      0.000059
     -0.34146      4.27290      0.00723         0.004175      0.018866     -0.001165
     -0.34138      5.69591      0.00946        -0.010446      0.001306      0.003222
      3.35624      2.13791      0.00222         0.004595      0.022973      0.036869
      3.35573      3.56155      0.00139         0.023258      0.002403      0.028256
     -1.57395      6.40758      0.01311         0.028425     -0.014965     -0.000493
     -1.57385      7.83068      0.01438         0.010845     -0.002431      0.000515
      5.82093      2.13784      0.01033         0.018105      0.003597      0.003517
      5.82114      3.56097      0.01156         0.005351     -0.003318     -0.001497
      0.89092      6.40755      0.00907         0.003837     -0.001345     -0.001288
      0.89106      7.83068      0.01235        -0.008078      0.006657      0.003327
      4.58871      4.27293      0.00850        -0.012420      0.001359     -0.000238
      4.58852      5.69606      0.01149         0.000858     -0.018252     -0.001983
      9.51845      0.00337      0.01490        -0.017842     -0.006175     -0.000121
      9.51855      1.42644      0.01438        -0.030460      0.022824     -0.000008
      8.28593      2.13803      0.01453        -0.000263     -0.000487      0.002938
      8.28613      3.56115      0.01464        -0.012558     -0.004055     -0.000531
      7.05356      4.27269      0.01457         0.005172     -0.007949      0.002156
      7.05362      5.69588      0.01553        -0.001800     -0.030522     -0.000285
      5.82112      6.40755      0.01489        -0.014572     -0.018142     -0.000597
      5.82102      7.83073      0.01579        -0.005278     -0.019755     -0.001675
      7.05363      8.54227      0.01631        -0.002308     -0.011875     -0.000808
     -5.27149      9.96549      0.01495         0.000092     -0.001574     -0.004735
     -2.80638      8.54234      0.01558         0.029702     -0.015613     -0.001314
     -2.80627      9.96553      0.01362         0.021313      0.005272     -0.003932
     -0.34149      8.54239      0.01378         0.023825     -0.014423      0.000300
     -0.34138      9.96550      0.01354         0.011514      0.012957      0.000243
      2.12343      8.54232      0.01336        -0.012993     -0.013778      0.001101
      2.12354      9.96544      0.01469        -0.026345      0.015127     -0.001482
      4.58846      8.54235      0.01505        -0.020409     -0.016956      0.000386
      4.58853      9.96550      0.01517        -0.025562      0.007703     -0.000702
      3.04930      2.68154      3.74577        -0.026521      0.015850     -0.038375
      4.02070      2.02068      3.81019        -1.618336      1.080779     -0.146627
      2.07767      3.34267      3.68631         1.626148     -1.087684      0.054189
 -----------------------------------------------------------------------------------
    total drift:                               -0.024152      0.004382      0.034507


--------------------------------------------------------------------------------------------------------



  FREE ENERGIE OF THE ION-ELECTRON SYSTEM (eV)
  ---------------------------------------------------
  free  energy   TOTEN  =      -525.97661125 eV

  energy  without entropy=     -525.97661125  energy(sigma->0) =     -525.97661125
 


--------------------------------------------------------------------------------------------------------


    POTLOK:  cpu time    6.3197: real time    6.3634


--------------------------------------------------------------------------------------------------------


 writing wavefunctions
     LOOP+:  cpu time  825.3954: real time  833.1038
    4ORBIT:  cpu time    0.0000: real time    0.0000

 total amount of memory used by VASP MPI-rank0   556209. kBytes
=======================================================================

   base      :      30000. kBytes
   nonl-proj :     184518. kBytes
   fftplans  :      31725. kBytes
   grid      :     282516. kBytes
   one-center:        162. kBytes
   wavefun   :      27288. kBytes
 
  
  
 General timing and accounting informations for this job:
 ========================================================
  
                  Total CPU time used (sec):      861.315
                            User time (sec):      830.638
                          System time (sec):       30.677
                         Elapsed time (sec):      870.785
  
                   Maximum memory used (kb):     1188856.
                   Average memory used (kb):          N/A
  
                          Minor page faults:       374178
                          Major page faults:           85
                 Voluntary context switches:         3699
