 vasp.6.2.1 16May21 (build Nov 06 2021 14:46:37) complex                        
  
 executed on             LinuxIFC date 2025.04.17  00:45:20
 running on  112 total cores
 distrk:  each k-point on   56 cores,    2 groups
 distr:  one band on NCORE=   1 cores,   56 groups


--------------------------------------------------------------------------------------------------------


 INCAR:
   ALGO = Conjugate
   KPAR = 2
   NCORE = 32
   ISMEAR = 0
   SIGMA = 0.01
   PREC = Accurate
   EDIFF = 1E-7
   ENCUT = 1000
   ISIF = 0
   METAGGA = SCAN
   LUSE_VDW = .TRUE.
   BPARAM = 15.7
   LASPH = .TRUE.
   SYMPREC = 1E-7
   NELM = 200

 POTCAR:    PAW_PBE C_h 06Feb2004                 
 POTCAR:    PAW_PBE O_h 06Feb2004                 
 -----------------------------------------------------------------------------
|                                                                             |
|           W    W    AA    RRRRR   N    N  II  N    N   GGGG   !!!           |
|           W    W   A  A   R    R  NN   N  II  NN   N  G    G  !!!           |
|           W    W  A    A  R    R  N N  N  II  N N  N  G       !!!           |
|           W WW W  AAAAAA  RRRRR   N  N N  II  N  N N  G  GGG   !            |
|           WW  WW  A    A  R   R   N   NN  II  N   NN  G    G                |
|           W    W  A    A  R    R  N    N  II  N    N   GGGG   !!!           |
|                                                                             |
|     The value NCORE = 32 specified in the INCAR file was overwritten,       |
|     because it was not compatible with the 56 processes available:          |
|     NCORE = 1                                                               |
|     was used instead, please check that this makes sense for your           |
|     machine.                                                                |
|                                                                             |
 -----------------------------------------------------------------------------

 -----------------------------------------------------------------------------
|                                                                             |
|           W    W    AA    RRRRR   N    N  II  N    N   GGGG   !!!           |
|           W    W   A  A   R    R  NN   N  II  NN   N  G    G  !!!           |
|           W    W  A    A  R    R  N N  N  II  N N  N  G       !!!           |
|           W WW W  AAAAAA  RRRRR   N  N N  II  N  N N  G  GGG   !            |
|           WW  WW  A    A  R   R   N   NN  II  N   NN  G    G                |
|           W    W  A    A  R    R  N    N  II  N    N   GGGG   !!!           |
|                                                                             |
|     For optimal performance we recommend to set                             |
|       NCORE = 2 up to number-of-cores-per-socket                            |
|     NCORE specifies how many cores store one orbital (NPAR=cpu/NCORE).      |
|     This setting can greatly improve the performance of VASP for DFT.       |
|     The default, NCORE=1 might be grossly inefficient on modern             |
|     multi-core architectures or massively parallel machines. Do your        |
|     own testing! More info at https://www.vasp.at/wiki/index.php/NCORE      |
|     Unfortunately you need to use the default for GW and RPA                |
|     calculations (for HF NCORE is supported but not extensively tested      |
|     yet).                                                                   |
|                                                                             |
 -----------------------------------------------------------------------------

 -----------------------------------------------------------------------------
|                                                                             |
|               ----> ADVICE to this user running VASP <----                  |
|                                                                             |
|     You have switched on vdW-DFT.                                           |
|     This routine was written and supplied by Jiri Klimes. We recommend      |
|     that you carefully read and cite the following publications:            |
|       J. Klimes, D.R. Bowler, A. Michelides                                 |
|          J. Phys.: Cond Matt. 22 022201 (2010)                              |
|       J. Klimes, D.R. Bowler, A. Michelides                                 |
|          Phys. Rev. B. 83, 195131 (2011)                                    |
|     and references therein.                                                 |
|                                                                             |
 -----------------------------------------------------------------------------

 POTCAR:    PAW_PBE C_h 06Feb2004                 
   VRHFIN =C: s2p2                                                                                  
   LEXCH  = PE                                                                                      
   EATOM  =   147.1560 eV,   10.8157 Ry                                                             
                                                                                                    
   TITEL  = PAW_PBE C_h 06Feb2004                                                                   
   LULTRA =        F    use ultrasoft PP ?                                                          
   IUNSCR =        1    unscreen: 0-lin 1-nonlin 2-no                                               
   RPACOR =    0.800    partial core radius                                                         
   POMASS =   12.011; ZVAL   =    4.000    mass and valenz                                          
   RCORE  =    1.100    outmost cutoff radius                                                       
   RWIGS  =    1.630; RWIGS  =    0.863    wigner-seitz radius (au A)                               
   ENMAX  =  700.000; ENMIN  =  500.000 eV                                                          
   ICORE  =        2    local potential                                                             
   LCOR   =        T    correct aug charges                                                         
   LPAW   =        T    paw PP                                                                      
   EAUG   =  946.768                                                                                
   DEXC   =    0.000                                                                                
   RMAX   =    1.128    core radius for proj-oper                                                   
   RAUG   =    1.300    factor for augmentation sphere                                              
   RDEP   =    1.162    radius for radial grids                                                     
   RDEPT  =    1.088    core radius for aug-charge                                                  
                                                                                                    
   Atomic configuration                                                                             
    4 entries                                                                                       
     n  l   j            E        occ.                                                              
     1  0  0.50      -273.3789   2.0000                                                             
     2  0  0.50       -13.7508   2.0000                                                             
     2  1  0.50        -5.2854   2.0000                                                             
     3  2  1.50        -5.4423   0.0000                                                             
   Description                                                                                      
     l       E           TYP  RCUT    TYP  RCUT                                                     
     0    -13.7508458     23  1.100                                                                 
     0     -8.2022199     23  1.100                                                                 
     1     -5.2854383     23  1.100                                                                 
     1      1.1560700     23  1.100                                                                 
     2     -5.4423304      7  1.100                                                                 
  local pseudopotential read in
  partial core-charges read in
  partial kinetic energy density read in
  atomic valenz-charges read in
  non local Contribution for L=           0  read in
    real space projection operators read in
  non local Contribution for L=           0  read in
    real space projection operators read in
  non local Contribution for L=           1  read in
    real space projection operators read in
  non local Contribution for L=           1  read in
    real space projection operators read in
    PAW grid and wavefunctions read in
 
   number of l-projection  operators is LMAX  =           4
   number of lm-projection operators is LMMAX =           8
 
 POTCAR:    PAW_PBE O_h 06Feb2004                 
   VRHFIN =O: s2p4                                                                                  
   LEXCH  = PE                                                                                      
   EATOM  =   432.3788 eV,   31.7789 Ry                                                             
                                                                                                    
   TITEL  = PAW_PBE O_h 06Feb2004                                                                   
   LULTRA =        F    use ultrasoft PP ?                                                          
   IUNSCR =        1    unscreen: 0-lin 1-nonlin 2-no                                               
   RPACOR =    0.800    partial core radius                                                         
   POMASS =   16.000; ZVAL   =    6.000    mass and valenz                                          
   RCORE  =    1.100    outmost cutoff radius                                                       
   RWIGS  =    1.400; RWIGS  =    0.741    wigner-seitz radius (au A)                               
   ENMAX  =  700.000; ENMIN  =  500.000 eV                                                          
   ICORE  =        2    local potential                                                             
   LCOR   =        T    correct aug charges                                                         
   LPAW   =        T    paw PP                                                                      
   EAUG   =  888.804                                                                                
   DEXC   =    0.000                                                                                
   RMAX   =    1.128    core radius for proj-oper                                                   
   RAUG   =    1.300    factor for augmentation sphere                                              
   RDEP   =    1.125    radius for radial grids                                                     
   RDEPT  =    1.088    core radius for aug-charge                                                  
                                                                                                    
   Atomic configuration                                                                             
    4 entries                                                                                       
     n  l   j            E        occ.                                                              
     1  0  0.50      -514.6923   2.0000                                                             
     2  0  0.50       -23.9615   2.0000                                                             
     2  1  0.50        -9.0305   4.0000                                                             
     3  2  1.50        -9.5241   0.0000                                                             
   Description                                                                                      
     l       E           TYP  RCUT    TYP  RCUT                                                     
     0    -23.9615319     23  1.100                                                                 
     0    -25.3221145     23  1.100                                                                 
     1     -9.0304911     23  1.100                                                                 
     1     -5.4802209     23  1.100                                                                 
     2     -9.5240782      7  1.100                                                                 
  local pseudopotential read in
  partial core-charges read in
  partial kinetic energy density read in
  atomic valenz-charges read in
  non local Contribution for L=           0  read in
    real space projection operators read in
  non local Contribution for L=           0  read in
    real space projection operators read in
  non local Contribution for L=           1  read in
    real space projection operators read in
  non local Contribution for L=           1  read in
    real space projection operators read in
    PAW grid and wavefunctions read in
 
   number of l-projection  operators is LMAX  =           4
   number of lm-projection operators is LMMAX =           8
 
 -----------------------------------------------------------------------------
|                                                                             |
|               ----> ADVICE to this user running VASP <----                  |
|                                                                             |
|     You have a (more or less) 'large supercell' and for larger cells it     |
|     might be more efficient to use real-space projection operators.         |
|     Therefore, try LREAL= Auto in the INCAR file.                           |
|     Mind: For very accurate calculation, you might also keep the            |
|     reciprocal projection scheme (i.e. LREAL=.FALSE.).                      |
|                                                                             |
 -----------------------------------------------------------------------------

  PAW_PBE C_h 06Feb2004                 :
 energy of atom  1       EATOM= -147.1560
 kinetic energy error for atom=    0.0031 (will be added to EATOM!!)
  PAW_PBE O_h 06Feb2004                 :
 energy of atom  2       EATOM= -432.3788
 kinetic energy error for atom=    0.0171 (will be added to EATOM!!)
 
 
 POSCAR:  C  O
  positions in cartesian coordinates
  No initial velocities read in

 METAGGA = SCAN     LMAXTAU =  6    LMIXTAU =  F

 exchange correlation table for  LEXCH =        8
   RHO(1)=    0.500       N(1)  =     2000
   RHO(2)=  100.500       N(2)  =     4000
 


--------------------------------------------------------------------------------------------------------


 ion  position               nearest neighbor table
   1  0.972  0.000  0.001-  50 1.42   2 1.42  42 1.42
   2  0.039  0.134  0.000-   5 1.42   7 1.42   1 1.42
   3  0.172  0.000  0.000-  42 1.42  44 1.42   4 1.42
   4  0.239  0.134  0.000-   7 1.42   3 1.42  23 1.42
   5  0.972  0.200  0.000-   6 1.42   2 1.42  34 1.42
   6  0.039  0.334  0.000-   5 1.42  21 1.42  11 1.42
   7  0.172  0.200  0.000-   8 1.42   2 1.42   4 1.42
   8  0.239  0.334  0.000-  13 1.42   7 1.42  21 1.42
   9  0.372  0.000  0.000-  10 1.42  44 1.42  46 1.42
  10  0.439  0.134  0.000-  27 1.42   9 1.42  23 1.42
  11  0.972  0.400  0.001-  12 1.42  36 1.42   6 1.42
  12  0.039  0.534  0.001-  25 1.42  11 1.42  17 1.42
  13  0.372  0.400  0.000-   8 1.42  14 1.42  24 1.42
  14  0.439  0.534  0.000-  13 1.42  29 1.42  19 1.42
  15  0.572  0.000  0.001-  46 1.42  16 1.42  48 1.42
  16  0.639  0.134  0.001-  15 1.42  35 1.42  27 1.42
  17  0.972  0.600  0.001-  38 1.42  18 1.42  12 1.42
  18  0.039  0.734  0.001-  43 1.42  41 1.42  17 1.42
  19  0.572  0.600  0.000-  14 1.42  20 1.42  32 1.42
  20  0.639  0.734  0.001-  49 1.42  19 1.42  47 1.42
  21  0.172  0.400  0.000-  22 1.42   8 1.42   6 1.42
  22  0.239  0.534  0.000-  21 1.42  29 1.42  25 1.42
  23  0.372  0.200  0.000-  10 1.42   4 1.42  24 1.42
  24  0.439  0.334  0.000-  13 1.42  31 1.42  23 1.42
  25  0.172  0.600  0.001-  26 1.42  12 1.42  22 1.42
  26  0.239  0.734  0.001-  25 1.42  45 1.42  43 1.42
  27  0.572  0.200  0.000-  10 1.42  28 1.42  16 1.42
  28  0.639  0.334  0.000-  27 1.42  37 1.42  31 1.42
  29  0.372  0.600  0.000-  22 1.42  14 1.42  30 1.42
  30  0.439  0.734  0.000-  47 1.42  29 1.42  45 1.42
  31  0.572  0.400  0.000-  32 1.42  28 1.42  24 1.42
  32  0.639  0.534  0.000-  31 1.42  39 1.42  19 1.42
  33  0.772  0.000  0.001-  34 1.42  48 1.42  50 1.42
  34  0.839  0.134  0.001-  33 1.42   5 1.42  35 1.42
  35  0.772  0.200  0.001-  36 1.42  16 1.42  34 1.42
  36  0.839  0.334  0.001-  35 1.42  11 1.42  37 1.42
  37  0.772  0.400  0.001-  28 1.42  38 1.42  36 1.42
  38  0.839  0.534  0.001-  17 1.42  37 1.42  39 1.42
  39  0.772  0.600  0.001-  40 1.42  38 1.42  32 1.42
  40  0.839  0.734  0.001-  39 1.42  49 1.42  41 1.42
  41  0.972  0.800  0.001-  18 1.42  42 1.42  40 1.42
  42  0.039  0.934  0.001-   3 1.42  41 1.42   1 1.42
  43  0.172  0.800  0.001-  18 1.42  44 1.42  26 1.42
  44  0.239  0.934  0.001-   9 1.42  43 1.42   3 1.42
  45  0.372  0.800  0.001-  26 1.42  46 1.42  30 1.42
  46  0.439  0.934  0.001-  15 1.42  45 1.42   9 1.42
  47  0.572  0.800  0.001-  30 1.42  48 1.42  20 1.42
  48  0.639  0.934  0.001-  47 1.42  33 1.42  15 1.42
  49  0.772  0.800  0.001-  50 1.42  20 1.42  40 1.42
  50  0.839  0.934  0.001-  49 1.42   1 1.42  33 1.42
  51  0.373  0.251  0.300-  52 1.18  53 1.18
  52  0.421  0.189  0.302-  51 1.18
  53  0.325  0.313  0.297-  51 1.18
 
  LATTYP: Found a hexagonal cell.
 ALAT       =    12.3250000000
 C/A-ratio  =     2.0283975659
  
  Lattice vectors:
  
 A1 = (  12.3250000000,   0.0000000000,   0.0000000000)
 A2 = (  -6.1625000000,  10.6737631016,   0.0000000000)
 A3 = (   0.0000000000,   0.0000000000,  25.0000000000)


Analysis of symmetry for initial positions (statically):
=====================================================================
 Subroutine PRICEL returns:
 Original cell was already a primitive cell.
 

 Routine SETGRP: Setting up the symmetry group for a 
 hexagonal supercell.


 Subroutine GETGRP returns: Found  1 space group operations
 (whereof  1 operations were pure point group operations)
 out of a pool of 24 trial point group operations.


The static configuration has the point symmetry C_1 .


Analysis of symmetry for dynamics (positions and initial velocities):
=====================================================================
 Subroutine PRICEL returns:
 Original cell was already a primitive cell.
 

 Routine SETGRP: Setting up the symmetry group for a 
 hexagonal supercell.


 Subroutine GETGRP returns: Found  1 space group operations
 (whereof  1 operations were pure point group operations)
 out of a pool of 24 trial point group operations.


The dynamic configuration has the point symmetry C_1 .


 Subroutine INISYM returns: Found  1 space group operations
 (whereof  1 operations are pure point group operations),
 and found     1 'primitive' translations


----------------------------------------------------------------------------------------

                                     Primitive cell                                     

  volume of cell :    3288.8533

  direct lattice vectors                    reciprocal lattice vectors
    12.325000000  0.000000000  0.000000000     0.081135903  0.046843835  0.000000000
    -6.162500000 10.673763102  0.000000000     0.000000000  0.093687670  0.000000000
     0.000000000  0.000000000 25.000000000     0.000000000  0.000000000  0.040000000

  length of vectors
    12.325000000 12.325000000 25.000000000     0.093687670  0.093687670  0.040000000

  position of ions in fractional coordinates (direct lattice)
     0.972450841  0.000320818  0.000566711
     0.039118382  0.133659505  0.000440173
     0.172443627  0.000295449  0.000499628
     0.239096278  0.133647917  0.000256468
     0.972452058  0.200322012  0.000485219
     0.039128360  0.333643771  0.000444150
     0.172451764  0.200354552  0.000219167
     0.239124359  0.333665720  0.000072260
     0.372465565  0.000324403  0.000453913
     0.439137473  0.133619939  0.000258338
     0.972449824  0.400309362  0.000547611
     0.039124981  0.533636789  0.000573410
     0.372416176  0.400329481  0.000000000
     0.439099602  0.533638981  0.000232414
     0.572443676  0.000312125  0.000559580
     0.639110207  0.133631751  0.000547275
     0.972452703  0.600305653  0.000640289
     0.039124495  0.733640359  0.000654513
     0.572433471  0.600306242  0.000402895
     0.639111888  0.733641879  0.000527905
     0.172454630  0.400318228  0.000289045
     0.239120185  0.533636548  0.000378509
     0.372459750  0.200295993  0.000088997
     0.439107096  0.333673419  0.000055762
     0.172452155  0.600311506  0.000524340
     0.239123371  0.733638574  0.000575129
     0.572431082  0.200289171  0.000413296
     0.639112773  0.333618630  0.000462376
     0.372439808  0.600308022  0.000362844
     0.439116090  0.733637858  0.000494190
     0.572469358  0.400320504  0.000339918
     0.639119408  0.533650873  0.000459610
     0.772445723  0.000315427  0.000596161
     0.839116277  0.133640203  0.000575306
     0.772440513  0.200307432  0.000581033
     0.839120241  0.333635728  0.000585467
     0.772446320  0.400298367  0.000582978
     0.839118980  0.533633964  0.000621100
     0.772456143  0.600308173  0.000595712
     0.839115033  0.733643180  0.000631512
     0.972455313  0.800305582  0.000652233
     0.039114714  0.933643289  0.000598051
     0.172457971  0.800312211  0.000623372
     0.239134551  0.933647193  0.000544850
     0.372451396  0.800316674  0.000551399
     0.439124489  0.933644769  0.000541430
     0.572441101  0.800310054  0.000534535
     0.639115067  0.933638985  0.000587644
     0.772445098  0.800313187  0.000602062
     0.839116614  0.933644338  0.000606830
     0.373021009  0.251226878  0.299661415
     0.420879805  0.189313152  0.302238290
     0.325156981  0.313167186  0.297283220

  ion indices of the primitive-cell ions
   primitive index   ion index
                 1           1
                 2           2
                 3           3
                 4           4
                 5           5
                 6           6
                 7           7
                 8           8
                 9           9
                10          10
                11          11
                12          12
                13          13
                14          14
                15          15
                16          16
                17          17
                18          18
                19          19
                20          20
                21          21
                22          22
                23          23
                24          24
                25          25
                26          26
                27          27
                28          28
                29          29
                30          30
                31          31
                32          32
                33          33
                34          34
                35          35
                36          36
                37          37
                38          38
                39          39
                40          40
                41          41
                42          42
                43          43
                44          44
                45          45
                46          46
                47          47
                48          48
                49          49
                50          50
                51          51
                52          52
                53          53

----------------------------------------------------------------------------------------

 
 
 KPOINTS: auto                                    

Automatic generation of k-mesh.
 Grid dimensions read from file:
 generate k-points for:    1    1    1

 Generating k-lattice:

  Cartesian coordinates                     Fractional coordinates (reciprocal lattice)
     0.081135903  0.046843835  0.000000000     1.000000000 -0.000000000  0.000000000
     0.000000000  0.093687670  0.000000000     0.000000000  1.000000000  0.000000000
     0.000000000  0.000000000  0.040000000     0.000000000  0.000000000  1.000000000

  Length of vectors
     0.093687670  0.093687670  0.040000000

  Shift w.r.t. Gamma in fractional coordinates (k-lattice)
     0.000000000  0.000000000  0.000000000

 
 Subroutine IBZKPT returns following result:
 ===========================================
 
 Found      1 irreducible k-points:
 
 Following reciprocal coordinates:
            Coordinates               Weight
  0.000000  0.000000  0.000000      1.000000
 
 Following cartesian coordinates:
            Coordinates               Weight
  0.000000  0.000000  0.000000      1.000000
 


--------------------------------------------------------------------------------------------------------




 Dimension of arrays:
   k-points           NKPTS =      1   k-points in BZ     NKDIM =      1   number of bands    NBANDS=    168
   number of dos      NEDOS =    301   number of ions     NIONS =     53
   non local maximal  LDIM  =      4   non local SUM 2l+1 LMDIM =      8
   total plane-waves  NPLWV = ******
   max r-space proj   IRMAX =      1   max aug-charges    IRDMAX=  10008
   dimension x,y,z NGX =   128 NGY =  128 NGZ =  270
   dimension x,y,z NGXF=   256 NGYF=  256 NGZF=  540
   support grid    NGXF=   256 NGYF=  256 NGZF=  540
   ions per type =              51   2
   NGX,Y,Z   is equivalent  to a cutoff of  17.27, 17.27, 17.95 a.u.
   NGXF,Y,Z  is equivalent  to a cutoff of  34.53, 34.53, 35.91 a.u.

 SYSTEM =  unknown system                          
 POSCAR =   C  O                                   

 Startparameter for this run:
   NWRITE =      2    write-flag & timer
   PREC   = accura    normal or accurate (medium, high low for compatibility)
   ISTART =      0    job   : 0-new  1-cont  2-samecut
   ICHARG =      2    charge: 1-file 2-atom 10-const
   ISPIN  =      1    spin polarized calculation?
   LNONCOLLINEAR =      F non collinear calculations
   LSORBIT =      F    spin-orbit coupling
   INIWAV =      1    electr: 0-lowe 1-rand  2-diag
   LASPH  =      T    aspherical Exc in radial PAW
 Electronic Relaxation 1
   ENCUT  = 1000.0 eV  73.50 Ry    8.57 a.u.  31.78 31.78 64.46*2*pi/ulx,y,z
   ENINI  = 1000.0     initial cutoff
   ENAUG  =  946.8 eV  augmentation charge cutoff
   NELM   =    200;   NELMIN=  2; NELMDL= -5     # of ELM steps 
   EDIFF  = 0.1E-06   stopping-criterion for ELM
   LREAL  =      F    real-space projection
   NLSPLINE    = F    spline interpolate recip. space projectors
   LCOMPAT=      F    compatible to vasp.4.4
   GGA_COMPAT  = T    GGA compatible to vasp.4.4-vasp.4.6
   LMAXPAW     = -100 max onsite density
   LMAXMIX     =    2 max onsite mixed and CHGCAR
   VOSKOWN=      0    Vosko Wilk Nusair interpolation
   ROPT   =    0.00000   0.00000
 Ionic relaxation
   EDIFFG = 0.1E-05   stopping-criterion for IOM
   NSW    =      0    number of steps for IOM
   NBLOCK =      1;   KBLOCK =      1    inner block; outer block 
   IBRION =     -1    ionic relax: 0-MD 1-quasi-New 2-CG
   NFREE  =      0    steps in history (QN), initial steepest desc. (CG)
   ISIF   =      0    stress and relaxation
   IWAVPR =     10    prediction:  0-non 1-charg 2-wave 3-comb
   ISYM   =      2    0-nonsym 1-usesym 2-fastsym
   LCORR  =      T    Harris-Foulkes like correction to forces

   POTIM  = 0.5000    time-step for ionic-motion
   TEIN   =    0.0    initial temperature
   TEBEG  =    0.0;   TEEND  =   0.0 temperature during run
   SMASS  =  -3.00    Nose mass-parameter (am)
   estimated Nose-frequenzy (Omega)   =  0.10E-29 period in steps = 0.13E+47 mass=  -0.347E-26a.u.
   SCALEE = 1.0000    scale energy and forces
   NPACO  =    256;   APACO  = 16.0  distance and # of slots for P.C.
   PSTRESS=    0.0 pullay stress

  Mass of Ions in am
   POMASS =  12.01 16.00
  Ionic Valenz
   ZVAL   =   4.00  6.00
  Atomic Wigner-Seitz radii
   RWIGS  =  -1.00 -1.00
  virtual crystal weights 
   VCA    =   1.00  1.00
   NELECT =     216.0000    total number of electrons
   NUPDOWN=      -1.0000    fix difference up-down

 DOS related values:
   EMIN   =  10.00;   EMAX   =-10.00  energy-range for DOS
   EFERMI =   0.00
   ISMEAR =     0;   SIGMA  =   0.01  broadening in eV -4-tet -1-fermi 0-gaus

 Electronic relaxation 2 (details)
   IALGO  =     58    algorithm
   LDIAG  =      T    sub-space diagonalisation (order eigenvalues)
   LSUBROT=      F    optimize rotation matrix (better conditioning)
   TURBO    =      0    0=normal 1=particle mesh
   IRESTART =      0    0=no restart 2=restart with 2 vectors
   NREBOOT  =      0    no. of reboots
   NMIN     =      0    reboot dimension
   EREF     =   0.00    reference energy to select bands
   IMIX   =      4    mixing-type and parameters
     AMIX     =   0.40;   BMIX     =  1.00
     AMIX_MAG =   1.60;   BMIX_MAG =  1.00
     AMIN     =   0.10
     WC   =   100.;   INIMIX=   1;  MIXPRE=   1;  MAXMIX= -45

 Intra band minimization:
   WEIMIN = 0.0000     energy-eigenvalue tresh-hold
   EBREAK =  0.15E-09  absolut break condition
   DEPER  =   0.30     relativ break condition  

   TIME   =   0.40     timestep for ELM

  volume/ion in A,a.u.               =      62.05       418.76
  Fermi-wavevector in a.u.,A,eV,Ry     =   0.660508  1.248179  5.935820  0.436270
  Thomas-Fermi vector in A             =   1.732977
 
 Write flags
   LWAVE        =      T    write WAVECAR
   LDOWNSAMPLE  =      F    k-point downsampling of WAVECAR
   LCHARG       =      T    write CHGCAR
   LVTOT        =      F    write LOCPOT, total local potential
   LVHAR        =      F    write LOCPOT, Hartree potential only
   LELF         =      F    write electronic localiz. function (ELF)
   LORBIT       =      0    0 simple, 1 ext, 2 COOP (PROOUT), +10 PAW based schemes


 Dipole corrections
   LMONO  =      F    monopole corrections only (constant potential shift)
   LDIPOL =      F    correct potential (dipole corrections)
   IDIPOL =      0    1-x, 2-y, 3-z, 4-all directions 
   EPSILON=  1.0000000 bulk dielectric constant

 Exchange correlation treatment:
   GGA     =    --    GGA type
   LEXCH   =     8    internal setting for exchange type
   VOSKOWN=      0    Vosko Wilk Nusair interpolation
   LHFCALC =     F    Hartree Fock is set to
   LHFONE  =     F    Hartree Fock one center treatment
   AEXX    =    0.0000 exact exchange contribution

 vdW DFT:
   LUSE_VDW   =     T    switch on vdW DFT
   Zab_VDW    =-.8491    correlation parameter
   PARAM1     =0.1234
   PARAM2     =1.0000
   PARAM3     =0.0000
   -- rVV10 --
   BPARAM     =15.7000
   CPARAM     = 0.0093

 Linear response parameters
   LEPSILON=     F    determine dielectric tensor
   LRPA    =     F    only Hartree local field effects (RPA)
   LNABLA  =     F    use nabla operator in PAW spheres
   LVEL    =     F    velocity operator in full k-point grid
   LINTERFAST=   F  fast interpolation
   KINTER  =     0    interpolate to denser k-point grid
   CSHIFT  =0.1000    complex shift for real part using Kramers Kronig
   OMEGAMAX=  -1.0    maximum frequency
   DEG_THRESHOLD= 0.2000000E-02 threshold for treating states as degnerate
   RTIME   =   -0.100 relaxation time in fs
  (WPLASMAI=    0.000 imaginary part of plasma frequency in eV, 0.658/RTIME)
   DFIELD  = 0.0000000 0.0000000 0.0000000 field for delta impulse in time
 
 Orbital magnetization related:
   ORBITALMAG=     F  switch on orbital magnetization
   LCHIMAG   =     F  perturbation theory with respect to B field
   DQ        =  0.001000  dq finite difference perturbation B field
   LLRAUG    =     F  two centre corrections for induced B field



--------------------------------------------------------------------------------------------------------


 Static calculation
 charge density and potential will be updated during run
 non-spin polarized calculation
 Conjugate gradient for all bands (Freysoldt, et al. PRB 79, 241103 (2009))
 preconditioned conjugated gradient                                        
 perform sub-space diagonalisation
    before iterative eigenvector-optimisation
 modified Broyden-mixing scheme, WC =      100.0
 initial mixing is a Kerker type mixing with AMIX =  0.4000 and BMIX =      1.0000
 Hartree-type preconditioning will be used
 using additional bands           60
 reciprocal scheme for non local part
 use partial core corrections
 no Harris-corrections to forces 
 use gradient corrections 
 use of overlap-Matrix (Vanderbilt PP)
 Gauss-broadening in eV      SIGMA  =   0.01


--------------------------------------------------------------------------------------------------------


  energy-cutoff  :     1000.00
  volume of cell :     3288.85
      direct lattice vectors                 reciprocal lattice vectors
    12.325000000  0.000000000  0.000000000     0.081135903  0.046843835  0.000000000
    -6.162500000 10.673763102  0.000000000     0.000000000  0.093687670  0.000000000
     0.000000000  0.000000000 25.000000000     0.000000000  0.000000000  0.040000000

  length of vectors
    12.325000000 12.325000000 25.000000000     0.093687670  0.093687670  0.040000000


 
 k-points in units of 2pi/SCALE and weight: auto                                    
   0.00000000  0.00000000  0.00000000       1.000
 
 k-points in reciprocal lattice and weights: auto                                    
   0.00000000  0.00000000  0.00000000       1.000
 
 position of ions in fractional coordinates (direct lattice) 
   0.97245084  0.00032082  0.00056671
   0.03911838  0.13365950  0.00044017
   0.17244363  0.00029545  0.00049963
   0.23909628  0.13364792  0.00025647
   0.97245206  0.20032201  0.00048522
   0.03912836  0.33364377  0.00044415
   0.17245176  0.20035455  0.00021917
   0.23912436  0.33366572  0.00007226
   0.37246557  0.00032440  0.00045391
   0.43913747  0.13361994  0.00025834
   0.97244982  0.40030936  0.00054761
   0.03912498  0.53363679  0.00057341
   0.37241618  0.40032948  0.00000000
   0.43909960  0.53363898  0.00023241
   0.57244368  0.00031213  0.00055958
   0.63911021  0.13363175  0.00054727
   0.97245270  0.60030565  0.00064029
   0.03912449  0.73364036  0.00065451
   0.57243347  0.60030624  0.00040289
   0.63911189  0.73364188  0.00052791
   0.17245463  0.40031823  0.00028904
   0.23912018  0.53363655  0.00037851
   0.37245975  0.20029599  0.00008900
   0.43910710  0.33367342  0.00005576
   0.17245216  0.60031151  0.00052434
   0.23912337  0.73363857  0.00057513
   0.57243108  0.20028917  0.00041330
   0.63911277  0.33361863  0.00046238
   0.37243981  0.60030802  0.00036284
   0.43911609  0.73363786  0.00049419
   0.57246936  0.40032050  0.00033992
   0.63911941  0.53365087  0.00045961
   0.77244572  0.00031543  0.00059616
   0.83911628  0.13364020  0.00057531
   0.77244051  0.20030743  0.00058103
   0.83912024  0.33363573  0.00058547
   0.77244632  0.40029837  0.00058298
   0.83911898  0.53363396  0.00062110
   0.77245614  0.60030817  0.00059571
   0.83911503  0.73364318  0.00063151
   0.97245531  0.80030558  0.00065223
   0.03911471  0.93364329  0.00059805
   0.17245797  0.80031221  0.00062337
   0.23913455  0.93364719  0.00054485
   0.37245140  0.80031667  0.00055140
   0.43912449  0.93364477  0.00054143
   0.57244110  0.80031005  0.00053453
   0.63911507  0.93363899  0.00058764
   0.77244510  0.80031319  0.00060206
   0.83911661  0.93364434  0.00060683
   0.37302101  0.25122688  0.29966142
   0.42087980  0.18931315  0.30223829
   0.32515698  0.31316719  0.29728322
 
 position of ions in cartesian coordinates  (Angst):
  11.98347958  0.00342433  0.01416777
  -0.34154264  1.42664989  0.01100432
   2.12354700  0.00315355  0.01249070
   2.12325634  1.42652621  0.00641170
  10.75098721  2.13818970  0.01213047
  -1.57382270  3.56123457  0.01110375
   0.89078307  2.13853702  0.00547917
   0.89099273  3.56146885  0.00180651
   4.58863896  0.00346260  0.01134782
   4.58893648  1.42622757  0.00645846
   9.51853763  4.27280730  0.01369027
  -2.80632132  5.69591267  0.01433526
   2.12299894  4.27302204  0.00000000
   2.12335237  5.69593607  0.00581036
   7.05344483  0.00333155  0.01398950
   7.05352764  1.42635365  0.01368187
   8.28609598  6.40752033  0.01600723
  -4.03884931  7.83070339  0.01636283
   3.35585531  6.40752662  0.01007237
   3.35598594  7.83071962  0.01319763
  -0.34145776  4.27290193  0.00722612
  -0.34137895  5.69591010  0.00946273
   3.35624236  2.13791198  0.00222492
   3.35573251  3.56155103  0.00139405
  -1.57394684  6.40758280  0.01310850
  -1.57385216  7.83068434  0.01437823
   5.82093107  2.13783916  0.01033241
   5.82114012  3.56096622  0.01155939
   0.89092245  6.40754561  0.00907111
   0.89106251  7.83067670  0.01235474
   4.58870974  4.27292622  0.00849795
   4.58852320  5.69606300  0.01149026
   9.51844972  0.00336679  0.01490402
   9.51855036  1.42644387  0.01438264
   8.28593477  2.13803408  0.01452582
   8.28612680  3.56114872  0.01463668
   7.05356221  4.27268994  0.01457444
   7.05362213  5.69588251  0.01552751
   5.82112285  6.40754723  0.01489279
   5.82101669  7.83073350  0.01578780
   7.05362858  8.54227219  0.01630582
  -5.27148792  9.96548729  0.01495127
  -2.80637951  8.54234295  0.01558431
  -2.80626749  9.96552896  0.01362126
  -0.34148805  8.54239058  0.01378498
  -0.34137657  9.96550309  0.01353576
   2.12342586  8.54231992  0.01336337
   2.12354296  9.96544135  0.01469111
   4.58845581  8.54235337  0.01505154
   4.58852904  9.96549848  0.01517076
   3.04929830  2.68153618  7.49153538
   4.02070129  2.02068374  7.55595724
   2.07766701  3.34267235  7.43208051
 


--------------------------------------------------------------------------------------------------------


 k-point   1 :   0.0000 0.0000 0.0000  plane waves:  236157

 maximum and minimum number of plane-waves per node :    236157   236157

 maximum number of plane-waves:    236157
 maximum index in each direction: 
   IXMAX=   31   IYMAX=   31   IZMAX=   64
   IXMIN=  -31   IYMIN=  -31   IZMIN=  -64


 serial   3D FFT for wavefunctions
 parallel 3D FFT for charge:
    minimum data exchange during FFTs selected (reduces bandwidth)


 total amount of memory used by VASP MPI-rank0   698619. kBytes
=======================================================================

   base      :      30000. kBytes
   nonl-proj :     230539. kBytes
   fftplans  :      40716. kBytes
   grid      :     363125. kBytes
   one-center:        162. kBytes
   wavefun   :      34077. kBytes
 
     INWAV:  cpu time    0.0000: real time    0.0000
 Broyden mixing: mesh for mixing (old mesh)
   NGX = 63   NGY = 63   NGZ =129
  (NGX  =256   NGY  =256   NGZ  =540)
  gives a total of 512001 points

 initial charge density was supplied:
 charge density of overlapping atoms calculated
 number of electron     216.0000000 magnetization 
 keeping initial charge density in first step


--------------------------------------------------------------------------------------------------------


 Maximum index for augmentation-charges          471 (set IRDMAX)


--------------------------------------------------------------------------------------------------------


 First call to EWALD:  gamma=   0.119
 Maximum number of real-space cells 4x 4x 2
 Maximum number of reciprocal cells 2x 2x 4

    FEWALD:  cpu time    0.0024: real time    0.0024


--------------------------------------- Iteration      1(   1)  ---------------------------------------


    POTLOK:  cpu time    8.4861: real time    8.5461
    SETDIJ:  cpu time    0.0029: real time    0.0029
    TRIAL :  cpu time   31.5409: real time   31.8484
    CORREC:  cpu time    0.0006: real time    0.0007
    --------------------------------------------
      LOOP:  cpu time   40.0413: real time   40.4358

 eigenvalue-minimisations  :   336
 total energy-change (2. order) : 0.2533908E+04  (-0.1079825E+05)
 number of electron     216.0000000 magnetization 
 augmentation part      216.0000000 magnetization 

 Free energy of the ion-electron system (eV)
  ---------------------------------------------------
  alpha Z        PSCENC =        47.94900195
  Ewald energy   TEWEN  =     42045.44139955
  -Hartree energ DENC   =    -48114.65086350
  -exchange      EXHF   =         0.00000000
  -V(xc)+E(xc)   XCENC  =       604.24552661
  PAW double counting   =      6339.73130699    -6197.22120962
  entropy T*S    EENTRO =        -0.00000000
  eigenvalues    EBANDS =      -561.11115707
  atomic energy  EATOM  =      8369.52358910
  ---------------------------------------------------
  free energy    TOTEN  =      2533.90759401 eV

  energy without entropy =     2533.90759402  energy(sigma->0) =     2533.90759401


--------------------------------------------------------------------------------------------------------




--------------------------------------- Iteration      1(   2)  ---------------------------------------


    TRIAL :  cpu time   44.8425: real time   45.1966
    CORREC:  cpu time    0.0001: real time    0.0001
    --------------------------------------------
      LOOP:  cpu time   44.9017: real time   45.2595

 eigenvalue-minimisations  :   560
 total energy-change (2. order) :-0.2479191E+04  (-0.2325412E+04)
 number of electron     216.0000000 magnetization 
 augmentation part      216.0000000 magnetization 

 Free energy of the ion-electron system (eV)
  ---------------------------------------------------
  alpha Z        PSCENC =        47.94900195
  Ewald energy   TEWEN  =     42045.44139955
  -Hartree energ DENC   =    -48114.65086350
  -exchange      EXHF   =         0.00000000
  -V(xc)+E(xc)   XCENC  =       604.24552661
  PAW double counting   =      6339.73130699    -6197.22120962
  entropy T*S    EENTRO =        -0.00000000
  eigenvalues    EBANDS =     -3040.30191927
  atomic energy  EATOM  =      8369.52358910
  ---------------------------------------------------
  free energy    TOTEN  =        54.71683181 eV

  energy without entropy =       54.71683181  energy(sigma->0) =       54.71683181


--------------------------------------------------------------------------------------------------------




--------------------------------------- Iteration      1(   3)  ---------------------------------------


    TRIAL :  cpu time   34.8726: real time   35.1302
    CORREC:  cpu time    0.0001: real time    0.0001
    --------------------------------------------
      LOOP:  cpu time   34.9377: real time   35.1966

 eigenvalue-minimisations  :   392
 total energy-change (2. order) :-0.6355014E+03  (-0.6324485E+03)
 number of electron     216.0000000 magnetization 
 augmentation part      216.0000000 magnetization 

 Free energy of the ion-electron system (eV)
  ---------------------------------------------------
  alpha Z        PSCENC =        47.94900195
  Ewald energy   TEWEN  =     42045.44139955
  -Hartree energ DENC   =    -48114.65086350
  -exchange      EXHF   =         0.00000000
  -V(xc)+E(xc)   XCENC  =       604.24552661
  PAW double counting   =      6339.73130699    -6197.22120962
  entropy T*S    EENTRO =        -0.00000000
  eigenvalues    EBANDS =     -3675.80328833
  atomic energy  EATOM  =      8369.52358910
  ---------------------------------------------------
  free energy    TOTEN  =      -580.78453725 eV

  energy without entropy =     -580.78453725  energy(sigma->0) =     -580.78453725


--------------------------------------------------------------------------------------------------------




--------------------------------------- Iteration      1(   4)  ---------------------------------------


    TRIAL :  cpu time   38.1312: real time   38.4925
    CORREC:  cpu time    0.0001: real time    0.0001
    --------------------------------------------
      LOOP:  cpu time   38.2043: real time   38.5661

 eigenvalue-minimisations  :   448
 total energy-change (2. order) :-0.3337402E+02  (-0.3313119E+02)
 number of electron     216.0000000 magnetization 
 augmentation part      216.0000000 magnetization 

 Free energy of the ion-electron system (eV)
  ---------------------------------------------------
  alpha Z        PSCENC =        47.94900195
  Ewald energy   TEWEN  =     42045.44139955
  -Hartree energ DENC   =    -48114.65086350
  -exchange      EXHF   =         0.00000000
  -V(xc)+E(xc)   XCENC  =       604.24552661
  PAW double counting   =      6339.73130699    -6197.22120962
  entropy T*S    EENTRO =        -0.00000000
  eigenvalues    EBANDS =     -3709.17731193
  atomic energy  EATOM  =      8369.52358910
  ---------------------------------------------------
  free energy    TOTEN  =      -614.15856085 eV

  energy without entropy =     -614.15856085  energy(sigma->0) =     -614.15856085


--------------------------------------------------------------------------------------------------------




--------------------------------------- Iteration      1(   5)  ---------------------------------------


    TRIAL :  cpu time   38.1655: real time   38.5036
    CORREC:  cpu time    0.0001: real time    0.0001
    CHARGE:  cpu time    3.2534: real time    3.2772
    --------------------------------------------
      LOOP:  cpu time   41.4491: real time   41.8165

 eigenvalue-minimisations  :   448
 total energy-change (2. order) :-0.1151176E+01  (-0.1146391E+01)
 number of electron     216.0000000 magnetization 
 augmentation part       -0.4334788 magnetization 

 Free energy of the ion-electron system (eV)
  ---------------------------------------------------
  alpha Z        PSCENC =        47.94900195
  Ewald energy   TEWEN  =     42045.44139955
  -Hartree energ DENC   =    -48114.65086350
  -exchange      EXHF   =         0.00000000
  -V(xc)+E(xc)   XCENC  =       604.24552661
  PAW double counting   =      6339.73130699    -6197.22120962
  entropy T*S    EENTRO =        -0.00000000
  eigenvalues    EBANDS =     -3710.32848822
  atomic energy  EATOM  =      8369.52358910
  ---------------------------------------------------
  free energy    TOTEN  =      -615.30973714 eV

  energy without entropy =     -615.30973714  energy(sigma->0) =     -615.30973714


--------------------------------------------------------------------------------------------------------




--------------------------------------- Iteration      1(   6)  ---------------------------------------


    POTLOK:  cpu time    8.3814: real time    8.4340
    SETDIJ:  cpu time    0.0022: real time    0.0022
    TRIAL :  cpu time   22.4012: real time   22.5650
    CORREC:  cpu time   16.1328: real time   16.2472
    CHARGE:  cpu time    3.2437: real time    3.2702
    --------------------------------------------
      LOOP:  cpu time   50.2518: real time   50.6280

 eigenvalue-minimisations  :     0
 total energy-change (2. order) : 0.1039141E+03  (-0.1208240E+02)
 number of electron     216.0000000 magnetization 
 augmentation part       -0.4892052 magnetization 

 Free energy of the ion-electron system (eV)
  ---------------------------------------------------
  alpha Z        PSCENC =        47.94900195
  Ewald energy   TEWEN  =     42045.44139955
  -Hartree energ DENC   =    -49471.12798963
  -exchange      EXHF   =         0.00000000
  -V(xc)+E(xc)   XCENC  =       671.02048574
  PAW double counting   =    113998.54292682  -113861.74843365
  entropy T*S    EENTRO =        -0.00000000
  eigenvalues    EBANDS =     -2310.99660213
  atomic energy  EATOM  =      8369.52358910
  ---------------------------------------------------
  free energy    TOTEN  =      -511.39562225 eV

  energy without entropy =     -511.39562225  energy(sigma->0) =     -511.39562225


--------------------------------------------------------------------------------------------------------




--------------------------------------- Iteration      1(   7)  ---------------------------------------


    POTLOK:  cpu time    8.3573: real time    8.4144
    SETDIJ:  cpu time    0.0023: real time    0.0023
    TRIAL :  cpu time   22.3849: real time   22.5606
    CORREC:  cpu time   16.1510: real time   16.2664
    CHARGE:  cpu time    3.2449: real time    3.2676
    --------------------------------------------
      LOOP:  cpu time   50.1720: real time   50.5546

 eigenvalue-minimisations  :     0
 total energy-change (2. order) :-0.1209868E+02  (-0.1562243E+01)
 number of electron     216.0000000 magnetization 
 augmentation part       -0.5196756 magnetization 

 Free energy of the ion-electron system (eV)
  ---------------------------------------------------
  alpha Z        PSCENC =        47.94900195
  Ewald energy   TEWEN  =     42045.44139955
  -Hartree energ DENC   =    -49041.98196991
  -exchange      EXHF   =         0.00000000
  -V(xc)+E(xc)   XCENC  =       651.10347226
  PAW double counting   =    131987.57561452  -131848.03673133
  entropy T*S    EENTRO =        -0.00000000
  eigenvalues    EBANDS =     -2735.06867378
  atomic energy  EATOM  =      8369.52358910
  ---------------------------------------------------
  free energy    TOTEN  =      -523.49429764 eV

  energy without entropy =     -523.49429764  energy(sigma->0) =     -523.49429764


--------------------------------------------------------------------------------------------------------




--------------------------------------- Iteration      1(   8)  ---------------------------------------


    POTLOK:  cpu time    8.3809: real time    8.4399
    SETDIJ:  cpu time    0.0022: real time    0.0022
    TRIAL :  cpu time   22.3921: real time   22.5686
    CORREC:  cpu time   16.1346: real time   16.2619
    CHARGE:  cpu time    3.2443: real time    3.2679
    --------------------------------------------
      LOOP:  cpu time   50.2035: real time   50.5962

 eigenvalue-minimisations  :     0
 total energy-change (2. order) :-0.1562042E+01  (-0.4983883E+00)
 number of electron     216.0000000 magnetization 
 augmentation part       -0.5187312 magnetization 

 Free energy of the ion-electron system (eV)
  ---------------------------------------------------
  alpha Z        PSCENC =        47.94900195
  Ewald energy   TEWEN  =     42045.44139955
  -Hartree energ DENC   =    -49012.02423794
  -exchange      EXHF   =         0.00000000
  -V(xc)+E(xc)   XCENC  =       649.54114561
  PAW double counting   =    139907.90123768  -139767.88561597
  entropy T*S    EENTRO =        -0.00000000
  eigenvalues    EBANDS =     -2765.50285918
  atomic energy  EATOM  =      8369.52358910
  ---------------------------------------------------
  free energy    TOTEN  =      -525.05633920 eV

  energy without entropy =     -525.05633920  energy(sigma->0) =     -525.05633920


--------------------------------------------------------------------------------------------------------




--------------------------------------- Iteration      1(   9)  ---------------------------------------


    POTLOK:  cpu time    8.3660: real time    8.4295
    SETDIJ:  cpu time    0.0020: real time    0.0020
    TRIAL :  cpu time   22.4071: real time   22.5699
    CORREC:  cpu time   16.1942: real time   16.3034
    CHARGE:  cpu time    3.2233: real time    3.2597
    --------------------------------------------
      LOOP:  cpu time   50.2323: real time   50.6298

 eigenvalue-minimisations  :     0
 total energy-change (2. order) :-0.4983279E+00  (-0.1911058E+00)
 number of electron     216.0000000 magnetization 
 augmentation part       -0.5141384 magnetization 

 Free energy of the ion-electron system (eV)
  ---------------------------------------------------
  alpha Z        PSCENC =        47.94900195
  Ewald energy   TEWEN  =     42045.44139955
  -Hartree energ DENC   =    -49020.58469401
  -exchange      EXHF   =         0.00000000
  -V(xc)+E(xc)   XCENC  =       649.31704369
  PAW double counting   =    146027.36977299  -145887.16073755
  entropy T*S    EENTRO =        -0.00000000
  eigenvalues    EBANDS =     -2757.41004278
  atomic energy  EATOM  =      8369.52358910
  ---------------------------------------------------
  free energy    TOTEN  =      -525.55466706 eV

  energy without entropy =     -525.55466706  energy(sigma->0) =     -525.55466706


--------------------------------------------------------------------------------------------------------




--------------------------------------- Iteration      1(  10)  ---------------------------------------


    POTLOK:  cpu time    8.4034: real time    8.4585
    SETDIJ:  cpu time    0.0022: real time    0.0022
    TRIAL :  cpu time   22.3729: real time   22.5563
    CORREC:  cpu time   16.1440: real time   16.2563
    CHARGE:  cpu time    3.2423: real time    3.2662
    --------------------------------------------
      LOOP:  cpu time   50.2466: real time   50.6230

 eigenvalue-minimisations  :     0
 total energy-change (2. order) :-0.1909247E+00  (-0.7867852E-01)
 number of electron     216.0000000 magnetization 
 augmentation part       -0.5080455 magnetization 

 Free energy of the ion-electron system (eV)
  ---------------------------------------------------
  alpha Z        PSCENC =        47.94900195
  Ewald energy   TEWEN  =     42045.44139955
  -Hartree energ DENC   =    -49020.81573901
  -exchange      EXHF   =         0.00000000
  -V(xc)+E(xc)   XCENC  =       649.11917398
  PAW double counting   =    148494.25867505  -148353.95164870
  entropy T*S    EENTRO =        -0.00000000
  eigenvalues    EBANDS =     -2757.27004367
  atomic energy  EATOM  =      8369.52358910
  ---------------------------------------------------
  free energy    TOTEN  =      -525.74559175 eV

  energy without entropy =     -525.74559175  energy(sigma->0) =     -525.74559175


--------------------------------------------------------------------------------------------------------




--------------------------------------- Iteration      1(  11)  ---------------------------------------


    POTLOK:  cpu time    8.3895: real time    8.4565
    SETDIJ:  cpu time    0.0018: real time    0.0018
    TRIAL :  cpu time   22.3808: real time   22.5694
    CORREC:  cpu time   16.1429: real time   16.2733
    CHARGE:  cpu time    3.2428: real time    3.2661
    --------------------------------------------
      LOOP:  cpu time   50.2044: real time   50.6418

 eigenvalue-minimisations  :     0
 total energy-change (2. order) :-0.7844717E-01  (-0.3139675E-01)
 number of electron     216.0000000 magnetization 
 augmentation part       -0.5043412 magnetization 

 Free energy of the ion-electron system (eV)
  ---------------------------------------------------
  alpha Z        PSCENC =        47.94900195
  Ewald energy   TEWEN  =     42045.44139955
  -Hartree energ DENC   =    -49015.44207775
  -exchange      EXHF   =         0.00000000
  -V(xc)+E(xc)   XCENC  =       648.98317390
  PAW double counting   =    148501.46741366  -148361.15655369
  entropy T*S    EENTRO =        -0.00000000
  eigenvalues    EBANDS =     -2762.58998563
  atomic energy  EATOM  =      8369.52358910
  ---------------------------------------------------
  free energy    TOTEN  =      -525.82403892 eV

  energy without entropy =     -525.82403892  energy(sigma->0) =     -525.82403892


--------------------------------------------------------------------------------------------------------




--------------------------------------- Iteration      1(  12)  ---------------------------------------


    POTLOK:  cpu time    8.3968: real time    8.4529
    SETDIJ:  cpu time    0.0022: real time    0.0023
    TRIAL :  cpu time   22.3803: real time   22.5596
    CORREC:  cpu time   16.1676: real time   16.2851
    CHARGE:  cpu time    3.2319: real time    3.2601
    --------------------------------------------
      LOOP:  cpu time   50.2230: real time   50.6141

 eigenvalue-minimisations  :     0
 total energy-change (2. order) :-0.3131637E-01  (-0.1038581E-01)
 number of electron     216.0000000 magnetization 
 augmentation part       -0.5042800 magnetization 

 Free energy of the ion-electron system (eV)
  ---------------------------------------------------
  alpha Z        PSCENC =        47.94900195
  Ewald energy   TEWEN  =     42045.44139955
  -Hartree energ DENC   =    -49010.91951104
  -exchange      EXHF   =         0.00000000
  -V(xc)+E(xc)   XCENC  =       648.88097189
  PAW double counting   =    147894.86694763  -147754.57888129
  entropy T*S    EENTRO =        -0.00000000
  eigenvalues    EBANDS =     -2767.01887306
  atomic energy  EATOM  =      8369.52358910
  ---------------------------------------------------
  free energy    TOTEN  =      -525.85535528 eV

  energy without entropy =     -525.85535528  energy(sigma->0) =     -525.85535528


--------------------------------------------------------------------------------------------------------




--------------------------------------- Iteration      1(  13)  ---------------------------------------


    POTLOK:  cpu time    8.3905: real time    8.4415
    SETDIJ:  cpu time    0.0021: real time    0.0021
    TRIAL :  cpu time   22.3699: real time   22.5606
    CORREC:  cpu time   16.1981: real time   16.3058
    CHARGE:  cpu time    3.2463: real time    3.2724
    --------------------------------------------
      LOOP:  cpu time   50.2735: real time   50.6547

 eigenvalue-minimisations  :     0
 total energy-change (2. order) :-0.1037146E-01  (-0.2894868E-02)
 number of electron     216.0000000 magnetization 
 augmentation part       -0.5048877 magnetization 

 Free energy of the ion-electron system (eV)
  ---------------------------------------------------
  alpha Z        PSCENC =        47.94900195
  Ewald energy   TEWEN  =     42045.44139955
  -Hartree energ DENC   =    -49009.40952465
  -exchange      EXHF   =         0.00000000
  -V(xc)+E(xc)   XCENC  =       648.83013381
  PAW double counting   =    147373.92970116  -147233.65419676
  entropy T*S    EENTRO =        -0.00000000
  eigenvalues    EBANDS =     -2768.47583090
  atomic energy  EATOM  =      8369.52358910
  ---------------------------------------------------
  free energy    TOTEN  =      -525.86572674 eV

  energy without entropy =     -525.86572674  energy(sigma->0) =     -525.86572674


--------------------------------------------------------------------------------------------------------




--------------------------------------- Iteration      1(  14)  ---------------------------------------


    POTLOK:  cpu time    8.3682: real time    8.4434
    SETDIJ:  cpu time    0.0022: real time    0.0022
    TRIAL :  cpu time   22.4073: real time   22.5736
    CORREC:  cpu time   16.1432: real time   16.2755
    CHARGE:  cpu time    3.2422: real time    3.2735
    --------------------------------------------
      LOOP:  cpu time   50.2044: real time   50.6114

 eigenvalue-minimisations  :     0
 total energy-change (2. order) :-0.2897795E-02  (-0.7587616E-03)
 number of electron     216.0000000 magnetization 
 augmentation part       -0.5051543 magnetization 

 Free energy of the ion-electron system (eV)
  ---------------------------------------------------
  alpha Z        PSCENC =        47.94900195
  Ewald energy   TEWEN  =     42045.44139955
  -Hartree energ DENC   =    -49009.37443153
  -exchange      EXHF   =         0.00000000
  -V(xc)+E(xc)   XCENC  =       648.82477920
  PAW double counting   =    147129.33548021  -146989.06560203
  entropy T*S    EENTRO =        -0.00000000
  eigenvalues    EBANDS =     -2768.50284098
  atomic energy  EATOM  =      8369.52358910
  ---------------------------------------------------
  free energy    TOTEN  =      -525.86862453 eV

  energy without entropy =     -525.86862453  energy(sigma->0) =     -525.86862453


--------------------------------------------------------------------------------------------------------




--------------------------------------- Iteration      1(  15)  ---------------------------------------


    POTLOK:  cpu time    8.3698: real time    8.4316
    SETDIJ:  cpu time    0.0021: real time    0.0021
    TRIAL :  cpu time   22.3964: real time   22.5667
    CORREC:  cpu time   16.1598: real time   16.2718
    CHARGE:  cpu time    3.2479: real time    3.2708
    --------------------------------------------
      LOOP:  cpu time   50.2391: real time   50.6067

 eigenvalue-minimisations  :     0
 total energy-change (2. order) :-0.7645156E-03  (-0.1972348E-03)
 number of electron     216.0000000 magnetization 
 augmentation part       -0.5052831 magnetization 

 Free energy of the ion-electron system (eV)
  ---------------------------------------------------
  alpha Z        PSCENC =        47.94900195
  Ewald energy   TEWEN  =     42045.44139955
  -Hartree energ DENC   =    -49009.27758991
  -exchange      EXHF   =         0.00000000
  -V(xc)+E(xc)   XCENC  =       648.82516576
  PAW double counting   =    147031.73164618  -146891.46423971
  entropy T*S    EENTRO =        -0.00000000
  eigenvalues    EBANDS =     -2768.59836197
  atomic energy  EATOM  =      8369.52358910
  ---------------------------------------------------
  free energy    TOTEN  =      -525.86938905 eV

  energy without entropy =     -525.86938905  energy(sigma->0) =     -525.86938905


--------------------------------------------------------------------------------------------------------




--------------------------------------- Iteration      1(  16)  ---------------------------------------


    POTLOK:  cpu time    8.3916: real time    8.4478
    SETDIJ:  cpu time    0.0020: real time    0.0021
    TRIAL :  cpu time   22.3784: real time   22.5537
    CORREC:  cpu time   16.1719: real time   16.2834
    CHARGE:  cpu time    3.2535: real time    3.2839
    --------------------------------------------
      LOOP:  cpu time   50.3024: real time   50.6820

 eigenvalue-minimisations  :     0
 total energy-change (2. order) :-0.2002117E-03  (-0.6672642E-04)
 number of electron     216.0000000 magnetization 
 augmentation part       -0.5053319 magnetization 

 Free energy of the ion-electron system (eV)
  ---------------------------------------------------
  alpha Z        PSCENC =        47.94900195
  Ewald energy   TEWEN  =     42045.44139955
  -Hartree energ DENC   =    -49009.18687684
  -exchange      EXHF   =         0.00000000
  -V(xc)+E(xc)   XCENC  =       648.82405593
  PAW double counting   =    146974.56028382  -146834.29343282
  entropy T*S    EENTRO =        -0.00000000
  eigenvalues    EBANDS =     -2768.68760994
  atomic energy  EATOM  =      8369.52358910
  ---------------------------------------------------
  free energy    TOTEN  =      -525.86958926 eV

  energy without entropy =     -525.86958926  energy(sigma->0) =     -525.86958926


--------------------------------------------------------------------------------------------------------




--------------------------------------- Iteration      1(  17)  ---------------------------------------


    POTLOK:  cpu time    8.3827: real time    8.4381
    SETDIJ:  cpu time    0.0021: real time    0.0021
    TRIAL :  cpu time   22.4330: real time   22.6038
    CORREC:  cpu time   16.1568: real time   16.2785
    CHARGE:  cpu time    3.2335: real time    3.2561
    --------------------------------------------
      LOOP:  cpu time   50.2606: real time   50.6355

 eigenvalue-minimisations  :     0
 total energy-change (2. order) :-0.6544014E-04  (-0.2397622E-04)
 number of electron     216.0000000 magnetization 
 augmentation part       -0.5053488 magnetization 

 Free energy of the ion-electron system (eV)
  ---------------------------------------------------
  alpha Z        PSCENC =        47.94900195
  Ewald energy   TEWEN  =     42045.44139955
  -Hartree energ DENC   =    -49009.30042977
  -exchange      EXHF   =         0.00000000
  -V(xc)+E(xc)   XCENC  =       648.83058127
  PAW double counting   =    146930.29256194  -146790.02641027
  entropy T*S    EENTRO =        -0.00000000
  eigenvalues    EBANDS =     -2768.57994846
  atomic energy  EATOM  =      8369.52358910
  ---------------------------------------------------
  free energy    TOTEN  =      -525.86965470 eV

  energy without entropy =     -525.86965470  energy(sigma->0) =     -525.86965470


--------------------------------------------------------------------------------------------------------




--------------------------------------- Iteration      1(  18)  ---------------------------------------


    POTLOK:  cpu time    8.4010: real time    8.4591
    SETDIJ:  cpu time    0.0023: real time    0.0023
    TRIAL :  cpu time   22.3859: real time   22.5606
    CORREC:  cpu time   16.1550: real time   16.2767
    CHARGE:  cpu time    3.2499: real time    3.2742
    --------------------------------------------
      LOOP:  cpu time   50.2630: real time   50.6484

 eigenvalue-minimisations  :     0
 total energy-change (2. order) :-0.2321965E-04  (-0.8597696E-05)
 number of electron     216.0000000 magnetization 
 augmentation part       -0.5053764 magnetization 

 Free energy of the ion-electron system (eV)
  ---------------------------------------------------
  alpha Z        PSCENC =        47.94900195
  Ewald energy   TEWEN  =     42045.44139955
  -Hartree energ DENC   =    -49009.37692940
  -exchange      EXHF   =         0.00000000
  -V(xc)+E(xc)   XCENC  =       648.83419757
  PAW double counting   =    146910.50930811  -146770.24318319
  entropy T*S    EENTRO =        -0.00000000
  eigenvalues    EBANDS =     -2768.50706162
  atomic energy  EATOM  =      8369.52358910
  ---------------------------------------------------
  free energy    TOTEN  =      -525.86967792 eV

  energy without entropy =     -525.86967792  energy(sigma->0) =     -525.86967792


--------------------------------------------------------------------------------------------------------




--------------------------------------- Iteration      1(  19)  ---------------------------------------


    POTLOK:  cpu time    8.3982: real time    8.4538
    SETDIJ:  cpu time    0.0021: real time    0.0021
    TRIAL :  cpu time   22.4209: real time   22.5997
    CORREC:  cpu time   64.5954: real time   65.1024
    CHARGE:  cpu time    3.2415: real time    3.2652
    --------------------------------------------
      LOOP:  cpu time   98.6775: real time   99.4434

 eigenvalue-minimisations  :     0
 total energy-change (2. order) :-0.8584233E-05  (-0.1164565E-04)
 number of electron     216.0000000 magnetization 
 augmentation part       -0.5054269 magnetization 

 Free energy of the ion-electron system (eV)
  ---------------------------------------------------
  alpha Z        PSCENC =        47.94900195
  Ewald energy   TEWEN  =     42045.44139955
  -Hartree energ DENC   =    -49009.38051372
  -exchange      EXHF   =         0.00000000
  -V(xc)+E(xc)   XCENC  =       648.83374945
  PAW double counting   =    146911.78804749  -146771.52144127
  entropy T*S    EENTRO =        -0.00000000
  eigenvalues    EBANDS =     -2768.50351905
  atomic energy  EATOM  =      8369.52358910
  ---------------------------------------------------
  free energy    TOTEN  =      -525.86968650 eV

  energy without entropy =     -525.86968650  energy(sigma->0) =     -525.86968650


--------------------------------------------------------------------------------------------------------




--------------------------------------- Iteration      1(  20)  ---------------------------------------


    POTLOK:  cpu time    8.4064: real time    8.4630
    SETDIJ:  cpu time    0.0024: real time    0.0024
    TRIAL :  cpu time   22.3905: real time   22.5725
    CORREC:  cpu time   16.1814: real time   16.3022
    CHARGE:  cpu time    3.2403: real time    3.2633
    --------------------------------------------
      LOOP:  cpu time   50.2804: real time   50.6663

 eigenvalue-minimisations  :     0
 total energy-change (2. order) : 0.2112091E-04  (-0.2410164E-04)
 number of electron     216.0000000 magnetization 
 augmentation part       -0.5054212 magnetization 

 Free energy of the ion-electron system (eV)
  ---------------------------------------------------
  alpha Z        PSCENC =        47.94900195
  Ewald energy   TEWEN  =     42045.44139955
  -Hartree energ DENC   =    -49009.47777917
  -exchange      EXHF   =         0.00000000
  -V(xc)+E(xc)   XCENC  =       648.83680638
  PAW double counting   =    146941.32550954  -146801.05826775
  entropy T*S    EENTRO =        -0.00000000
  eigenvalues    EBANDS =     -2768.40992498
  atomic energy  EATOM  =      8369.52358910
  ---------------------------------------------------
  free energy    TOTEN  =      -525.86966538 eV

  energy without entropy =     -525.86966538  energy(sigma->0) =     -525.86966538


--------------------------------------------------------------------------------------------------------




--------------------------------------- Iteration      1(  21)  ---------------------------------------


    POTLOK:  cpu time    8.4122: real time    8.4634
    SETDIJ:  cpu time    0.0022: real time    0.0022
    TRIAL :  cpu time   22.3922: real time   22.5760
    CORREC:  cpu time   16.1589: real time   16.2778
    CHARGE:  cpu time    3.2144: real time    3.2579
    --------------------------------------------
      LOOP:  cpu time   50.2500: real time   50.6590

 eigenvalue-minimisations  :     0
 total energy-change (2. order) :-0.2268856E-04  (-0.3939481E-05)
 number of electron     216.0000000 magnetization 
 augmentation part       -0.5053826 magnetization 

 Free energy of the ion-electron system (eV)
  ---------------------------------------------------
  alpha Z        PSCENC =        47.94900195
  Ewald energy   TEWEN  =     42045.44139955
  -Hartree energ DENC   =    -49009.42055406
  -exchange      EXHF   =         0.00000000
  -V(xc)+E(xc)   XCENC  =       648.83370791
  PAW double counting   =    146935.72363082  -146795.45626699
  entropy T*S    EENTRO =        -0.00000000
  eigenvalues    EBANDS =     -2768.46419635
  atomic energy  EATOM  =      8369.52358910
  ---------------------------------------------------
  free energy    TOTEN  =      -525.86968807 eV

  energy without entropy =     -525.86968807  energy(sigma->0) =     -525.86968807


--------------------------------------------------------------------------------------------------------




--------------------------------------- Iteration      1(  22)  ---------------------------------------


    POTLOK:  cpu time    8.3844: real time    8.4394
    SETDIJ:  cpu time    0.3860: real time    0.3874
    TRIAL :  cpu time   22.3518: real time   22.5492
    CORREC:  cpu time   16.1586: real time   16.2736
    CHARGE:  cpu time    3.2464: real time    3.2700
    --------------------------------------------
      LOOP:  cpu time   50.5825: real time   50.9801

 eigenvalue-minimisations  :     0
 total energy-change (2. order) :-0.3906694E-05  (-0.6158334E-06)
 number of electron     216.0000000 magnetization 
 augmentation part       -0.5053834 magnetization 

 Free energy of the ion-electron system (eV)
  ---------------------------------------------------
  alpha Z        PSCENC =        47.94900195
  Ewald energy   TEWEN  =     42045.44139955
  -Hartree energ DENC   =    -49009.43407955
  -exchange      EXHF   =         0.00000000
  -V(xc)+E(xc)   XCENC  =       648.83511201
  PAW double counting   =    146929.24490093  -146788.97805223
  entropy T*S    EENTRO =        -0.00000000
  eigenvalues    EBANDS =     -2768.45156373
  atomic energy  EATOM  =      8369.52358910
  ---------------------------------------------------
  free energy    TOTEN  =      -525.86969198 eV

  energy without entropy =     -525.86969198  energy(sigma->0) =     -525.86969198


--------------------------------------------------------------------------------------------------------




--------------------------------------- Iteration      1(  23)  ---------------------------------------


    POTLOK:  cpu time    8.3945: real time    8.4601
    SETDIJ:  cpu time    0.0019: real time    0.0019
    TRIAL :  cpu time   22.3689: real time   22.5613
    CORREC:  cpu time   16.1571: real time   16.2730
    CHARGE:  cpu time    3.2473: real time    3.2706
    --------------------------------------------
      LOOP:  cpu time   50.2335: real time   50.6411

 eigenvalue-minimisations  :     0
 total energy-change (2. order) :-0.2926390E-06  (-0.2480913E-06)
 number of electron     216.0000000 magnetization 
 augmentation part       -0.5053856 magnetization 

 Free energy of the ion-electron system (eV)
  ---------------------------------------------------
  alpha Z        PSCENC =        47.94900195
  Ewald energy   TEWEN  =     42045.44139955
  -Hartree energ DENC   =    -49009.42054851
  -exchange      EXHF   =         0.00000000
  -V(xc)+E(xc)   XCENC  =       648.83450915
  PAW double counting   =    146927.93790978  -146787.67107410
  entropy T*S    EENTRO =        -0.00000000
  eigenvalues    EBANDS =     -2768.46447919
  atomic energy  EATOM  =      8369.52358910
  ---------------------------------------------------
  free energy    TOTEN  =      -525.86969227 eV

  energy without entropy =     -525.86969227  energy(sigma->0) =     -525.86969227


--------------------------------------------------------------------------------------------------------




--------------------------------------- Iteration      1(  24)  ---------------------------------------


    POTLOK:  cpu time    8.3761: real time    8.4407
    SETDIJ:  cpu time    0.0019: real time    0.0019
    TRIAL :  cpu time   22.3564: real time   22.5684
    CORREC:  cpu time   16.1242: real time   16.2589
    CHARGE:  cpu time    3.2308: real time    3.2635
    --------------------------------------------
      LOOP:  cpu time   50.1437: real time   50.6248

 eigenvalue-minimisations  :     0
 total energy-change (2. order) :-0.4083267E-07  (-0.6001459E-06)
 number of electron     216.0000000 magnetization 
 augmentation part       -0.5053801 magnetization 

 Free energy of the ion-electron system (eV)
  ---------------------------------------------------
  alpha Z        PSCENC =        47.94900195
  Ewald energy   TEWEN  =     42045.44139955
  -Hartree energ DENC   =    -49009.41153102
  -exchange      EXHF   =         0.00000000
  -V(xc)+E(xc)   XCENC  =       648.83411227
  PAW double counting   =    146927.63539583  -146787.36855069
  entropy T*S    EENTRO =        -0.00000000
  eigenvalues    EBANDS =     -2768.47310931
  atomic energy  EATOM  =      8369.52358910
  ---------------------------------------------------
  free energy    TOTEN  =      -525.86969231 eV

  energy without entropy =     -525.86969231  energy(sigma->0) =     -525.86969231


--------------------------------------------------------------------------------------------------------




--------------------------------------- Iteration      1(  25)  ---------------------------------------


    POTLOK:  cpu time    8.3851: real time    8.4440
    SETDIJ:  cpu time    0.0022: real time    0.0022
    TRIAL :  cpu time   22.3836: real time   22.5672
    CORREC:  cpu time   16.1265: real time   16.2693
    CHARGE:  cpu time    3.2288: real time    3.2520
    --------------------------------------------
      LOOP:  cpu time   50.1461: real time   50.5743

 eigenvalue-minimisations  :     0
 total energy-change (2. order) :-0.1009612E-06  (-0.3003708E-06)
 number of electron     216.0000000 magnetization 
 augmentation part       -0.5053843 magnetization 

 Free energy of the ion-electron system (eV)
  ---------------------------------------------------
  alpha Z        PSCENC =        47.94900195
  Ewald energy   TEWEN  =     42045.44139955
  -Hartree energ DENC   =    -49009.40612158
  -exchange      EXHF   =         0.00000000
  -V(xc)+E(xc)   XCENC  =       648.83437187
  PAW double counting   =    146927.83402736  -146787.56732825
  entropy T*S    EENTRO =        -0.00000000
  eigenvalues    EBANDS =     -2768.47863241
  atomic energy  EATOM  =      8369.52358910
  ---------------------------------------------------
  free energy    TOTEN  =      -525.86969241 eV

  energy without entropy =     -525.86969241  energy(sigma->0) =     -525.86969241


--------------------------------------------------------------------------------------------------------




--------------------------------------- Iteration      1(  26)  ---------------------------------------


    POTLOK:  cpu time    8.4162: real time    8.4842
    SETDIJ:  cpu time    0.0024: real time    0.0024
    TRIAL :  cpu time   22.4141: real time   22.5860
    CORREC:  cpu time   16.1296: real time   16.2564
    CHARGE:  cpu time    3.2397: real time    3.2634
    --------------------------------------------
      LOOP:  cpu time   50.2836: real time   50.6747

 eigenvalue-minimisations  :     0
 total energy-change (2. order) :-0.1268927E-06  (-0.6395837E-07)
 number of electron     216.0000000 magnetization 
 augmentation part       -0.5053849 magnetization 

 Free energy of the ion-electron system (eV)
  ---------------------------------------------------
  alpha Z        PSCENC =        47.94900195
  Ewald energy   TEWEN  =     42045.44139955
  -Hartree energ DENC   =    -49009.39859908
  -exchange      EXHF   =         0.00000000
  -V(xc)+E(xc)   XCENC  =       648.83385493
  PAW double counting   =    146927.46443563  -146787.19766712
  entropy T*S    EENTRO =        -0.00000000
  eigenvalues    EBANDS =     -2768.48570751
  atomic energy  EATOM  =      8369.52358910
  ---------------------------------------------------
  free energy    TOTEN  =      -525.86969254 eV

  energy without entropy =     -525.86969254  energy(sigma->0) =     -525.86969254


--------------------------------------------------------------------------------------------------------




--------------------------------------- Iteration      1(  27)  ---------------------------------------


    POTLOK:  cpu time    8.3971: real time    8.4557
    SETDIJ:  cpu time    0.0023: real time    0.0023
    TRIAL :  cpu time   22.4010: real time   22.5738
    CORREC:  cpu time   16.0428: real time   16.1519
    EDDIAG:  cpu time    4.6106: real time    4.6458
    CHARGE:  cpu time    3.2690: real time    3.2920
    --------------------------------------------
      LOOP:  cpu time   54.7708: real time   55.1720

 eigenvalue-minimisations  :     0
 total energy-change (2. order) :-0.3096648E-07  ( 0.1439217E-07)
 number of electron     216.0000000 magnetization 
 augmentation part       -0.5053823 magnetization 

 Free energy of the ion-electron system (eV)
  ---------------------------------------------------
  alpha Z        PSCENC =        47.94900195
  Ewald energy   TEWEN  =     42045.44139955
  -Hartree energ DENC   =    -49009.39641522
  -exchange      EXHF   =         0.00000000
  -V(xc)+E(xc)   XCENC  =       648.83370174
  PAW double counting   =    146927.13588147  -146786.86909441
  entropy T*S    EENTRO =        -0.00000000
  eigenvalues    EBANDS =     -2768.48775676
  atomic energy  EATOM  =      8369.52358910
  ---------------------------------------------------
  free energy    TOTEN  =      -525.86969257 eV

  energy without entropy =     -525.86969257  energy(sigma->0) =     -525.86969257


--------------------------------------------------------------------------------------------------------


  average scaling for gradient   0.8455


 average (electrostatic) potential at core
  the test charge radii are     0.5770  0.5955
  (the norm of the test charge is              1.0000)
[...]
      9     -22.5898      2.00000
     10     -20.6594      2.00000
     11     -20.6593      2.00000
     12     -20.6590      2.00000
     13     -20.6584      2.00000
     14     -20.6579      2.00000
     15     -20.6577      2.00000
     16     -19.7238      2.00000
     17     -19.7236      2.00000
     18     -19.7231      2.00000
     19     -19.7229      2.00000
     20     -19.7221      2.00000
     21     -19.7218      2.00000
     22     -17.5023      2.00000
     23     -17.5019      2.00000
     24     -17.5014      2.00000
     25     -17.5011      2.00000
     26     -17.5002      2.00000
     27     -17.5001      2.00000
     28     -16.3441      2.00000
     29     -16.3440      2.00000
     30     -16.3429      2.00000
     31     -16.3428      2.00000
     32     -16.3423      2.00000
     33     -16.3422      2.00000
     34     -14.9510      2.00000
     35     -14.9509      2.00000
     36     -14.9502      2.00000
     37     -14.9499      2.00000
     38     -14.9498      2.00000
     39     -14.9494      2.00000
     40     -13.1433      2.00000
     41     -12.4918      2.00000
     42     -12.4916      2.00000
     43     -12.4912      2.00000
     44     -12.4910      2.00000
     45     -12.4898      2.00000
     46     -12.4895      2.00000
     47     -12.2743      2.00000
     48     -12.2743      2.00000
     49     -12.2732      2.00000
     50     -12.2730      2.00000
     51     -12.2725      2.00000
     52     -12.2724      2.00000
     53     -11.8659      2.00000
     54     -11.6108      2.00000
     55     -11.6099      2.00000
     56     -10.9432      2.00000
     57     -10.8284      2.00000
     58     -10.8282      2.00000
     59     -10.8265      2.00000
     60     -10.8261      2.00000
     61     -10.8260      2.00000
     62     -10.8259      2.00000
     63      -9.7699      2.00000
     64      -9.7693      2.00000
     65      -9.7692      2.00000
     66      -9.7683      2.00000
     67      -9.7682      2.00000
     68      -9.7681      2.00000
     69      -9.5270      2.00000
     70      -9.5267      2.00000
     71      -9.5266      2.00000
     72      -9.5258      2.00000
     73      -9.5255      2.00000
     74      -9.5251      2.00000
     75      -9.5248      2.00000
     76      -9.5239      2.00000
     77      -9.5235      2.00000
     78      -9.5232      2.00000
     79      -9.5231      2.00000
     80      -9.5226      2.00000
     81      -8.0153      2.00000
     82      -8.0138      2.00000
     83      -7.8206      2.00000
     84      -7.8191      2.00000
     85      -7.8187      2.00000
     86      -7.8182      2.00000
     87      -7.8161      2.00000
     88      -7.8154      2.00000
     89      -7.5272      2.00000
     90      -7.5269      2.00000
     91      -7.5267      2.00000
     92      -7.5263      2.00000
     93      -7.5260      2.00000
     94      -7.5257      2.00000
     95      -6.5820      2.00000
     96      -6.5817      2.00000
     97      -6.5814      2.00000
     98      -6.5810      2.00000
     99      -6.5806      2.00000
    100      -6.5804      2.00000
    101      -6.3027      2.00000
    102      -6.3003      2.00000
    103      -4.4833      2.00000
    104      -4.4829      2.00000
    105      -4.4822      2.00000
    106      -4.4821      2.00000
    107      -4.4816      2.00000
    108      -4.4816      2.00000
    109      -1.5079      0.00000
    110      -1.5078      0.00000
    111      -1.5076      0.00000
    112      -1.5075      0.00000
    113      -1.5066      0.00000
    114      -1.5063      0.00000
    115       0.4707      0.00000
    116       0.4711      0.00000
    117       0.4715      0.00000
    118       0.4719      0.00000
    119       0.4720      0.00000
    120       0.4738      0.00000
    121       0.6009      0.00000
    122       0.9594      0.00000
    123       1.2636      0.00000
    124       1.2644      0.00000
    125       1.4383      0.00000
    126       1.7544      0.00000
    127       1.9145      0.00000
    128       1.9256      0.00000
    129       1.9336      0.00000
    130       1.9388      0.00000
    131       1.9398      0.00000
    132       1.9418      0.00000
    133       2.1911      0.00000
    134       2.3516      0.00000
    135       2.3518      0.00000
    136       2.3522      0.00000
    137       2.3525      0.00000
    138       2.3528      0.00000
    139       2.3532      0.00000
    140       2.4111      0.00000
    141       2.5687      0.00000
    142       2.6577      0.00000
    143       2.6861      0.00000
    144       2.6951      0.00000
    145       2.7085      0.00000
    146       2.7149      0.00000
    147       2.7615      0.00000
    148       2.8119      0.00000
    149       2.8356      0.00000
    150       2.8502      0.00000
    151       2.8698      0.00000
    152       3.1743      0.00000
    153       3.3339      0.00000
    154       3.4036      0.00000
    155       3.5234      0.00000
    156       3.6587      0.00000
    157       3.8264      0.00000
    158       3.8962      0.00000
    159       4.0587      0.00000
    160       4.3764      0.00000
    161       4.5955      0.00000
    162       4.8031      0.00000
    163       4.9076      0.00000
    164       4.9435      0.00000
    165       4.9572      0.00000
    166       4.9581      0.00000
    167       4.9628      0.00000
    168       4.9806      0.00000


--------------------------------------------------------------------------------------------------------


 soft charge-density along one line, spin component           1
         0         1         2         3         4         5         6         7         8         9
 total charge-density along one line
 
 pseudopotential strength for first ion, spin component:           1
 12.643  21.273  -0.000   0.000   0.000  -0.000   0.000   0.000
 21.273  35.792  -0.000   0.000   0.000  -0.000   0.000   0.000
 -0.000  -0.000  -3.239   0.000   0.000  -5.804   0.000   0.000
  0.000   0.000   0.000  -3.243   0.000   0.000  -5.810   0.000
  0.000   0.000   0.000   0.000  -3.239   0.000   0.000  -5.804
 -0.000  -0.000  -5.804   0.000   0.000 -10.375   0.000   0.000
  0.000   0.000   0.000  -5.810   0.000   0.000 -10.385   0.000
  0.000   0.000   0.000   0.000  -5.804   0.000   0.000 -10.375
 total augmentation occupancy for first ion, spin component:           1
  9.643  -3.599   0.000  -0.002  -0.001  -0.000   0.001   0.000
 -3.599   1.374  -0.000   0.001   0.000   0.000  -0.000  -0.000
  0.000  -0.000   8.197  -0.009   0.001  -2.896   0.003  -0.000
 -0.002   0.001  -0.009   3.783  -0.000   0.003  -1.107   0.000
 -0.001   0.000   0.001  -0.000   8.195  -0.000   0.000  -2.895
 -0.000   0.000  -2.896   0.003  -0.000   1.036  -0.001   0.000
  0.001  -0.000   0.003  -1.107   0.000  -0.001   0.329  -0.000
  0.000  -0.000  -0.000   0.000  -2.895   0.000  -0.000   1.035


------------------------ aborting loop because EDIFF is reached ----------------------------------------


    FORLOC:  cpu time    0.1414: real time    0.1423
    FORNL :  cpu time    4.1533: real time    4.1852
    FORCOR:  cpu time    8.3224: real time    8.3742
    OFIELD:  cpu time    0.0032: real time    0.0032

 VOLUME and BASIS-vectors are now :
 -----------------------------------------------------------------------------
  energy-cutoff  :     1000.00
  volume of cell :     3288.85
      direct lattice vectors                 reciprocal lattice vectors
    12.325000000  0.000000000  0.000000000     0.081135903  0.046843835  0.000000000
    -6.162500000 10.673763102  0.000000000     0.000000000  0.093687670  0.000000000
     0.000000000  0.000000000 25.000000000     0.000000000  0.000000000  0.040000000

  length of vectors
    12.325000000 12.325000000 25.000000000     0.093687670  0.093687670  0.040000000


 FORCES acting on ions:
    Electron-Ion                     Ewald-Force                    Non-Local-Force
 -----------------------------------------------------------------------------------------------
   0.109E+01 0.944E+00 0.167E+02   -.108E+01 -.950E+00 -.167E+02   -.346E-02 0.610E-02 0.857E-02
   0.150E+01 0.771E+00 0.180E+02   -.150E+01 -.779E+00 -.180E+02   -.308E-02 0.125E-01 -.465E-02
   0.596E+00 0.164E+01 0.183E+02   -.605E+00 -.165E+01 -.183E+02   0.956E-02 0.189E-01 0.358E-03
   0.754E+00 0.109E+01 0.211E+02   -.758E+00 -.110E+01 -.210E+02   0.205E-01 0.167E-01 -.157E-01
   0.119E+01 0.289E+00 0.171E+02   -.118E+01 -.299E+00 -.171E+02   -.116E-01 0.860E-02 0.436E-02
   0.121E+01 -.271E+00 0.173E+02   -.121E+01 0.265E+00 -.173E+02   -.110E-01 0.145E-01 -.450E-02
   0.146E+01 0.579E+00 0.209E+02   -.147E+01 -.592E+00 -.209E+02   0.133E-01 -.109E-03 -.582E-02
   0.146E+01 -.502E+00 0.221E+02   -.147E+01 0.493E+00 -.220E+02   -.593E-02 0.114E-01 -.359E-02
   -.742E+00 0.156E+01 0.187E+02   0.734E+00 -.156E+01 -.187E+02   0.170E-01 -.805E-02 -.490E-02
   -.988E+00 0.837E+00 0.212E+02   0.982E+00 -.845E+00 -.212E+02   -.129E-01 0.243E-01 0.336E-02
   0.315E+00 -.323E+00 0.162E+02   -.310E+00 0.324E+00 -.162E+02   0.194E-02 -.428E-02 -.145E-02
   0.292E+00 -.243E+00 0.159E+02   -.298E+00 0.249E+00 -.159E+02   0.463E-03 -.596E-02 0.553E-02
   0.479E+00 -.118E+01 0.231E+02   -.484E+00 0.118E+01 -.230E+02   0.307E-01 0.217E-02 0.109E-02
   0.302E+00 -.172E+01 0.198E+02   -.305E+00 0.173E+01 -.198E+02   0.185E-02 0.688E-02 -.160E-01
   -.110E+01 0.659E+00 0.167E+02   0.110E+01 -.663E+00 -.167E+02   0.663E-02 -.113E-02 0.712E-02
   -.141E+01 0.402E+00 0.171E+02   0.141E+01 -.403E+00 -.170E+02   -.278E-02 0.717E-02 -.105E-01
   -.204E+00 -.694E-01 0.154E+02   0.204E+00 0.794E-01 -.154E+02   0.522E-02 -.161E-01 0.257E-02
   0.837E-01 0.697E+00 0.156E+02   -.897E-01 -.689E+00 -.156E+02   0.610E-02 -.105E-01 0.115E-01
   -.280E+00 -.165E+01 0.181E+02   0.284E+00 0.166E+01 -.181E+02   -.156E-02 -.108E-01 -.280E-02
   -.157E+00 -.101E+01 0.164E+02   0.164E+00 0.101E+01 -.164E+02   -.149E-01 -.969E-02 0.440E-03
   0.154E+01 -.670E+00 0.190E+02   -.154E+01 0.665E+00 -.190E+02   -.390E-02 0.774E-02 -.211E-01
   0.109E+01 -.881E+00 0.178E+02   -.109E+01 0.881E+00 -.178E+02   -.436E-02 0.665E-02 -.163E-03
   -.276E+00 0.463E+00 0.232E+02   0.263E+00 -.472E+00 -.232E+02   0.132E-02 0.255E-01 0.383E-02
   -.377E+00 -.753E+00 0.231E+02   0.375E+00 0.744E+00 -.231E+02   0.185E-01 -.501E-02 -.974E-02
   0.591E+00 -.214E+00 0.163E+02   -.593E+00 0.218E+00 -.163E+02   0.107E-01 -.102E-01 -.659E-02
   0.156E+00 0.515E+00 0.161E+02   -.166E+00 -.509E+00 -.161E+02   0.935E-02 -.428E-02 0.738E-02
   -.170E+01 0.188E+00 0.192E+02   0.170E+01 -.194E+00 -.192E+02   0.190E-01 0.125E-01 -.574E-03
   -.160E+01 -.648E+00 0.185E+02   0.160E+01 0.648E+00 -.185E+02   -.894E-02 0.788E-02 -.461E-02
   0.608E+00 -.125E+01 0.180E+02   -.608E+00 0.125E+01 -.180E+02   0.474E-02 0.120E-02 -.123E-01
   0.556E-01 -.549E+00 0.166E+02   -.572E-01 0.553E+00 -.166E+02   -.556E-02 -.795E-03 -.667E-03
   -.114E+01 -.115E+01 0.198E+02   0.114E+01 0.115E+01 -.198E+02   -.120E-01 -.102E-01 -.163E-01
   -.827E+00 -.157E+01 0.180E+02   0.835E+00 0.157E+01 -.180E+02   -.688E-02 -.126E-01 0.306E-03
   0.813E-01 0.332E+00 0.158E+02   -.695E-01 -.336E+00 -.158E+02   -.119E-01 -.282E-04 0.876E-02
   0.206E+00 0.299E+00 0.160E+02   -.201E+00 -.304E+00 -.160E+02   -.143E-01 0.129E-01 -.251E-02
   -.739E+00 0.134E+00 0.163E+02   0.747E+00 -.138E+00 -.163E+02   -.376E-02 0.207E-02 0.864E-02
   -.659E+00 -.302E+00 0.162E+02   0.659E+00 0.302E+00 -.162E+02   -.492E-02 0.160E-02 -.258E-03
   -.125E+01 -.666E+00 0.166E+02   0.125E+01 0.670E+00 -.166E+02   -.123E-02 -.861E-02 0.528E-02
   -.830E+00 -.655E+00 0.160E+02   0.831E+00 0.665E+00 -.160E+02   -.369E-02 -.133E-01 0.884E-02
   -.752E+00 -.943E+00 0.163E+02   0.755E+00 0.957E+00 -.163E+02   -.837E-02 -.169E-01 0.591E-02
   -.107E+00 -.257E+00 0.157E+02   0.114E+00 0.265E+00 -.157E+02   -.606E-02 -.120E-01 0.951E-02
   0.286E+00 0.722E+00 0.157E+02   -.287E+00 -.716E+00 -.158E+02   -.337E-02 -.772E-02 0.915E-02
   0.861E+00 0.131E+01 0.167E+02   -.861E+00 -.131E+01 -.167E+02   0.274E-03 0.354E-03 0.980E-02
   0.857E-01 0.118E+01 0.161E+02   -.917E-01 -.118E+01 -.161E+02   0.143E-01 -.587E-02 0.358E-02
   -.190E-01 0.171E+01 0.176E+02   0.908E-02 -.172E+01 -.177E+02   0.811E-02 0.265E-02 0.679E-02
   -.233E+00 0.421E+00 0.164E+02   0.229E+00 -.423E+00 -.164E+02   0.136E-01 -.409E-02 -.142E-02
   -.830E+00 0.103E+01 0.170E+02   0.823E+00 -.103E+01 -.170E+02   0.462E-02 -.566E-03 -.351E-02
   -.223E+00 -.521E+00 0.162E+02   0.230E+00 0.522E+00 -.163E+02   -.431E-02 -.309E-02 0.391E-02
   -.462E+00 0.167E+00 0.158E+02   0.468E+00 -.164E+00 -.158E+02   -.157E-01 0.215E-02 -.497E-02
   0.549E-01 -.314E+00 0.158E+02   -.462E-01 0.320E+00 -.158E+02   -.970E-02 -.107E-01 0.794E-02
   0.520E+00 0.365E+00 0.158E+02   -.512E+00 -.362E+00 -.158E+02   -.153E-01 0.190E-02 0.520E-02
   0.401E-02 0.174E-01 -.220E+03   -.450E-02 -.206E-01 0.220E+03   -.172E-01 0.168E-01 -.407E-02
   -.228E+03 0.155E+03 -.343E+03   0.279E+03 -.190E+03 0.346E+03   -.527E+02 0.358E+02 -.354E+01
   0.228E+03 -.155E+03 -.321E+03   -.279E+03 0.190E+03 0.318E+03   0.527E+02 -.359E+02 0.318E+01
 -----------------------------------------------------------------------------------------------
   -.183E-01 0.395E-02 0.377E+00   0.171E-12 -.114E-12 -.568E-13   0.149E-01 0.321E-01 -.368E+00
 
 
 POSITION                                       TOTAL-FORCE (eV/Angst)
 -----------------------------------------------------------------------------------
     11.98348      0.00342      0.01417        -0.006752      0.005809     -0.000513
     -0.34154      1.42665      0.01100        -0.013792      0.018319     -0.002503
      2.12355      0.00315      0.01249         0.009629      0.017729     -0.006198
      2.12326      1.42653      0.00641         0.028213      0.019339     -0.007177
     10.75099      2.13819      0.01213        -0.007610      0.016210      0.000246
     -1.57382      3.56123      0.01110        -0.026540      0.013661     -0.002362
      0.89078      2.13854      0.00548         0.010139      0.010726      0.003654
      0.89099      3.56147      0.00181        -0.011019      0.011337      0.014062
      4.58864      0.00346      0.01135         0.026018     -0.018763     -0.002906
      4.58894      1.42623      0.00646         0.003108      0.028502      0.014676
      9.51854      4.27281      0.01369         0.016267      0.000835     -0.001018
     -2.80632      5.69591      0.01434        -0.006230     -0.017228     -0.000218
      2.12300      4.27302      0.00000         0.023497      0.016022      0.023288
      2.12335      5.69594      0.00581         0.003884      0.004949     -0.000896
      7.05344      0.00333      0.01399         0.008470     -0.015677     -0.001529
      7.05353      1.42635      0.01368        -0.003034      0.013903     -0.006550
      8.28610      6.40752      0.01601         0.017670     -0.021066     -0.000602
     -4.03885      7.83070      0.01636         0.007155     -0.018822      0.000266
      3.35586      6.40753      0.01007        -0.014997     -0.011487     -0.002923
      3.35599      7.83072      0.01320        -0.018122     -0.008204      0.000231
     -0.34146      4.27290      0.00723         0.000164      0.019715     -0.005597
     -0.34138      5.69591      0.00946        -0.012939      0.003597      0.000380
      3.35624      2.13791      0.00222        -0.005721      0.033433      0.018294
      3.35573      3.56155      0.00139         0.032888     -0.008465      0.010381
     -1.57395      6.40758      0.01311         0.025202     -0.014987     -0.002275
     -1.57385      7.83068      0.01438         0.009596     -0.002975      0.000532
      5.82093      2.13784      0.01033         0.020402      0.007009     -0.001307
      5.82114      3.56097      0.01156         0.000958      0.001752     -0.006826
      0.89092      6.40755      0.00907         0.004085      0.000044     -0.004576
      0.89106      7.83068      0.01235        -0.007645      0.008625      0.001424
      4.58871      4.27293      0.00850        -0.024399     -0.003441     -0.011785
      4.58852      5.69606      0.01149         0.001123     -0.024377     -0.005129
      9.51845      0.00337      0.01490        -0.017220     -0.006341      0.000335
      9.51855      1.42644      0.01438        -0.030686      0.020118     -0.000919
      8.28593      2.13803      0.01453         0.002458     -0.000232      0.001539
      8.28613      3.56115      0.01464        -0.012931     -0.004120     -0.002596
      7.05356      4.27269      0.01457         0.003672     -0.008414      0.000180
      7.05362      5.69588      0.01553        -0.002148     -0.028792     -0.000854
      5.82112      6.40755      0.01489        -0.015651     -0.018066      0.000174
      5.82102      7.83073      0.01579        -0.005188     -0.020046      0.000322
      7.05363      8.54227      0.01631        -0.003543     -0.011093      0.001601
     -5.27149      9.96549      0.01495         0.001355     -0.001450     -0.002042
     -2.80638      8.54234      0.01558         0.028232     -0.015205     -0.000631
     -2.80627      9.96553      0.01362         0.016550      0.003887     -0.003458
     -0.34149      8.54239      0.01378         0.022948     -0.017339     -0.001616
     -0.34138      9.96550      0.01354         0.010746      0.010164     -0.002585
      2.12343      8.54232      0.01336        -0.013022     -0.014151     -0.000886
      2.12354      9.96544      0.01469        -0.023820      0.013537     -0.002830
      4.58846      8.54235      0.01505        -0.019804     -0.016508      0.001847
      4.58853      9.96550      0.01517        -0.024658      0.006793      0.000963
      3.04930      2.68154      7.49154        -0.034574      0.022699      0.038581
      4.02070      2.02068      7.55596        -1.649095      1.103510     -0.123487
      2.07767      3.34267      7.43208         1.676713     -1.104976      0.081816
 -----------------------------------------------------------------------------------
    total drift:                               -0.003472      0.036076      0.009792


--------------------------------------------------------------------------------------------------------



  FREE ENERGIE OF THE ION-ELECTRON SYSTEM (eV)
  ---------------------------------------------------
  free  energy   TOTEN  =      -525.86969257 eV

  energy  without entropy=     -525.86969257  energy(sigma->0) =     -525.86969257
 


--------------------------------------------------------------------------------------------------------


    POTLOK:  cpu time    8.3702: real time    8.4494


--------------------------------------------------------------------------------------------------------


 writing wavefunctions
     LOOP+:  cpu time 1409.0415: real time 1420.5200
    4ORBIT:  cpu time    0.0000: real time    0.0000

 total amount of memory used by VASP MPI-rank0   698619. kBytes
=======================================================================

   base      :      30000. kBytes
   nonl-proj :     230539. kBytes
   fftplans  :      40716. kBytes
   grid      :     363125. kBytes
   one-center:        162. kBytes
   wavefun   :      34077. kBytes
 
  
  
 General timing and accounting informations for this job:
 ========================================================
  
                  Total CPU time used (sec):     1454.450
                            User time (sec):     1408.132
                          System time (sec):       46.318
                         Elapsed time (sec):     1467.099
  
                   Maximum memory used (kb):     1443492.
                   Average memory used (kb):          N/A
  
                          Minor page faults:       415576
                          Major page faults:           85
                 Voluntary context switches:         3770
