 vasp.6.2.1 16May21 (build Nov 06 2021 14:46:37) complex                        
  
 executed on             LinuxIFC date 2025.03.03  18:53:19
 running on  112 total cores
 distrk:  each k-point on   56 cores,    2 groups
 distr:  one band on NCORE=   1 cores,   56 groups


--------------------------------------------------------------------------------------------------------


 INCAR:
   ALGO = Conjugate
   KPAR = 2
   NCORE = 32
   ISMEAR = 0
   SIGMA = 0.01
   PREC = Accurate
   EDIFF = 1E-7
   ENCUT = 1000
   ISIF = 0
   METAGGA = SCAN
   LUSE_VDW = .TRUE.
   BPARAM = 15.7
   LASPH = .TRUE.
   SYMPREC = 1E-7
   NELM = 200

 POTCAR:    PAW_PBE C_h 06Feb2004                 
 POTCAR:    PAW_PBE O_h 06Feb2004                 
 -----------------------------------------------------------------------------
|                                                                             |
|           W    W    AA    RRRRR   N    N  II  N    N   GGGG   !!!           |
|           W    W   A  A   R    R  NN   N  II  NN   N  G    G  !!!           |
|           W    W  A    A  R    R  N N  N  II  N N  N  G       !!!           |
|           W WW W  AAAAAA  RRRRR   N  N N  II  N  N N  G  GGG   !            |
|           WW  WW  A    A  R   R   N   NN  II  N   NN  G    G                |
|           W    W  A    A  R    R  N    N  II  N    N   GGGG   !!!           |
|                                                                             |
|     The value NCORE = 32 specified in the INCAR file was overwritten,       |
|     because it was not compatible with the 56 processes available:          |
|     NCORE = 1                                                               |
|     was used instead, please check that this makes sense for your           |
|     machine.                                                                |
|                                                                             |
 -----------------------------------------------------------------------------

 -----------------------------------------------------------------------------
|                                                                             |
|           W    W    AA    RRRRR   N    N  II  N    N   GGGG   !!!           |
|           W    W   A  A   R    R  NN   N  II  NN   N  G    G  !!!           |
|           W    W  A    A  R    R  N N  N  II  N N  N  G       !!!           |
|           W WW W  AAAAAA  RRRRR   N  N N  II  N  N N  G  GGG   !            |
|           WW  WW  A    A  R   R   N   NN  II  N   NN  G    G                |
|           W    W  A    A  R    R  N    N  II  N    N   GGGG   !!!           |
|                                                                             |
|     For optimal performance we recommend to set                             |
|       NCORE = 2 up to number-of-cores-per-socket                            |
|     NCORE specifies how many cores store one orbital (NPAR=cpu/NCORE).      |
|     This setting can greatly improve the performance of VASP for DFT.       |
|     The default, NCORE=1 might be grossly inefficient on modern             |
|     multi-core architectures or massively parallel machines. Do your        |
|     own testing! More info at https://www.vasp.at/wiki/index.php/NCORE      |
|     Unfortunately you need to use the default for GW and RPA                |
|     calculations (for HF NCORE is supported but not extensively tested      |
|     yet).                                                                   |
|                                                                             |
 -----------------------------------------------------------------------------

 -----------------------------------------------------------------------------
|                                                                             |
|               ----> ADVICE to this user running VASP <----                  |
|                                                                             |
|     You have switched on vdW-DFT.                                           |
|     This routine was written and supplied by Jiri Klimes. We recommend      |
|     that you carefully read and cite the following publications:            |
|       J. Klimes, D.R. Bowler, A. Michelides                                 |
|          J. Phys.: Cond Matt. 22 022201 (2010)                              |
|       J. Klimes, D.R. Bowler, A. Michelides                                 |
|          Phys. Rev. B. 83, 195131 (2011)                                    |
|     and references therein.                                                 |
|                                                                             |
 -----------------------------------------------------------------------------

 POTCAR:    PAW_PBE C_h 06Feb2004                 
   VRHFIN =C: s2p2                                                                                  
   LEXCH  = PE                                                                                      
   EATOM  =   147.1560 eV,   10.8157 Ry                                                             
                                                                                                    
   TITEL  = PAW_PBE C_h 06Feb2004                                                                   
   LULTRA =        F    use ultrasoft PP ?                                                          
   IUNSCR =        1    unscreen: 0-lin 1-nonlin 2-no                                               
   RPACOR =    0.800    partial core radius                                                         
   POMASS =   12.011; ZVAL   =    4.000    mass and valenz                                          
   RCORE  =    1.100    outmost cutoff radius                                                       
   RWIGS  =    1.630; RWIGS  =    0.863    wigner-seitz radius (au A)                               
   ENMAX  =  700.000; ENMIN  =  500.000 eV                                                          
   ICORE  =        2    local potential                                                             
   LCOR   =        T    correct aug charges                                                         
   LPAW   =        T    paw PP                                                                      
   EAUG   =  946.768                                                                                
   DEXC   =    0.000                                                                                
   RMAX   =    1.128    core radius for proj-oper                                                   
   RAUG   =    1.300    factor for augmentation sphere                                              
   RDEP   =    1.162    radius for radial grids                                                     
   RDEPT  =    1.088    core radius for aug-charge                                                  
                                                                                                    
   Atomic configuration                                                                             
    4 entries                                                                                       
     n  l   j            E        occ.                                                              
     1  0  0.50      -273.3789   2.0000                                                             
     2  0  0.50       -13.7508   2.0000                                                             
     2  1  0.50        -5.2854   2.0000                                                             
     3  2  1.50        -5.4423   0.0000                                                             
   Description                                                                                      
     l       E           TYP  RCUT    TYP  RCUT                                                     
     0    -13.7508458     23  1.100                                                                 
     0     -8.2022199     23  1.100                                                                 
     1     -5.2854383     23  1.100                                                                 
     1      1.1560700     23  1.100                                                                 
     2     -5.4423304      7  1.100                                                                 
  local pseudopotential read in
  partial core-charges read in
  partial kinetic energy density read in
  atomic valenz-charges read in
  non local Contribution for L=           0  read in
    real space projection operators read in
  non local Contribution for L=           0  read in
    real space projection operators read in
  non local Contribution for L=           1  read in
    real space projection operators read in
  non local Contribution for L=           1  read in
    real space projection operators read in
    PAW grid and wavefunctions read in
 
   number of l-projection  operators is LMAX  =           4
   number of lm-projection operators is LMMAX =           8
 
 POTCAR:    PAW_PBE O_h 06Feb2004                 
   VRHFIN =O: s2p4                                                                                  
   LEXCH  = PE                                                                                      
   EATOM  =   432.3788 eV,   31.7789 Ry                                                             
                                                                                                    
   TITEL  = PAW_PBE O_h 06Feb2004                                                                   
   LULTRA =        F    use ultrasoft PP ?                                                          
   IUNSCR =        1    unscreen: 0-lin 1-nonlin 2-no                                               
   RPACOR =    0.800    partial core radius                                                         
   POMASS =   16.000; ZVAL   =    6.000    mass and valenz                                          
   RCORE  =    1.100    outmost cutoff radius                                                       
   RWIGS  =    1.400; RWIGS  =    0.741    wigner-seitz radius (au A)                               
   ENMAX  =  700.000; ENMIN  =  500.000 eV                                                          
   ICORE  =        2    local potential                                                             
   LCOR   =        T    correct aug charges                                                         
   LPAW   =        T    paw PP                                                                      
   EAUG   =  888.804                                                                                
   DEXC   =    0.000                                                                                
   RMAX   =    1.128    core radius for proj-oper                                                   
   RAUG   =    1.300    factor for augmentation sphere                                              
   RDEP   =    1.125    radius for radial grids                                                     
   RDEPT  =    1.088    core radius for aug-charge                                                  
                                                                                                    
   Atomic configuration                                                                             
    4 entries                                                                                       
     n  l   j            E        occ.                                                              
     1  0  0.50      -514.6923   2.0000                                                             
     2  0  0.50       -23.9615   2.0000                                                             
     2  1  0.50        -9.0305   4.0000                                                             
     3  2  1.50        -9.5241   0.0000                                                             
   Description                                                                                      
     l       E           TYP  RCUT    TYP  RCUT                                                     
     0    -23.9615319     23  1.100                                                                 
     0    -25.3221145     23  1.100                                                                 
     1     -9.0304911     23  1.100                                                                 
     1     -5.4802209     23  1.100                                                                 
     2     -9.5240782      7  1.100                                                                 
  local pseudopotential read in
  partial core-charges read in
  partial kinetic energy density read in
  atomic valenz-charges read in
  non local Contribution for L=           0  read in
    real space projection operators read in
  non local Contribution for L=           0  read in
    real space projection operators read in
  non local Contribution for L=           1  read in
    real space projection operators read in
  non local Contribution for L=           1  read in
    real space projection operators read in
    PAW grid and wavefunctions read in
 
   number of l-projection  operators is LMAX  =           4
   number of lm-projection operators is LMMAX =           8
 
 -----------------------------------------------------------------------------
|                                                                             |
|               ----> ADVICE to this user running VASP <----                  |
|                                                                             |
|     You have a (more or less) 'large supercell' and for larger cells it     |
|     might be more efficient to use real-space projection operators.         |
|     Therefore, try LREAL= Auto in the INCAR file.                           |
|     Mind: For very accurate calculation, you might also keep the            |
|     reciprocal projection scheme (i.e. LREAL=.FALSE.).                      |
|                                                                             |
 -----------------------------------------------------------------------------

  PAW_PBE C_h 06Feb2004                 :
 energy of atom  1       EATOM= -147.1560
 kinetic energy error for atom=    0.0031 (will be added to EATOM!!)
  PAW_PBE O_h 06Feb2004                 :
 energy of atom  2       EATOM= -432.3788
 kinetic energy error for atom=    0.0171 (will be added to EATOM!!)
 
 
 POSCAR:  C  O
  positions in cartesian coordinates
  No initial velocities read in

 METAGGA = SCAN     LMAXTAU =  6    LMIXTAU =  F

 exchange correlation table for  LEXCH =        8
   RHO(1)=    0.500       N(1)  =     2000
   RHO(2)=  100.500       N(2)  =     4000
 


--------------------------------------------------------------------------------------------------------


 ion  position               nearest neighbor table
   1  0.972  0.000  0.001-  50 1.42   2 1.42  42 1.42
   2  0.039  0.134  0.001-   5 1.42   7 1.42   1 1.42
   3  0.172  0.000  0.001-  42 1.42  44 1.42   4 1.42
   4  0.239  0.134  0.000-   7 1.42   3 1.42  23 1.42
   5  0.972  0.200  0.001-   6 1.42   2 1.42  34 1.42
   6  0.039  0.334  0.001-   5 1.42  21 1.42  11 1.42
   7  0.172  0.200  0.000-   8 1.42   2 1.42   4 1.42
   8  0.239  0.334  0.000-  13 1.42   7 1.42  21 1.42
   9  0.372  0.000  0.001-  10 1.42  44 1.42  46 1.42
  10  0.439  0.134  0.000-  27 1.42   9 1.42  23 1.42
  11  0.972  0.400  0.001-  12 1.42  36 1.42   6 1.42
  12  0.039  0.534  0.001-  25 1.42  11 1.42  17 1.42
  13  0.372  0.400  0.000-   8 1.42  14 1.42  24 1.42
  14  0.439  0.534  0.000-  13 1.42  29 1.42  19 1.42
  15  0.572  0.000  0.001-  46 1.42  16 1.42  48 1.42
  16  0.639  0.134  0.001-  15 1.42  35 1.42  27 1.42
  17  0.972  0.600  0.001-  38 1.42  18 1.42  12 1.42
  18  0.039  0.734  0.001-  43 1.42  41 1.42  17 1.42
  19  0.572  0.600  0.001-  14 1.42  20 1.42  32 1.42
  20  0.639  0.734  0.001-  49 1.42  19 1.42  47 1.42
  21  0.172  0.400  0.000-  22 1.42   8 1.42   6 1.42
  22  0.239  0.534  0.000-  21 1.42  29 1.42  25 1.42
  23  0.372  0.200  0.000-  10 1.42   4 1.42  24 1.42
  24  0.439  0.334  0.000-  13 1.42  31 1.42  23 1.42
  25  0.172  0.600  0.001-  26 1.42  12 1.42  22 1.42
  26  0.239  0.734  0.001-  25 1.42  45 1.42  43 1.42
  27  0.572  0.200  0.001-  10 1.42  28 1.42  16 1.42
  28  0.639  0.334  0.001-  27 1.42  37 1.42  31 1.42
  29  0.372  0.600  0.000-  22 1.42  14 1.42  30 1.42
  30  0.439  0.734  0.001-  47 1.42  29 1.42  45 1.42
  31  0.572  0.400  0.000-  32 1.42  28 1.42  24 1.42
  32  0.639  0.534  0.001-  31 1.42  39 1.42  19 1.42
  33  0.772  0.000  0.001-  34 1.42  48 1.42  50 1.42
  34  0.839  0.134  0.001-  33 1.42   5 1.42  35 1.42
  35  0.772  0.200  0.001-  36 1.42  16 1.42  34 1.42
  36  0.839  0.334  0.001-  35 1.42  11 1.42  37 1.42
  37  0.772  0.400  0.001-  28 1.42  38 1.42  36 1.42
  38  0.839  0.534  0.001-  17 1.42  37 1.42  39 1.42
  39  0.772  0.600  0.001-  40 1.42  38 1.42  32 1.42
  40  0.839  0.734  0.001-  39 1.42  49 1.42  41 1.42
  41  0.972  0.800  0.001-  18 1.42  42 1.42  40 1.42
  42  0.039  0.934  0.001-   3 1.42  41 1.42   1 1.42
  43  0.172  0.800  0.001-  18 1.42  44 1.42  26 1.42
  44  0.239  0.934  0.001-   9 1.42  43 1.42   3 1.42
  45  0.372  0.800  0.001-  26 1.42  46 1.42  30 1.42
  46  0.439  0.934  0.001-  15 1.42  45 1.42   9 1.42
  47  0.572  0.800  0.001-  30 1.42  48 1.42  20 1.42
  48  0.639  0.934  0.001-  47 1.42  33 1.42  15 1.42
  49  0.772  0.800  0.001-  50 1.42  20 1.42  40 1.42
  50  0.839  0.934  0.001-  49 1.42   1 1.42  33 1.42
  51  0.373  0.251  0.177-  52 1.18  53 1.18
  52  0.421  0.189  0.180-  51 1.18
  53  0.325  0.313  0.174-  51 1.18
 
  LATTYP: Found a hexagonal cell.
 ALAT       =    12.3250000000
 C/A-ratio  =     1.6227180527
  
  Lattice vectors:
  
 A1 = (  12.3250000000,   0.0000000000,   0.0000000000)
 A2 = (  -6.1625000000,  10.6737631016,   0.0000000000)
 A3 = (   0.0000000000,   0.0000000000,  20.0000000000)


Analysis of symmetry for initial positions (statically):
=====================================================================
 Subroutine PRICEL returns:
 Original cell was already a primitive cell.
 

 Routine SETGRP: Setting up the symmetry group for a 
 hexagonal supercell.


 Subroutine GETGRP returns: Found  1 space group operations
 (whereof  1 operations were pure point group operations)
 out of a pool of 24 trial point group operations.


The static configuration has the point symmetry C_1 .


Analysis of symmetry for dynamics (positions and initial velocities):
=====================================================================
 Subroutine PRICEL returns:
 Original cell was already a primitive cell.
 

 Routine SETGRP: Setting up the symmetry group for a 
 hexagonal supercell.


 Subroutine GETGRP returns: Found  1 space group operations
 (whereof  1 operations were pure point group operations)
 out of a pool of 24 trial point group operations.


The dynamic configuration has the point symmetry C_1 .


 Subroutine INISYM returns: Found  1 space group operations
 (whereof  1 operations are pure point group operations),
 and found     1 'primitive' translations


----------------------------------------------------------------------------------------

                                     Primitive cell                                     

  volume of cell :    2631.0826

  direct lattice vectors                    reciprocal lattice vectors
    12.325000000  0.000000000  0.000000000     0.081135903  0.046843835  0.000000000
    -6.162500000 10.673763102  0.000000000     0.000000000  0.093687670  0.000000000
     0.000000000  0.000000000 20.000000000     0.000000000  0.000000000  0.050000000

  length of vectors
    12.325000000 12.325000000 20.000000000     0.093687670  0.093687670  0.050000000

  position of ions in fractional coordinates (direct lattice)
     0.972450841  0.000320818  0.000708389
     0.039118382  0.133659505  0.000550216
     0.172443627  0.000295449  0.000624535
     0.239096278  0.133647917  0.000320585
     0.972452058  0.200322012  0.000606523
     0.039128360  0.333643771  0.000555187
     0.172451764  0.200354552  0.000273959
     0.239124359  0.333665720  0.000090325
     0.372465565  0.000324403  0.000567391
     0.439137473  0.133619939  0.000322923
     0.972449824  0.400309362  0.000684513
     0.039124981  0.533636789  0.000716763
     0.372416176  0.400329481  0.000000000
     0.439099602  0.533638981  0.000290518
     0.572443676  0.000312125  0.000699475
     0.639110207  0.133631751  0.000684093
     0.972452703  0.600305653  0.000800361
     0.039124495  0.733640359  0.000818141
     0.572433471  0.600306242  0.000503618
     0.639111888  0.733641879  0.000659881
     0.172454630  0.400318228  0.000361306
     0.239120185  0.533636548  0.000473136
     0.372459750  0.200295993  0.000111246
     0.439107096  0.333673419  0.000069702
     0.172452155  0.600311506  0.000655425
     0.239123371  0.733638574  0.000718912
     0.572431082  0.200289171  0.000516621
     0.639112773  0.333618630  0.000577970
     0.372439808  0.600308022  0.000453556
     0.439116090  0.733637858  0.000617737
     0.572469358  0.400320504  0.000424897
     0.639119408  0.533650873  0.000574513
     0.772445723  0.000315427  0.000745201
     0.839116277  0.133640203  0.000719132
     0.772440513  0.200307432  0.000726291
     0.839120241  0.333635728  0.000731834
     0.772446320  0.400298367  0.000728722
     0.839118980  0.533633964  0.000776376
     0.772456143  0.600308173  0.000744639
     0.839115033  0.733643180  0.000789390
     0.972455313  0.800305582  0.000815291
     0.039114714  0.933643289  0.000747563
     0.172457971  0.800312211  0.000779216
     0.239134551  0.933647193  0.000681063
     0.372451396  0.800316674  0.000689249
     0.439124489  0.933644769  0.000676788
     0.572441101  0.800310054  0.000668168
     0.639115067  0.933638985  0.000734556
     0.772445098  0.800313187  0.000752577
     0.839116614  0.933644338  0.000758538
     0.373021009  0.251226878  0.176776696
     0.420879805  0.189313152  0.179997789
     0.325156981  0.313167186  0.173803952

  ion indices of the primitive-cell ions
   primitive index   ion index
                 1           1
                 2           2
                 3           3
                 4           4
                 5           5
                 6           6
                 7           7
                 8           8
                 9           9
                10          10
                11          11
                12          12
                13          13
                14          14
                15          15
                16          16
                17          17
                18          18
                19          19
                20          20
                21          21
                22          22
                23          23
                24          24
                25          25
                26          26
                27          27
                28          28
                29          29
                30          30
                31          31
                32          32
                33          33
                34          34
                35          35
                36          36
                37          37
                38          38
                39          39
                40          40
                41          41
                42          42
                43          43
                44          44
                45          45
                46          46
                47          47
                48          48
                49          49
                50          50
                51          51
                52          52
                53          53

----------------------------------------------------------------------------------------

 
 
 KPOINTS: auto                                    

Automatic generation of k-mesh.
 Grid dimensions read from file:
 generate k-points for:    1    1    1

 Generating k-lattice:

  Cartesian coordinates                     Fractional coordinates (reciprocal lattice)
     0.081135903  0.046843835  0.000000000     1.000000000 -0.000000000  0.000000000
     0.000000000  0.093687670  0.000000000     0.000000000  1.000000000  0.000000000
     0.000000000  0.000000000  0.050000000     0.000000000  0.000000000  1.000000000

  Length of vectors
     0.093687670  0.093687670  0.050000000

  Shift w.r.t. Gamma in fractional coordinates (k-lattice)
     0.000000000  0.000000000  0.000000000

 
 Subroutine IBZKPT returns following result:
 ===========================================
 
 Found      1 irreducible k-points:
 
 Following reciprocal coordinates:
            Coordinates               Weight
  0.000000  0.000000  0.000000      1.000000
 
 Following cartesian coordinates:
            Coordinates               Weight
  0.000000  0.000000  0.000000      1.000000
 


--------------------------------------------------------------------------------------------------------




 Dimension of arrays:
   k-points           NKPTS =      1   k-points in BZ     NKDIM =      1   number of bands    NBANDS=    168
   number of dos      NEDOS =    301   number of ions     NIONS =     53
   non local maximal  LDIM  =      4   non local SUM 2l+1 LMDIM =      8
   total plane-waves  NPLWV = ******
   max r-space proj   IRMAX =      1   max aug-charges    IRDMAX=   9736
   dimension x,y,z NGX =   128 NGY =  128 NGZ =  210
   dimension x,y,z NGXF=   256 NGYF=  256 NGZF=  420
   support grid    NGXF=   256 NGYF=  256 NGZF=  420
   ions per type =              51   2
   NGX,Y,Z   is equivalent  to a cutoff of  17.27, 17.27, 17.46 a.u.
   NGXF,Y,Z  is equivalent  to a cutoff of  34.53, 34.53, 34.91 a.u.

 SYSTEM =  unknown system                          
 POSCAR =   C  O                                   

 Startparameter for this run:
   NWRITE =      2    write-flag & timer
   PREC   = accura    normal or accurate (medium, high low for compatibility)
   ISTART =      0    job   : 0-new  1-cont  2-samecut
   ICHARG =      2    charge: 1-file 2-atom 10-const
   ISPIN  =      1    spin polarized calculation?
   LNONCOLLINEAR =      F non collinear calculations
   LSORBIT =      F    spin-orbit coupling
   INIWAV =      1    electr: 0-lowe 1-rand  2-diag
   LASPH  =      T    aspherical Exc in radial PAW
 Electronic Relaxation 1
   ENCUT  = 1000.0 eV  73.50 Ry    8.57 a.u.  31.78 31.78 51.57*2*pi/ulx,y,z
   ENINI  = 1000.0     initial cutoff
   ENAUG  =  946.8 eV  augmentation charge cutoff
   NELM   =    200;   NELMIN=  2; NELMDL= -5     # of ELM steps 
   EDIFF  = 0.1E-06   stopping-criterion for ELM
   LREAL  =      F    real-space projection
   NLSPLINE    = F    spline interpolate recip. space projectors
   LCOMPAT=      F    compatible to vasp.4.4
   GGA_COMPAT  = T    GGA compatible to vasp.4.4-vasp.4.6
   LMAXPAW     = -100 max onsite density
   LMAXMIX     =    2 max onsite mixed and CHGCAR
   VOSKOWN=      0    Vosko Wilk Nusair interpolation
   ROPT   =    0.00000   0.00000
 Ionic relaxation
   EDIFFG = 0.1E-05   stopping-criterion for IOM
   NSW    =      0    number of steps for IOM
   NBLOCK =      1;   KBLOCK =      1    inner block; outer block 
   IBRION =     -1    ionic relax: 0-MD 1-quasi-New 2-CG
   NFREE  =      0    steps in history (QN), initial steepest desc. (CG)
   ISIF   =      0    stress and relaxation
   IWAVPR =     10    prediction:  0-non 1-charg 2-wave 3-comb
   ISYM   =      2    0-nonsym 1-usesym 2-fastsym
   LCORR  =      T    Harris-Foulkes like correction to forces

   POTIM  = 0.5000    time-step for ionic-motion
   TEIN   =    0.0    initial temperature
   TEBEG  =    0.0;   TEEND  =   0.0 temperature during run
   SMASS  =  -3.00    Nose mass-parameter (am)
   estimated Nose-frequenzy (Omega)   =  0.10E-29 period in steps = 0.13E+47 mass=  -0.347E-26a.u.
   SCALEE = 1.0000    scale energy and forces
   NPACO  =    256;   APACO  = 16.0  distance and # of slots for P.C.
   PSTRESS=    0.0 pullay stress

  Mass of Ions in am
   POMASS =  12.01 16.00
  Ionic Valenz
   ZVAL   =   4.00  6.00
  Atomic Wigner-Seitz radii
   RWIGS  =  -1.00 -1.00
  virtual crystal weights 
   VCA    =   1.00  1.00
   NELECT =     216.0000    total number of electrons
   NUPDOWN=      -1.0000    fix difference up-down

 DOS related values:
   EMIN   =  10.00;   EMAX   =-10.00  energy-range for DOS
   EFERMI =   0.00
   ISMEAR =     0;   SIGMA  =   0.01  broadening in eV -4-tet -1-fermi 0-gaus

 Electronic relaxation 2 (details)
   IALGO  =     58    algorithm
   LDIAG  =      T    sub-space diagonalisation (order eigenvalues)
   LSUBROT=      F    optimize rotation matrix (better conditioning)
   TURBO    =      0    0=normal 1=particle mesh
   IRESTART =      0    0=no restart 2=restart with 2 vectors
   NREBOOT  =      0    no. of reboots
   NMIN     =      0    reboot dimension
   EREF     =   0.00    reference energy to select bands
   IMIX   =      4    mixing-type and parameters
     AMIX     =   0.40;   BMIX     =  1.00
     AMIX_MAG =   1.60;   BMIX_MAG =  1.00
     AMIN     =   0.10
     WC   =   100.;   INIMIX=   1;  MIXPRE=   1;  MAXMIX= -45

 Intra band minimization:
   WEIMIN = 0.0000     energy-eigenvalue tresh-hold
   EBREAK =  0.15E-09  absolut break condition
   DEPER  =   0.30     relativ break condition  

   TIME   =   0.40     timestep for ELM

  volume/ion in A,a.u.               =      49.64       335.01
  Fermi-wavevector in a.u.,A,eV,Ry     =   0.711510  1.344560  6.887909  0.506247
  Thomas-Fermi vector in A             =   1.798641
 
 Write flags
   LWAVE        =      T    write WAVECAR
   LDOWNSAMPLE  =      F    k-point downsampling of WAVECAR
   LCHARG       =      T    write CHGCAR
   LVTOT        =      F    write LOCPOT, total local potential
   LVHAR        =      F    write LOCPOT, Hartree potential only
   LELF         =      F    write electronic localiz. function (ELF)
   LORBIT       =      0    0 simple, 1 ext, 2 COOP (PROOUT), +10 PAW based schemes


 Dipole corrections
   LMONO  =      F    monopole corrections only (constant potential shift)
   LDIPOL =      F    correct potential (dipole corrections)
   IDIPOL =      0    1-x, 2-y, 3-z, 4-all directions 
   EPSILON=  1.0000000 bulk dielectric constant

 Exchange correlation treatment:
   GGA     =    --    GGA type
   LEXCH   =     8    internal setting for exchange type
   VOSKOWN=      0    Vosko Wilk Nusair interpolation
   LHFCALC =     F    Hartree Fock is set to
   LHFONE  =     F    Hartree Fock one center treatment
   AEXX    =    0.0000 exact exchange contribution

 vdW DFT:
   LUSE_VDW   =     T    switch on vdW DFT
   Zab_VDW    =-.8491    correlation parameter
   PARAM1     =0.1234
   PARAM2     =1.0000
   PARAM3     =0.0000
   -- rVV10 --
   BPARAM     =15.7000
   CPARAM     = 0.0093

 Linear response parameters
   LEPSILON=     F    determine dielectric tensor
   LRPA    =     F    only Hartree local field effects (RPA)
   LNABLA  =     F    use nabla operator in PAW spheres
   LVEL    =     F    velocity operator in full k-point grid
   LINTERFAST=   F  fast interpolation
   KINTER  =     0    interpolate to denser k-point grid
   CSHIFT  =0.1000    complex shift for real part using Kramers Kronig
   OMEGAMAX=  -1.0    maximum frequency
   DEG_THRESHOLD= 0.2000000E-02 threshold for treating states as degnerate
   RTIME   =   -0.100 relaxation time in fs
  (WPLASMAI=    0.000 imaginary part of plasma frequency in eV, 0.658/RTIME)
   DFIELD  = 0.0000000 0.0000000 0.0000000 field for delta impulse in time
 
 Orbital magnetization related:
   ORBITALMAG=     F  switch on orbital magnetization
   LCHIMAG   =     F  perturbation theory with respect to B field
   DQ        =  0.001000  dq finite difference perturbation B field
   LLRAUG    =     F  two centre corrections for induced B field



--------------------------------------------------------------------------------------------------------


 Static calculation
 charge density and potential will be updated during run
 non-spin polarized calculation
 Conjugate gradient for all bands (Freysoldt, et al. PRB 79, 241103 (2009))
 preconditioned conjugated gradient                                        
 perform sub-space diagonalisation
    before iterative eigenvector-optimisation
 modified Broyden-mixing scheme, WC =      100.0
 initial mixing is a Kerker type mixing with AMIX =  0.4000 and BMIX =      1.0000
 Hartree-type preconditioning will be used
 using additional bands           60
 reciprocal scheme for non local part
 use partial core corrections
 no Harris-corrections to forces 
 use gradient corrections 
 use of overlap-Matrix (Vanderbilt PP)
 Gauss-broadening in eV      SIGMA  =   0.01


--------------------------------------------------------------------------------------------------------


  energy-cutoff  :     1000.00
  volume of cell :     2631.08
      direct lattice vectors                 reciprocal lattice vectors
    12.325000000  0.000000000  0.000000000     0.081135903  0.046843835  0.000000000
    -6.162500000 10.673763102  0.000000000     0.000000000  0.093687670  0.000000000
     0.000000000  0.000000000 20.000000000     0.000000000  0.000000000  0.050000000

  length of vectors
    12.325000000 12.325000000 20.000000000     0.093687670  0.093687670  0.050000000


 
 k-points in units of 2pi/SCALE and weight: auto                                    
   0.00000000  0.00000000  0.00000000       1.000
 
 k-points in reciprocal lattice and weights: auto                                    
   0.00000000  0.00000000  0.00000000       1.000
 
 position of ions in fractional coordinates (direct lattice) 
   0.97245084  0.00032082  0.00070839
   0.03911838  0.13365950  0.00055022
   0.17244363  0.00029545  0.00062454
   0.23909628  0.13364792  0.00032058
   0.97245206  0.20032201  0.00060652
   0.03912836  0.33364377  0.00055519
   0.17245176  0.20035455  0.00027396
   0.23912436  0.33366572  0.00009033
   0.37246557  0.00032440  0.00056739
   0.43913747  0.13361994  0.00032292
   0.97244982  0.40030936  0.00068451
   0.03912498  0.53363679  0.00071676
   0.37241618  0.40032948  0.00000000
   0.43909960  0.53363898  0.00029052
   0.57244368  0.00031213  0.00069947
   0.63911021  0.13363175  0.00068409
   0.97245270  0.60030565  0.00080036
   0.03912449  0.73364036  0.00081814
   0.57243347  0.60030624  0.00050362
   0.63911189  0.73364188  0.00065988
   0.17245463  0.40031823  0.00036131
   0.23912018  0.53363655  0.00047314
   0.37245975  0.20029599  0.00011125
   0.43910710  0.33367342  0.00006970
   0.17245216  0.60031151  0.00065542
   0.23912337  0.73363857  0.00071891
   0.57243108  0.20028917  0.00051662
   0.63911277  0.33361863  0.00057797
   0.37243981  0.60030802  0.00045356
   0.43911609  0.73363786  0.00061774
   0.57246936  0.40032050  0.00042490
   0.63911941  0.53365087  0.00057451
   0.77244572  0.00031543  0.00074520
   0.83911628  0.13364020  0.00071913
   0.77244051  0.20030743  0.00072629
   0.83912024  0.33363573  0.00073183
   0.77244632  0.40029837  0.00072872
   0.83911898  0.53363396  0.00077638
   0.77245614  0.60030817  0.00074464
   0.83911503  0.73364318  0.00078939
   0.97245531  0.80030558  0.00081529
   0.03911471  0.93364329  0.00074756
   0.17245797  0.80031221  0.00077922
   0.23913455  0.93364719  0.00068106
   0.37245140  0.80031667  0.00068925
   0.43912449  0.93364477  0.00067679
   0.57244110  0.80031005  0.00066817
   0.63911507  0.93363899  0.00073456
   0.77244510  0.80031319  0.00075258
   0.83911661  0.93364434  0.00075854
   0.37302101  0.25122688  0.17677670
   0.42087980  0.18931315  0.17999779
   0.32515698  0.31316719  0.17380395
 
 position of ions in cartesian coordinates  (Angst):
  11.98347958  0.00342433  0.01416777
  -0.34154264  1.42664989  0.01100432
   2.12354700  0.00315355  0.01249070
   2.12325634  1.42652621  0.00641170
  10.75098721  2.13818970  0.01213047
  -1.57382270  3.56123457  0.01110375
   0.89078307  2.13853702  0.00547917
   0.89099273  3.56146885  0.00180651
   4.58863896  0.00346260  0.01134782
   4.58893648  1.42622757  0.00645846
   9.51853763  4.27280730  0.01369027
  -2.80632132  5.69591267  0.01433526
   2.12299894  4.27302204  0.00000000
   2.12335237  5.69593607  0.00581036
   7.05344483  0.00333155  0.01398950
   7.05352764  1.42635365  0.01368187
   8.28609598  6.40752033  0.01600723
  -4.03884931  7.83070339  0.01636283
   3.35585531  6.40752662  0.01007237
   3.35598594  7.83071962  0.01319763
  -0.34145776  4.27290193  0.00722612
  -0.34137895  5.69591010  0.00946273
   3.35624236  2.13791198  0.00222492
   3.35573251  3.56155103  0.00139405
  -1.57394684  6.40758280  0.01310850
  -1.57385216  7.83068434  0.01437823
   5.82093107  2.13783916  0.01033241
   5.82114012  3.56096622  0.01155939
   0.89092245  6.40754561  0.00907111
   0.89106251  7.83067670  0.01235474
   4.58870974  4.27292622  0.00849795
   4.58852320  5.69606300  0.01149026
   9.51844972  0.00336679  0.01490402
   9.51855036  1.42644387  0.01438264
   8.28593477  2.13803408  0.01452582
   8.28612680  3.56114872  0.01463668
   7.05356221  4.27268994  0.01457444
   7.05362213  5.69588251  0.01552751
   5.82112285  6.40754723  0.01489279
   5.82101669  7.83073350  0.01578780
   7.05362858  8.54227219  0.01630582
  -5.27148792  9.96548729  0.01495127
  -2.80637951  8.54234295  0.01558431
  -2.80626749  9.96552896  0.01362126
  -0.34148805  8.54239058  0.01378498
  -0.34137657  9.96550309  0.01353576
   2.12342586  8.54231992  0.01336337
   2.12354296  9.96544135  0.01469111
   4.58845581  8.54235337  0.01505154
   4.58852904  9.96549848  0.01517076
   3.04929830  2.68153618  3.53553391
   4.02070129  2.02068374  3.59995577
   2.07766701  3.34267235  3.47607904
 


--------------------------------------------------------------------------------------------------------


 k-point   1 :   0.0000 0.0000 0.0000  plane waves:  189031

 maximum and minimum number of plane-waves per node :    189031   189031

 maximum number of plane-waves:    189031
 maximum index in each direction: 
   IXMAX=   31   IYMAX=   31   IZMAX=   51
   IXMIN=  -31   IYMIN=  -31   IZMIN=  -51


 serial   3D FFT for wavefunctions
 parallel 3D FFT for charge:
    minimum data exchange during FFTs selected (reduces bandwidth)


 total amount of memory used by VASP MPI-rank0   556209. kBytes
=======================================================================

   base      :      30000. kBytes
   nonl-proj :     184518. kBytes
   fftplans  :      31725. kBytes
   grid      :     282516. kBytes
   one-center:        162. kBytes
   wavefun   :      27288. kBytes
 
     INWAV:  cpu time    0.0000: real time    0.0000
 Broyden mixing: mesh for mixing (old mesh)
   NGX = 63   NGY = 63   NGZ =103
  (NGX  =256   NGY  =256   NGZ  =420)
  gives a total of 408807 points

 initial charge density was supplied:
 charge density of overlapping atoms calculated
 number of electron     216.0000000 magnetization 
 keeping initial charge density in first step


--------------------------------------------------------------------------------------------------------


 Maximum index for augmentation-charges          459 (set IRDMAX)


--------------------------------------------------------------------------------------------------------


 First call to EWALD:  gamma=   0.128
 Maximum number of real-space cells 3x 3x 2
 Maximum number of reciprocal cells 3x 3x 4

    FEWALD:  cpu time    0.0039: real time    0.0039


--------------------------------------- Iteration      1(   1)  ---------------------------------------


    POTLOK:  cpu time    6.2353: real time    6.2746
    SETDIJ:  cpu time    0.2024: real time    0.2031
    TRIAL :  cpu time   21.7445: real time   21.9729
    CORREC:  cpu time    0.0003: real time    0.0005
    --------------------------------------------
      LOOP:  cpu time   28.1911: real time   28.4737

 eigenvalue-minimisations  :   336
 total energy-change (2. order) : 0.2413593E+04  (-0.1180889E+05)
 number of electron     216.0000000 magnetization 
 augmentation part      216.0000000 magnetization 

 Free energy of the ion-electron system (eV)
  ---------------------------------------------------
  alpha Z        PSCENC =        59.93625244
  Ewald energy   TEWEN  =     33820.06779040
  -Hartree energ DENC   =    -39995.28311885
  -exchange      EXHF   =         0.00000000
  -V(xc)+E(xc)   XCENC  =       604.41279523
  PAW double counting   =      6339.73130699    -6197.22120962
  entropy T*S    EENTRO =        -0.00000000
  eigenvalues    EBANDS =      -587.57466516
  atomic energy  EATOM  =      8369.52358910
  ---------------------------------------------------
  free energy    TOTEN  =      2413.59274052 eV

  energy without entropy =     2413.59274052  energy(sigma->0) =     2413.59274052


--------------------------------------------------------------------------------------------------------




--------------------------------------- Iteration      1(   2)  ---------------------------------------


    TRIAL :  cpu time   35.5448: real time   35.8779
    CORREC:  cpu time    0.0001: real time    0.0001
    --------------------------------------------
      LOOP:  cpu time   35.5794: real time   35.9225

 eigenvalue-minimisations  :   672
 total energy-change (2. order) :-0.2470370E+04  (-0.2356458E+04)
 number of electron     216.0000000 magnetization 
 augmentation part      216.0000000 magnetization 

 Free energy of the ion-electron system (eV)
  ---------------------------------------------------
  alpha Z        PSCENC =        59.93625244
  Ewald energy   TEWEN  =     33820.06779040
  -Hartree energ DENC   =    -39995.28311885
  -exchange      EXHF   =         0.00000000
  -V(xc)+E(xc)   XCENC  =       604.41279523
  PAW double counting   =      6339.73130699    -6197.22120962
  entropy T*S    EENTRO =        -0.00000000
  eigenvalues    EBANDS =     -3057.94481580
  atomic energy  EATOM  =      8369.52358910
  ---------------------------------------------------
  free energy    TOTEN  =       -56.77741012 eV

  energy without entropy =      -56.77741012  energy(sigma->0) =      -56.77741012


--------------------------------------------------------------------------------------------------------




--------------------------------------- Iteration      1(   3)  ---------------------------------------


    TRIAL :  cpu time   24.0227: real time   24.2461
    CORREC:  cpu time    0.0001: real time    0.0001
    --------------------------------------------
      LOOP:  cpu time   24.0559: real time   24.2817

 eigenvalue-minimisations  :   392
 total energy-change (2. order) :-0.5332781E+03  (-0.5305614E+03)
 number of electron     216.0000000 magnetization 
 augmentation part      216.0000000 magnetization 

 Free energy of the ion-electron system (eV)
  ---------------------------------------------------
  alpha Z        PSCENC =        59.93625244
  Ewald energy   TEWEN  =     33820.06779040
  -Hartree energ DENC   =    -39995.28311885
  -exchange      EXHF   =         0.00000000
  -V(xc)+E(xc)   XCENC  =       604.41279523
  PAW double counting   =      6339.73130699    -6197.22120962
  entropy T*S    EENTRO =        -0.00000000
  eigenvalues    EBANDS =     -3591.22288836
  atomic energy  EATOM  =      8369.52358910
  ---------------------------------------------------
  free energy    TOTEN  =      -590.05548268 eV

  energy without entropy =     -590.05548268  energy(sigma->0) =     -590.05548268


--------------------------------------------------------------------------------------------------------




--------------------------------------- Iteration      1(   4)  ---------------------------------------


    TRIAL :  cpu time   26.3334: real time   26.5723
    CORREC:  cpu time    0.0001: real time    0.0001
    --------------------------------------------
      LOOP:  cpu time   26.3734: real time   26.6127

 eigenvalue-minimisations  :   448
 total energy-change (2. order) :-0.2443807E+02  (-0.2428500E+02)
 number of electron     216.0000000 magnetization 
 augmentation part      216.0000000 magnetization 

 Free energy of the ion-electron system (eV)
  ---------------------------------------------------
  alpha Z        PSCENC =        59.93625244
  Ewald energy   TEWEN  =     33820.06779040
  -Hartree energ DENC   =    -39995.28311885
  -exchange      EXHF   =         0.00000000
  -V(xc)+E(xc)   XCENC  =       604.41279523
  PAW double counting   =      6339.73130699    -6197.22120962
  entropy T*S    EENTRO =        -0.00000000
  eigenvalues    EBANDS =     -3615.66095567
  atomic energy  EATOM  =      8369.52358910
  ---------------------------------------------------
  free energy    TOTEN  =      -614.49354999 eV

  energy without entropy =     -614.49354999  energy(sigma->0) =     -614.49354999


--------------------------------------------------------------------------------------------------------




--------------------------------------- Iteration      1(   5)  ---------------------------------------


    TRIAL :  cpu time   26.3291: real time   26.5644
    CORREC:  cpu time    0.0001: real time    0.0001
    CHARGE:  cpu time    2.2857: real time    2.3114
    --------------------------------------------
      LOOP:  cpu time   28.6463: real time   28.9165

 eigenvalue-minimisations  :   448
 total energy-change (2. order) :-0.8561019E+00  (-0.8521107E+00)
 number of electron     216.0000000 magnetization 
 augmentation part       -0.4308033 magnetization 

 Free energy of the ion-electron system (eV)
  ---------------------------------------------------
  alpha Z        PSCENC =        59.93625244
  Ewald energy   TEWEN  =     33820.06779040
  -Hartree energ DENC   =    -39995.28311885
  -exchange      EXHF   =         0.00000000
  -V(xc)+E(xc)   XCENC  =       604.41279523
  PAW double counting   =      6339.73130699    -6197.22120962
  entropy T*S    EENTRO =        -0.00000000
  eigenvalues    EBANDS =     -3616.51705754
  atomic energy  EATOM  =      8369.52358910
  ---------------------------------------------------
  free energy    TOTEN  =      -615.34965186 eV

  energy without entropy =     -615.34965186  energy(sigma->0) =     -615.34965186


--------------------------------------------------------------------------------------------------------




--------------------------------------- Iteration      1(   6)  ---------------------------------------


    POTLOK:  cpu time    6.1144: real time    6.1625
    SETDIJ:  cpu time    0.1981: real time    0.1988
    TRIAL :  cpu time   15.4544: real time   15.6094
    CORREC:  cpu time   11.7505: real time   11.8506
    CHARGE:  cpu time    2.2880: real time    2.3065
    --------------------------------------------
      LOOP:  cpu time   35.8579: real time   36.1811

 eigenvalue-minimisations  :     0
 total energy-change (2. order) : 0.1038015E+03  (-0.1209284E+02)
 number of electron     216.0000000 magnetization 
 augmentation part       -0.4894320 magnetization 

 Free energy of the ion-electron system (eV)
  ---------------------------------------------------
  alpha Z        PSCENC =        59.93625244
  Ewald energy   TEWEN  =     33820.06779040
  -Hartree energ DENC   =    -41323.26698917
  -exchange      EXHF   =         0.00000000
  -V(xc)+E(xc)   XCENC  =       670.97573900
  PAW double counting   =    113743.46284125  -113606.66499000
  entropy T*S    EENTRO =        -0.00000000
  eigenvalues    EBANDS =     -2245.58237052
  atomic energy  EATOM  =      8369.52358910
  ---------------------------------------------------
  free energy    TOTEN  =      -511.54813750 eV

  energy without entropy =     -511.54813750  energy(sigma->0) =     -511.54813750


--------------------------------------------------------------------------------------------------------




--------------------------------------- Iteration      1(   7)  ---------------------------------------


    POTLOK:  cpu time    6.1143: real time    6.1509
    SETDIJ:  cpu time    0.1914: real time    0.1920
    TRIAL :  cpu time   15.4743: real time   15.6008
    CORREC:  cpu time   11.7666: real time   11.8461
    CHARGE:  cpu time    2.2901: real time    2.3063
    --------------------------------------------
      LOOP:  cpu time   35.8813: real time   36.1454

 eigenvalue-minimisations  :     0
 total energy-change (2. order) :-0.1210515E+02  (-0.1545592E+01)
 number of electron     216.0000000 magnetization 
 augmentation part       -0.5198306 magnetization 

 Free energy of the ion-electron system (eV)
  ---------------------------------------------------
  alpha Z        PSCENC =        59.93625244
  Ewald energy   TEWEN  =     33820.06779040
  -Hartree energ DENC   =    -40901.06635565
  -exchange      EXHF   =         0.00000000
  -V(xc)+E(xc)   XCENC  =       651.07678819
  PAW double counting   =    131945.76303516  -131806.21209479
  entropy T*S    EENTRO =        -0.00000000
  eigenvalues    EBANDS =     -2662.74229360
  atomic energy  EATOM  =      8369.52358910
  ---------------------------------------------------
  free energy    TOTEN  =      -523.65328876 eV

  energy without entropy =     -523.65328876  energy(sigma->0) =     -523.65328876


--------------------------------------------------------------------------------------------------------




--------------------------------------- Iteration      1(   8)  ---------------------------------------


    POTLOK:  cpu time    6.1007: real time    6.1556
    SETDIJ:  cpu time    0.1914: real time    0.1922
    TRIAL :  cpu time   15.4050: real time   15.6043
    CORREC:  cpu time   11.7243: real time   11.8160
    CHARGE:  cpu time    2.2734: real time    2.3025
    --------------------------------------------
      LOOP:  cpu time   35.7349: real time   36.1123

 eigenvalue-minimisations  :     0
 total energy-change (2. order) :-0.1546361E+01  (-0.4907473E+00)
 number of electron     216.0000000 magnetization 
 augmentation part       -0.5186094 magnetization 

 Free energy of the ion-electron system (eV)
  ---------------------------------------------------
  alpha Z        PSCENC =        59.93625244
  Ewald energy   TEWEN  =     33820.06779040
  -Hartree energ DENC   =    -40874.56883384
  -exchange      EXHF   =         0.00000000
  -V(xc)+E(xc)   XCENC  =       649.53862781
  PAW double counting   =    140143.41946670  -140003.39248953
  entropy T*S    EENTRO =        -0.00000000
  eigenvalues    EBANDS =     -2689.72405309
  atomic energy  EATOM  =      8369.52358910
  ---------------------------------------------------
  free energy    TOTEN  =      -525.19965002 eV

  energy without entropy =     -525.19965002  energy(sigma->0) =     -525.19965002


--------------------------------------------------------------------------------------------------------




--------------------------------------- Iteration      1(   9)  ---------------------------------------


    POTLOK:  cpu time    6.1315: real time    6.1713
    SETDIJ:  cpu time    0.1987: real time    0.1997
    TRIAL :  cpu time   15.4744: real time   15.6060
    CORREC:  cpu time   11.7337: real time   11.8278
    CHARGE:  cpu time    2.3023: real time    2.3251
    --------------------------------------------
      LOOP:  cpu time   35.8767: real time   36.1704

 eigenvalue-minimisations  :     0
 total energy-change (2. order) :-0.4905408E+00  (-0.1875472E+00)
 number of electron     216.0000000 magnetization 
 augmentation part       -0.5139229 magnetization 

 Free energy of the ion-electron system (eV)
  ---------------------------------------------------
  alpha Z        PSCENC =        59.93625244
  Ewald energy   TEWEN  =     33820.06779040
  -Hartree energ DENC   =    -40881.91630199
  -exchange      EXHF   =         0.00000000
  -V(xc)+E(xc)   XCENC  =       649.30485587
  PAW double counting   =    146230.09796675  -146089.87783022
  entropy T*S    EENTRO =        -0.00000000
  eigenvalues    EBANDS =     -2682.82651312
  atomic energy  EATOM  =      8369.52358910
  ---------------------------------------------------
  free energy    TOTEN  =      -525.69019079 eV

  energy without entropy =     -525.69019079  energy(sigma->0) =     -525.69019079


--------------------------------------------------------------------------------------------------------




--------------------------------------- Iteration      1(  10)  ---------------------------------------


    POTLOK:  cpu time    6.1370: real time    6.1774
    SETDIJ:  cpu time    0.1779: real time    0.1785
    TRIAL :  cpu time   15.4691: real time   15.5971
    CORREC:  cpu time   11.7225: real time   11.8260
    CHARGE:  cpu time    2.2907: real time    2.3080
    --------------------------------------------
      LOOP:  cpu time   35.8500: real time   36.1451

 eigenvalue-minimisations  :     0
 total energy-change (2. order) :-0.1873828E+00  (-0.7899692E-01)
 number of electron     216.0000000 magnetization 
 augmentation part       -0.5080536 magnetization 

 Free energy of the ion-electron system (eV)
  ---------------------------------------------------
  alpha Z        PSCENC =        59.93625244
  Ewald energy   TEWEN  =     33820.06779040
  -Hartree energ DENC   =    -40881.54351630
  -exchange      EXHF   =         0.00000000
  -V(xc)+E(xc)   XCENC  =       649.11328529
  PAW double counting   =    148572.65068716  -148432.33785419
  entropy T*S    EENTRO =        -0.00000000
  eigenvalues    EBANDS =     -2683.28780748
  atomic energy  EATOM  =      8369.52358910
  ---------------------------------------------------
  free energy    TOTEN  =      -525.87757359 eV

  energy without entropy =     -525.87757359  energy(sigma->0) =     -525.87757359


--------------------------------------------------------------------------------------------------------




--------------------------------------- Iteration      1(  11)  ---------------------------------------


    POTLOK:  cpu time    6.1314: real time    6.1715
    SETDIJ:  cpu time    0.1873: real time    0.1879
    TRIAL :  cpu time   15.5000: real time   15.6172
    CORREC:  cpu time   11.7501: real time   11.8477
    CHARGE:  cpu time    2.2802: real time    2.3001
    --------------------------------------------
      LOOP:  cpu time   35.8664: real time   36.1603

 eigenvalue-minimisations  :     0
 total energy-change (2. order) :-0.7876990E-01  (-0.3126873E-01)
 number of electron     216.0000000 magnetization 
 augmentation part       -0.5045929 magnetization 

 Free energy of the ion-electron system (eV)
  ---------------------------------------------------
  alpha Z        PSCENC =        59.93625244
  Ewald energy   TEWEN  =     33820.06779040
  -Hartree energ DENC   =    -40876.22060618
  -exchange      EXHF   =         0.00000000
  -V(xc)+E(xc)   XCENC  =       648.98093104
  PAW double counting   =    148510.49056637  -148370.17611416
  entropy T*S    EENTRO =        -0.00000000
  eigenvalues    EBANDS =     -2688.55875249
  atomic energy  EATOM  =      8369.52358910
  ---------------------------------------------------
  free energy    TOTEN  =      -525.95634348 eV

  energy without entropy =     -525.95634348  energy(sigma->0) =     -525.95634348


--------------------------------------------------------------------------------------------------------




--------------------------------------- Iteration      1(  12)  ---------------------------------------


    POTLOK:  cpu time    6.1592: real time    6.1968
    SETDIJ:  cpu time    0.2086: real time    0.2093
    TRIAL :  cpu time   15.4698: real time   15.6213
    CORREC:  cpu time   11.7376: real time   11.8247
    CHARGE:  cpu time    2.2849: real time    2.3016
    --------------------------------------------
      LOOP:  cpu time   35.8936: real time   36.1906

 eigenvalue-minimisations  :     0
 total energy-change (2. order) :-0.3117562E-01  (-0.1011297E-01)
 number of electron     216.0000000 magnetization 
 augmentation part       -0.5046690 magnetization 

 Free energy of the ion-electron system (eV)
  ---------------------------------------------------
  alpha Z        PSCENC =        59.93625244
  Ewald energy   TEWEN  =     33820.06779040
  -Hartree energ DENC   =    -40871.82227947
  -exchange      EXHF   =         0.00000000
  -V(xc)+E(xc)   XCENC  =       648.88098833
  PAW double counting   =    147842.06486327  -147701.77440772
  entropy T*S    EENTRO =        -0.00000000
  eigenvalues    EBANDS =     -2692.86431546
  atomic energy  EATOM  =      8369.52358910
  ---------------------------------------------------
  free energy    TOTEN  =      -525.98751911 eV

  energy without entropy =     -525.98751911  energy(sigma->0) =     -525.98751911


--------------------------------------------------------------------------------------------------------




--------------------------------------- Iteration      1(  13)  ---------------------------------------


    POTLOK:  cpu time    6.1288: real time    6.1725
    SETDIJ:  cpu time    0.1836: real time    0.1842
    TRIAL :  cpu time   15.4561: real time   15.6067
    CORREC:  cpu time   11.7428: real time   11.8363
    CHARGE:  cpu time    2.2795: real time    2.2962
    --------------------------------------------
      LOOP:  cpu time   35.8273: real time   36.1331

 eigenvalue-minimisations  :     0
 total energy-change (2. order) :-0.1010125E-01  (-0.2833035E-02)
 number of electron     216.0000000 magnetization 
 augmentation part       -0.5053036 magnetization 

 Free energy of the ion-electron system (eV)
  ---------------------------------------------------
  alpha Z        PSCENC =        59.93625244
  Ewald energy   TEWEN  =     33820.06779040
  -Hartree energ DENC   =    -40870.34492482
  -exchange      EXHF   =         0.00000000
  -V(xc)+E(xc)   XCENC  =       648.82856779
  PAW double counting   =    147332.68288781  -147192.40416439
  entropy T*S    EENTRO =        -0.00000000
  eigenvalues    EBANDS =     -2694.28761869
  atomic energy  EATOM  =      8369.52358910
  ---------------------------------------------------
  free energy    TOTEN  =      -525.99762036 eV

  energy without entropy =     -525.99762036  energy(sigma->0) =     -525.99762036


--------------------------------------------------------------------------------------------------------




--------------------------------------- Iteration      1(  14)  ---------------------------------------


    POTLOK:  cpu time    6.1248: real time    6.1744
    SETDIJ:  cpu time    0.1932: real time    0.1939
    TRIAL :  cpu time   15.4965: real time   15.6300
    CORREC:  cpu time   11.7425: real time   11.8456
    CHARGE:  cpu time    2.2644: real time    2.2987
    --------------------------------------------
      LOOP:  cpu time   35.8385: real time   36.1866

 eigenvalue-minimisations  :     0
 total energy-change (2. order) :-0.2836926E-02  (-0.7118156E-03)
 number of electron     216.0000000 magnetization 
 augmentation part       -0.5055438 magnetization 

 Free energy of the ion-electron system (eV)
  ---------------------------------------------------
  alpha Z        PSCENC =        59.93625244
  Ewald energy   TEWEN  =     33820.06779040
  -Hartree energ DENC   =    -40870.33236362
  -exchange      EXHF   =         0.00000000
  -V(xc)+E(xc)   XCENC  =       648.82584101
  PAW double counting   =    147097.02822227  -146956.75515953
  entropy T*S    EENTRO =        -0.00000000
  eigenvalues    EBANDS =     -2694.29462935
  atomic energy  EATOM  =      8369.52358910
  ---------------------------------------------------
  free energy    TOTEN  =      -526.00045729 eV

  energy without entropy =     -526.00045729  energy(sigma->0) =     -526.00045729


--------------------------------------------------------------------------------------------------------




--------------------------------------- Iteration      1(  15)  ---------------------------------------


    POTLOK:  cpu time    6.1262: real time    6.1681
    SETDIJ:  cpu time    0.2167: real time    0.2174
    TRIAL :  cpu time   15.4434: real time   15.6024
    CORREC:  cpu time   11.7098: real time   11.8201
    CHARGE:  cpu time    2.2675: real time    2.2959
    --------------------------------------------
      LOOP:  cpu time   35.8235: real time   36.1675

 eigenvalue-minimisations  :     0
 total energy-change (2. order) :-0.7171998E-03  (-0.1843936E-03)
 number of electron     216.0000000 magnetization 
 augmentation part       -0.5056592 magnetization 

 Free energy of the ion-electron system (eV)
  ---------------------------------------------------
  alpha Z        PSCENC =        59.93625244
  Ewald energy   TEWEN  =     33820.06779040
  -Hartree energ DENC   =    -40870.25209955
  -exchange      EXHF   =         0.00000000
  -V(xc)+E(xc)   XCENC  =       648.82723356
  PAW double counting   =    147004.19263960  -146863.92207439
  entropy T*S    EENTRO =        -0.00000000
  eigenvalues    EBANDS =     -2694.37450564
  atomic energy  EATOM  =      8369.52358910
  ---------------------------------------------------
  free energy    TOTEN  =      -526.00117449 eV

  energy without entropy =     -526.00117449  energy(sigma->0) =     -526.00117449


--------------------------------------------------------------------------------------------------------




--------------------------------------- Iteration      1(  16)  ---------------------------------------


    POTLOK:  cpu time    6.1350: real time    6.1791
    SETDIJ:  cpu time    0.1939: real time    0.1946
    TRIAL :  cpu time   15.4655: real time   15.6281
    CORREC:  cpu time   11.7410: real time   11.8329
    CHARGE:  cpu time    2.2750: real time    2.2956
    --------------------------------------------
      LOOP:  cpu time   35.8399: real time   36.1653

 eigenvalue-minimisations  :     0
 total energy-change (2. order) :-0.1879059E-03  (-0.6149677E-04)
 number of electron     216.0000000 magnetization 
 augmentation part       -0.5056909 magnetization 

 Free energy of the ion-electron system (eV)
  ---------------------------------------------------
  alpha Z        PSCENC =        59.93625244
  Ewald energy   TEWEN  =     33820.06779040
  -Hartree energ DENC   =    -40870.16816215
  -exchange      EXHF   =         0.00000000
  -V(xc)+E(xc)   XCENC  =       648.82565884
  PAW double counting   =    146950.88925982  -146810.61914626
  entropy T*S    EENTRO =        -0.00000000
  eigenvalues    EBANDS =     -2694.45660459
  atomic energy  EATOM  =      8369.52358910
  ---------------------------------------------------
  free energy    TOTEN  =      -526.00136239 eV

  energy without entropy =     -526.00136239  energy(sigma->0) =     -526.00136239


--------------------------------------------------------------------------------------------------------




--------------------------------------- Iteration      1(  17)  ---------------------------------------


    POTLOK:  cpu time    6.1429: real time    6.1860
    SETDIJ:  cpu time    0.1735: real time    0.1741
    TRIAL :  cpu time   15.4104: real time   15.6126
    CORREC:  cpu time   11.7539: real time   11.8633
    CHARGE:  cpu time    2.2758: real time    2.2973
    --------------------------------------------
      LOOP:  cpu time   35.7840: real time   36.1621

 eigenvalue-minimisations  :     0
 total energy-change (2. order) :-0.6030110E-04  (-0.2229830E-04)
 number of electron     216.0000000 magnetization 
 augmentation part       -0.5057027 magnetization 

 Free energy of the ion-electron system (eV)
  ---------------------------------------------------
  alpha Z        PSCENC =        59.93625244
  Ewald energy   TEWEN  =     33820.06779040
  -Hartree energ DENC   =    -40870.28903462
  -exchange      EXHF   =         0.00000000
  -V(xc)+E(xc)   XCENC  =       648.83222082
  PAW double counting   =    146908.44894240  -146768.17954461
  entropy T*S    EENTRO =        -0.00000000
  eigenvalues    EBANDS =     -2694.34163863
  atomic energy  EATOM  =      8369.52358910
  ---------------------------------------------------
  free energy    TOTEN  =      -526.00142269 eV

  energy without entropy =     -526.00142269  energy(sigma->0) =     -526.00142269


--------------------------------------------------------------------------------------------------------




--------------------------------------- Iteration      1(  18)  ---------------------------------------


    POTLOK:  cpu time    6.1299: real time    6.1680
    SETDIJ:  cpu time    0.1904: real time    0.1910
    TRIAL :  cpu time   15.4717: real time   15.6049
    CORREC:  cpu time   11.7388: real time   11.8243
    CHARGE:  cpu time    2.2783: real time    2.2951
    --------------------------------------------
      LOOP:  cpu time   35.8430: real time   36.1339

 eigenvalue-minimisations  :     0
 total energy-change (2. order) :-0.2128317E-04  (-0.6726154E-05)
 number of electron     216.0000000 magnetization 
 augmentation part       -0.5057293 magnetization 

 Free energy of the ion-electron system (eV)
  ---------------------------------------------------
  alpha Z        PSCENC =        59.93625244
  Ewald energy   TEWEN  =     33820.06779040
  -Hartree energ DENC   =    -40870.37340708
  -exchange      EXHF   =         0.00000000
  -V(xc)+E(xc)   XCENC  =       648.83617997
  PAW double counting   =    146888.22826588  -146747.95895722
  entropy T*S    EENTRO =        -0.00000000
  eigenvalues    EBANDS =     -2694.26115746
  atomic energy  EATOM  =      8369.52358910
  ---------------------------------------------------
  free energy    TOTEN  =      -526.00144398 eV

  energy without entropy =     -526.00144398  energy(sigma->0) =     -526.00144398


--------------------------------------------------------------------------------------------------------




--------------------------------------- Iteration      1(  19)  ---------------------------------------


    POTLOK:  cpu time    6.1345: real time    6.1888
    SETDIJ:  cpu time    0.1647: real time    0.1653
    TRIAL :  cpu time   15.4984: real time   15.6237
    CORREC:  cpu time   11.7520: real time   11.8559
    CHARGE:  cpu time    2.2778: real time    2.2941
    --------------------------------------------
      LOOP:  cpu time   35.8715: real time   36.1925

 eigenvalue-minimisations  :     0
 total energy-change (2. order) :-0.6920862E-05  (-0.6141199E-05)
 number of electron     216.0000000 magnetization 
 augmentation part       -0.5057575 magnetization 

 Free energy of the ion-electron system (eV)
  ---------------------------------------------------
  alpha Z        PSCENC =        59.93625244
  Ewald energy   TEWEN  =     33820.06779040
  -Hartree energ DENC   =    -40870.37509753
  -exchange      EXHF   =         0.00000000
  -V(xc)+E(xc)   XCENC  =       648.83571535
  PAW double counting   =    146888.98421616  -146748.71448622
  entropy T*S    EENTRO =        -0.00000000
  eigenvalues    EBANDS =     -2694.25943060
  atomic energy  EATOM  =      8369.52358910
  ---------------------------------------------------
  free energy    TOTEN  =      -526.00145090 eV

  energy without entropy =     -526.00145090  energy(sigma->0) =     -526.00145090


--------------------------------------------------------------------------------------------------------




--------------------------------------- Iteration      1(  20)  ---------------------------------------


    POTLOK:  cpu time    6.1564: real time    6.1989
    SETDIJ:  cpu time    0.1556: real time    0.1562
    TRIAL :  cpu time   15.4315: real time   15.6049
    CORREC:  cpu time   11.7183: real time   11.8220
    CHARGE:  cpu time    2.2793: real time    2.2967
    --------------------------------------------
      LOOP:  cpu time   35.7928: real time   36.1359

 eigenvalue-minimisations  :     0
 total energy-change (2. order) :-0.1726003E-05  (-0.3607158E-05)
 number of electron     216.0000000 magnetization 
 augmentation part       -0.5057533 magnetization 

 Free energy of the ion-electron system (eV)
  ---------------------------------------------------
  alpha Z        PSCENC =        59.93625244
  Ewald energy   TEWEN  =     33820.06779040
  -Hartree energ DENC   =    -40870.40602143
  -exchange      EXHF   =         0.00000000
  -V(xc)+E(xc)   XCENC  =       648.83633609
  PAW double counting   =    146903.33752162  -146763.06737638
  entropy T*S    EENTRO =        -0.00000000
  eigenvalues    EBANDS =     -2694.22954446
  atomic energy  EATOM  =      8369.52358910
  ---------------------------------------------------
  free energy    TOTEN  =      -526.00145262 eV

  energy without entropy =     -526.00145262  energy(sigma->0) =     -526.00145262


--------------------------------------------------------------------------------------------------------




--------------------------------------- Iteration      1(  21)  ---------------------------------------


    POTLOK:  cpu time    6.1291: real time    6.1699
    SETDIJ:  cpu time    0.1973: real time    0.1979
    TRIAL :  cpu time   15.4449: real time   15.5919
    CORREC:  cpu time   11.7548: real time   11.8465
    CHARGE:  cpu time    2.2909: real time    2.3069
    --------------------------------------------
      LOOP:  cpu time   35.8632: real time   36.1623

 eigenvalue-minimisations  :     0
 total energy-change (2. order) :-0.3552705E-05  (-0.6012791E-06)
 number of electron     216.0000000 magnetization 
 augmentation part       -0.5057413 magnetization 

 Free energy of the ion-electron system (eV)
  ---------------------------------------------------
  alpha Z        PSCENC =        59.93625244
  Ewald energy   TEWEN  =     33820.06779040
  -Hartree energ DENC   =    -40870.40233117
  -exchange      EXHF   =         0.00000000
  -V(xc)+E(xc)   XCENC  =       648.83601446
  PAW double counting   =    146902.35909888  -146762.08899405
  entropy T*S    EENTRO =        -0.00000000
  eigenvalues    EBANDS =     -2694.23287622
  atomic energy  EATOM  =      8369.52358910
  ---------------------------------------------------
  free energy    TOTEN  =      -526.00145618 eV

  energy without entropy =     -526.00145618  energy(sigma->0) =     -526.00145618


--------------------------------------------------------------------------------------------------------




--------------------------------------- Iteration      1(  22)  ---------------------------------------


    POTLOK:  cpu time    6.1319: real time    6.1711
    SETDIJ:  cpu time    0.2064: real time    0.2071
    TRIAL :  cpu time   15.4608: real time   15.6022
    CORREC:  cpu time   11.7588: real time   11.8532
    CHARGE:  cpu time    2.2594: real time    2.2973
    --------------------------------------------
      LOOP:  cpu time   35.8451: real time   36.1598

 eigenvalue-minimisations  :     0
 total energy-change (2. order) :-0.5563488E-06  (-0.2890675E-07)
 number of electron     216.0000000 magnetization 
 augmentation part       -0.5057409 magnetization 

 Free energy of the ion-electron system (eV)
  ---------------------------------------------------
  alpha Z        PSCENC =        59.93625244
  Ewald energy   TEWEN  =     33820.06779040
  -Hartree energ DENC   =    -40870.40284419
  -exchange      EXHF   =         0.00000000
  -V(xc)+E(xc)   XCENC  =       648.83616222
  PAW double counting   =    146901.73264231  -146761.46267846
  entropy T*S    EENTRO =        -0.00000000
  eigenvalues    EBANDS =     -2694.23237054
  atomic energy  EATOM  =      8369.52358910
  ---------------------------------------------------
  free energy    TOTEN  =      -526.00145673 eV

  energy without entropy =     -526.00145673  energy(sigma->0) =     -526.00145673


--------------------------------------------------------------------------------------------------------




--------------------------------------- Iteration      1(  23)  ---------------------------------------


    POTLOK:  cpu time    6.1309: real time    6.1907
    SETDIJ:  cpu time    0.1790: real time    0.1799
    TRIAL :  cpu time   15.4614: real time   15.6068
    CORREC:  cpu time   11.7338: real time   11.8235
    EDDIAG:  cpu time    3.1985: real time    3.2226
    CHARGE:  cpu time    2.2695: real time    2.2908
    --------------------------------------------
      LOOP:  cpu time   38.9753: real time   39.3583

 eigenvalue-minimisations  :     0
 total energy-change (2. order) : 0.3559398E-07  (-0.2260240E-07)
 number of electron     216.0000000 magnetization 
 augmentation part       -0.5057410 magnetization 

 Free energy of the ion-electron system (eV)
  ---------------------------------------------------
  alpha Z        PSCENC =        59.93625244
  Ewald energy   TEWEN  =     33820.06779040
  -Hartree energ DENC   =    -40870.40114035
  -exchange      EXHF   =         0.00000000
  -V(xc)+E(xc)   XCENC  =       648.83608480
  PAW double counting   =    146901.85796952  -146761.58800785
  entropy T*S    EENTRO =        -0.00000000
  eigenvalues    EBANDS =     -2694.23399475
  atomic energy  EATOM  =      8369.52358910
  ---------------------------------------------------
  free energy    TOTEN  =      -526.00145670 eV

  energy without entropy =     -526.00145670  energy(sigma->0) =     -526.00145670


--------------------------------------------------------------------------------------------------------


  average scaling for gradient   0.7793


 average (electrostatic) potential at core
  the test charge radii are     0.5770  0.5955
  (the norm of the test charge is              1.0000)
       1 -87.7308       2 -87.7256       3 -87.7358       4 -87.7429       5 -87.7206
       6 -87.7164       7 -87.7323       8 -87.7189       9 -87.7216      10 -87.7293
      11 -87.7172      12 -87.7217      13 -87.7273      14 -87.7172      15 -87.7149
      16 -87.7181      17 -87.7227      18 -87.7270      19 -87.7267      20 -87.7217
      21 -87.7153      22 -87.7123      23 -87.7432      24 -87.7406      25 -87.7186
      26 -87.7198      27 -87.7192      28 -87.7305      29 -87.7181      30 -87.7151
      31 -87.7346      32 -87.7283      33 -87.7240      34 -87.7207      35 -87.7156
      36 -87.7213      37 -87.7198      38 -87.7266      39 -87.7263      40 -87.7270
      41 -87.7285      42 -87.7313      43 -87.7238      44 -87.7297      45 -87.7181
      46 -87.7168      47 -87.7220      48 -87.7188      49 -87.7271      50 -87.7254
      51 -91.7876      52-123.9145      53-123.9223
 
 
 
 E-fermi :  -4.0288     XC(G=0):  -2.3331     alpha+bet : -2.1113

 Fermi energy:        -4.0287723643

 k-point     1 :       0.0000    0.0000    0.0000
  band No.  band energies     occupation 
      1     -28.8436      2.00000
      2     -27.8186      2.00000
      3     -23.2339      2.00000
      4     -22.2543      2.00000
      5     -22.2509      2.00000
      6     -22.2458      2.00000
      7     -22.2458      2.00000
      8     -22.2428      2.00000
      9     -22.2420      2.00000
     10     -20.3177      2.00000
     11     -20.3171      2.00000
     12     -20.3140      2.00000
     13     -20.3140      2.00000
     14     -20.3127      2.00000
     15     -20.3127      2.00000
     16     -19.3808      2.00000
     17     -19.3801      2.00000
     18     -19.3796      2.00000
     19     -19.3781      2.00000
     20     -19.3778      2.00000
     21     -19.3775      2.00000
     22     -17.1603      2.00000
     23     -17.1596      2.00000
     24     -17.1580      2.00000
     25     -17.1575      2.00000
     26     -17.1543      2.00000
     27     -17.1540      2.00000
     28     -16.0014      2.00000
     29     -16.0010      2.00000
     30     -15.9986      2.00000
     31     -15.9985      2.00000
     32     -15.9980      2.00000
     33     -15.9979      2.00000
     34     -14.6076      2.00000
     35     -14.6073      2.00000
     36     -14.6071      2.00000
     37     -14.6060      2.00000
     38     -14.6059      2.00000
     39     -14.6045      2.00000
     40     -12.8020      2.00000
     41     -12.1482      2.00000
     42     -12.1481      2.00000
     43     -12.1467      2.00000
     44     -12.1467      2.00000
     45     -12.1463      2.00000
     46     -12.1462      2.00000
     47     -11.9322      2.00000
     48     -11.9320      2.00000
     49     -11.9298      2.00000
     50     -11.9297      2.00000
     51     -11.9270      2.00000
     52     -11.9266      2.00000
     53     -11.5272      2.00000
     54     -11.2930      2.00000
     55     -11.2674      2.00000
     56     -10.5892      2.00000
     57     -10.4838      2.00000
     58     -10.4836      2.00000
     59     -10.4835      2.00000
     60     -10.4834      2.00000
     61     -10.4822      2.00000
     62     -10.4821      2.00000
     63      -9.4304      2.00000
     64      -9.4262      2.00000
     65      -9.4231      2.00000
     66      -9.4219      2.00000
     67      -9.4189      2.00000
     68      -9.4171      2.00000
     69      -9.1852      2.00000
     70      -9.1837      2.00000
     71      -9.1833      2.00000
     72      -9.1826      2.00000
     73      -9.1822      2.00000
     74      -9.1811      2.00000
     75      -9.1805      2.00000
     76      -9.1803      2.00000
     77      -9.1802      2.00000
     78      -9.1788      2.00000
     79      -9.1782      2.00000
     80      -9.1770      2.00000
     81      -7.6915      2.00000
     82      -7.6747      2.00000
     83      -7.4774      2.00000
     84      -7.4767      2.00000
     85      -7.4756      2.00000
     86      -7.4745      2.00000
     87      -7.4711      2.00000
     88      -7.4706      2.00000
     89      -7.1885      2.00000
     90      -7.1883      2.00000
     91      -7.1799      2.00000
     92      -7.1786      2.00000
     93      -7.1781      2.00000
     94      -7.1625      2.00000
     95      -6.2439      2.00000
     96      -6.2410      2.00000
     97      -6.2383      2.00000
     98      -6.2337      2.00000
     99      -6.2331      2.00000
    100      -6.2286      2.00000
    101      -5.9590      2.00000
    102      -5.9566      2.00000
    103      -4.1446      2.00000
    104      -4.1425      2.00000
    105      -4.1395      2.00000
    106      -4.1384      2.00000
    107      -4.1337      2.00000
    108      -4.1333      2.00000
    109      -1.1705      0.00000
    110      -1.1700      0.00000
    111      -1.1633      0.00000
    112      -1.1626      0.00000
    113      -1.1607      0.00000
    114      -1.1600      0.00000
    115       0.8041      0.00000
    116       0.8082      0.00000
    117       0.8105      0.00000
    118       0.8150      0.00000
    119       0.8174      0.00000
    120       0.8206      0.00000
    121       0.8241      0.00000
    122       1.4815      0.00000
    123       1.5850      0.00000
    124       1.5905      0.00000
    125       1.9652      0.00000
    126       2.0022      0.00000
    127       2.2075      0.00000
    128       2.2788      0.00000
    129       2.2860      0.00000
    130       2.2878      0.00000
    131       2.3399      0.00000
    132       2.6896      0.00000
    133       2.6911      0.00000
    134       2.6974      0.00000
    135       2.6989      0.00000
    136       2.6994      0.00000
    137       2.7007      0.00000
    138       2.7639      0.00000
    139       2.9335      0.00000
    140       2.9838      0.00000
    141       3.0706      0.00000
    142       3.0824      0.00000
    143       3.0846      0.00000
    144       3.1223      0.00000
    145       3.2745      0.00000
    146       3.3027      0.00000
    147       3.3742      0.00000
    148       3.3954      0.00000
    149       3.3979      0.00000
    150       3.4580      0.00000
    151       3.7018      0.00000
    152       4.5715      0.00000
    153       4.6451      0.00000
    154       4.7979      0.00000
    155       4.8994      0.00000
    156       5.0933      0.00000
    157       5.2846      0.00000
    158       5.2930      0.00000
    159       5.2966      0.00000
    160       5.2992      0.00000
    161       5.3008      0.00000
    162       5.3015      0.00000
    163       5.3041      0.00000
    164       5.5010      0.00000
    165       5.5767      0.00000
    166       5.6468      0.00000
    167       5.7651      0.00000
    168       5.8691      0.00000


--------------------------------------------------------------------------------------------------------


 soft charge-density along one line, spin component           1
         0         1         2         3         4         5         6         7         8         9
 total charge-density along one line
 
 pseudopotential strength for first ion, spin component:           1
 12.630  21.251  -0.000   0.000   0.000  -0.000   0.000   0.000
 21.251  35.755  -0.000   0.000   0.000  -0.000   0.000   0.000
 -0.000  -0.000  -3.234   0.000   0.000  -5.794   0.000   0.000
  0.000   0.000   0.000  -3.238   0.000   0.000  -5.800   0.000
  0.000   0.000   0.000   0.000  -3.234   0.000   0.000  -5.794
 -0.000  -0.000  -5.794   0.000   0.000 -10.358   0.000   0.000
  0.000   0.000   0.000  -5.800   0.000   0.000 -10.368   0.000
  0.000   0.000   0.000   0.000  -5.794   0.000   0.000 -10.358
 total augmentation occupancy for first ion, spin component:           1
  9.642  -3.598   0.000  -0.002  -0.000  -0.000   0.001   0.000
 -3.598   1.374  -0.000   0.001   0.000   0.000  -0.000  -0.000
  0.000  -0.000   8.196  -0.009   0.001  -2.895   0.004  -0.000
 -0.002   0.001  -0.009   3.782  -0.000   0.004  -1.106   0.000
 -0.000   0.000   0.001  -0.000   8.195  -0.000   0.000  -2.895
 -0.000   0.000  -2.895   0.004  -0.000   1.036  -0.001   0.000
  0.001  -0.000   0.004  -1.106   0.000  -0.001   0.329   0.000
  0.000  -0.000  -0.000   0.000  -2.895   0.000   0.000   1.035


------------------------ aborting loop because EDIFF is reached ----------------------------------------


    FORLOC:  cpu time    0.1051: real time    0.1058
    FORNL :  cpu time    2.9113: real time    2.9361
    FORCOR:  cpu time    6.1977: real time    6.2422
    OFIELD:  cpu time    0.0022: real time    0.0023

 VOLUME and BASIS-vectors are now :
 -----------------------------------------------------------------------------
  energy-cutoff  :     1000.00
  volume of cell :     2631.08
      direct lattice vectors                 reciprocal lattice vectors
    12.325000000  0.000000000  0.000000000     0.081135903  0.046843835  0.000000000
    -6.162500000 10.673763102  0.000000000     0.000000000  0.093687670  0.000000000
     0.000000000  0.000000000 20.000000000     0.000000000  0.000000000  0.050000000

  length of vectors
    12.325000000 12.325000000 20.000000000     0.093687670  0.093687670  0.050000000


 FORCES acting on ions:
    Electron-Ion                     Ewald-Force                    Non-Local-Force
 -----------------------------------------------------------------------------------------------
   0.937E+01 0.820E+01 0.227E+02   -.937E+01 -.820E+01 -.227E+02   0.481E-02 0.266E-02 0.932E-02
   0.150E+02 0.736E+01 0.294E+02   -.150E+02 -.736E+01 -.294E+02   0.131E-01 0.489E-02 -.922E-02
   0.715E+01 0.185E+02 0.359E+02   -.716E+01 -.185E+02 -.359E+02   0.799E-02 0.456E-01 0.231E-01
   0.108E+02 0.158E+02 0.550E+02   -.109E+02 -.159E+02 -.551E+02   0.484E-01 0.306E-01 0.677E-01
   0.101E+02 0.239E+01 0.228E+02   -.101E+02 -.239E+01 -.228E+02   -.698E-02 -.775E-03 -.448E-02
   0.106E+02 -.186E+01 0.232E+02   -.106E+02 0.186E+01 -.232E+02   -.194E-01 0.908E-02 -.151E-01
   0.191E+02 0.750E+01 0.480E+02   -.191E+02 -.747E+01 -.480E+02   0.468E-01 -.314E-01 0.642E-02
   0.186E+02 -.643E+01 0.505E+02   -.187E+02 0.645E+01 -.504E+02   0.135E-01 -.121E-01 -.471E-01
   -.809E+01 0.169E+02 0.365E+02   0.810E+01 -.169E+02 -.365E+02   -.917E-03 0.221E-02 -.257E-01
   -.141E+02 0.120E+02 0.531E+02   0.141E+02 -.120E+02 -.531E+02   -.530E-01 0.480E-01 -.131E-01
   0.252E+01 -.228E+01 0.184E+02   -.251E+01 0.227E+01 -.184E+02   -.470E-02 0.388E-03 -.400E-02
   0.203E+01 -.166E+01 0.171E+02   -.203E+01 0.166E+01 -.171E+02   -.657E-02 -.419E-02 0.376E-02
   0.731E+01 -.168E+02 0.570E+02   -.738E+01 0.169E+02 -.570E+02   0.760E-01 -.203E-01 -.185E-01
   0.355E+01 -.186E+02 0.366E+02   -.357E+01 0.186E+02 -.366E+02   0.209E-01 -.272E-02 -.297E-01
   -.906E+01 0.568E+01 0.222E+02   0.905E+01 -.568E+01 -.222E+02   0.116E-01 -.358E-02 -.488E-02
   -.132E+02 0.377E+01 0.258E+02   0.132E+02 -.378E+01 -.258E+02   -.561E-02 0.135E-01 -.261E-01
   -.141E+01 -.559E+00 0.164E+02   0.142E+01 0.569E+00 -.164E+02   0.746E-03 -.169E-01 0.223E-02
   0.745E+00 0.513E+01 0.175E+02   -.746E+00 -.512E+01 -.175E+02   0.134E-02 -.975E-02 0.980E-02
   -.268E+01 -.158E+02 0.282E+02   0.267E+01 0.158E+02 -.282E+02   0.145E-01 -.165E-01 0.342E-02
   -.119E+01 -.788E+01 0.194E+02   0.119E+01 0.790E+01 -.194E+02   -.982E-02 -.150E-01 0.524E-04
   0.154E+02 -.672E+01 0.316E+02   -.154E+02 0.672E+01 -.316E+02   -.267E-02 0.199E-02 -.465E-01
   0.935E+01 -.802E+01 0.249E+02   -.935E+01 0.801E+01 -.249E+02   -.848E-02 0.135E-01 -.144E-01
   -.361E+01 0.766E+01 0.682E+02   0.364E+01 -.771E+01 -.683E+02   -.324E-01 0.495E-01 0.103E+00
   -.582E+01 -.121E+02 0.651E+02   0.579E+01 0.122E+02 -.652E+02   0.350E-01 -.416E-01 0.844E-01
   0.444E+01 -.192E+01 0.185E+02   -.443E+01 0.192E+01 -.185E+02   0.228E-03 -.682E-02 -.104E-01
   0.843E+00 0.398E+01 0.187E+02   -.847E+00 -.397E+01 -.187E+02   0.359E-02 -.200E-02 0.204E-02
   -.193E+02 0.237E+01 0.401E+02   0.193E+02 -.240E+01 -.401E+02   0.382E-03 0.278E-01 -.193E-01
   -.179E+02 -.753E+01 0.365E+02   0.180E+02 0.750E+01 -.365E+02   -.338E-01 0.239E-01 0.850E-02
   0.567E+01 -.115E+02 0.261E+02   -.568E+01 0.115E+02 -.261E+02   0.125E-01 0.472E-02 -.253E-01
   0.526E+00 -.439E+01 0.198E+02   -.534E+00 0.438E+01 -.198E+02   -.222E-03 0.337E-02 -.481E-02
   -.143E+02 -.153E+02 0.448E+02   0.143E+02 0.153E+02 -.448E+02   -.381E-01 -.264E-01 0.405E-01
   -.843E+01 -.154E+02 0.301E+02   0.844E+01 0.154E+02 -.301E+02   -.762E-02 -.338E-01 0.163E-01
   0.547E+00 0.217E+01 0.169E+02   -.540E+00 -.217E+01 -.170E+02   -.714E-02 -.320E-02 0.604E-02
   0.150E+01 0.218E+01 0.183E+02   -.149E+01 -.217E+01 -.183E+02   -.127E-01 0.733E-02 -.576E-02
   -.634E+01 0.822E+00 0.201E+02   0.634E+01 -.831E+00 -.201E+02   -.657E-03 0.610E-02 0.272E-02
   -.548E+01 -.221E+01 0.195E+02   0.549E+01 0.220E+01 -.195E+02   -.114E-01 0.673E-02 -.354E-02
   -.111E+02 -.575E+01 0.232E+02   0.111E+02 0.575E+01 -.232E+02   -.152E-01 -.733E-02 0.528E-02
   -.650E+01 -.525E+01 0.192E+02   0.651E+01 0.526E+01 -.192E+02   -.102E-01 -.134E-01 0.111E-01
   -.607E+01 -.791E+01 0.207E+02   0.608E+01 0.793E+01 -.207E+02   -.159E-01 -.245E-01 0.911E-02
   -.893E+00 -.190E+01 0.175E+02   0.899E+00 0.191E+01 -.175E+02   -.562E-02 -.158E-01 0.919E-02
   0.228E+01 0.551E+01 0.183E+02   -.228E+01 -.551E+01 -.183E+02   -.362E-02 -.209E-02 0.809E-02
   0.748E+01 0.117E+02 0.242E+02   -.749E+01 -.117E+02 -.242E+02   0.998E-02 0.104E-01 0.126E-01
   0.596E+00 0.971E+01 0.204E+02   -.596E+00 -.971E+01 -.204E+02   0.823E-02 0.656E-03 -.979E-03
   0.726E-02 0.176E+02 0.308E+02   0.680E-02 -.176E+02 -.308E+02   -.116E-01 0.127E-01 0.606E-02
   -.184E+01 0.364E+01 0.197E+02   0.184E+01 -.363E+01 -.197E+02   0.113E-01 -.733E-02 -.709E-02
   -.764E+01 0.966E+01 0.247E+02   0.764E+01 -.965E+01 -.247E+02   -.640E-03 -.437E-03 -.186E-01
   -.136E+01 -.378E+01 0.181E+02   0.136E+01 0.379E+01 -.181E+02   0.247E-02 -.458E-02 0.194E-02
   -.349E+01 0.141E+01 0.174E+02   0.348E+01 -.140E+01 -.174E+02   -.737E-02 -.733E-03 -.793E-02
   0.299E+00 -.235E+01 0.171E+02   -.293E+00 0.235E+01 -.171E+02   -.691E-02 -.123E-01 0.719E-02
   0.373E+01 0.272E+01 0.173E+02   -.373E+01 -.272E+01 -.174E+02   -.103E-01 0.253E-02 0.366E-02
   0.108E+00 -.791E-01 -.355E+03   -.927E-01 0.677E-01 0.355E+03   -.207E-01 0.165E-01 -.482E-01
   -.228E+03 0.155E+03 -.544E+03   0.279E+03 -.190E+03 0.547E+03   -.527E+02 0.358E+02 -.348E+01
   0.228E+03 -.155E+03 -.524E+03   -.279E+03 0.190E+03 0.521E+03   0.527E+02 -.358E+02 0.321E+01
 -----------------------------------------------------------------------------------------------
   0.120E-01 0.722E-02 0.235E+00   0.568E-13 0.284E-13 0.114E-12   -.335E-01 0.140E-01 -.210E+00
 
 
 POSITION                                       TOTAL-FORCE (eV/Angst)
 -----------------------------------------------------------------------------------
     11.98348      0.00342      0.01417        -0.007093      0.008090     -0.003440
     -0.34154      1.42665      0.01100        -0.014529      0.018379     -0.001820
      2.12355      0.00315      0.01249         0.012319      0.005003     -0.002588
      2.12326      1.42653      0.00641         0.014057      0.016869      0.010762
     10.75099      2.13819      0.01213        -0.006816      0.018159      0.000870
     -1.57382      3.56123      0.01110        -0.022129      0.015133      0.000031
      0.89078      2.13854      0.00548         0.000576      0.023648      0.009918
      0.89099      3.56147      0.00181        -0.008997      0.014879      0.014082
      4.58864      0.00346      0.01135         0.028136     -0.011220      0.000463
      4.58894      1.42623      0.00646         0.020779      0.017831      0.016696
      9.51854      4.27281      0.01369         0.017713     -0.001522      0.001332
     -2.80632      5.69591      0.01434        -0.006577     -0.017379      0.001662
      2.12300      4.27302      0.00000         0.002271      0.022788      0.021415
      2.12335      5.69594      0.00581         0.002156     -0.000780      0.004496
      7.05344      0.00333      0.01399         0.005684     -0.013441      0.001617
      7.05353      1.42635      0.01368        -0.004668      0.013266     -0.002489
      8.28610      6.40752      0.01601         0.019630     -0.022171     -0.000741
     -4.03885      7.83070      0.01636         0.007895     -0.018407     -0.001386
      3.35586      6.40753      0.01007        -0.018053     -0.011881      0.000039
      3.35599      7.83072      0.01320        -0.018019     -0.007939      0.000322
     -0.34146      4.27290      0.00723         0.006480      0.017332     -0.000257
     -0.34138      5.69591      0.00946        -0.010200      0.000656      0.003925
      3.35624      2.13791      0.00222         0.007891      0.020620      0.034423
      3.35573      3.56155      0.00139         0.020037      0.004836      0.027858
     -1.57395      6.40758      0.01311         0.029105     -0.015208     -0.000343
     -1.57385      7.83068      0.01438         0.010680     -0.002654      0.000737
      5.82093      2.13784      0.01033         0.014979      0.001185      0.004155
      5.82114      3.56097      0.01156         0.005897     -0.004785     -0.000009
      0.89092      6.40755      0.00907         0.003697     -0.002026     -0.000505
      0.89106      7.83068      0.01235        -0.008480      0.005711      0.003465
      4.58871      4.27293      0.00850        -0.010191      0.001357      0.002937
      4.58852      5.69606      0.01149         0.000687     -0.017234     -0.001206
      9.51845      0.00337      0.01490        -0.017622     -0.006752      0.000066
      9.51855      1.42644      0.01438        -0.030401      0.023096      0.000151
      8.28593      2.13803      0.01453        -0.000774     -0.001136      0.003125
      8.28613      3.56115      0.01464        -0.012751     -0.004397     -0.000266
      7.05356      4.27269      0.01457         0.004929     -0.008176      0.002498
      7.05362      5.69588      0.01553        -0.001972     -0.031005     -0.000157
      5.82112      6.40755      0.01489        -0.014480     -0.018636     -0.000489
      5.82102      7.83073      0.01579        -0.005683     -0.019806     -0.001513
      7.05363      8.54227      0.01631        -0.001998     -0.012465     -0.000681
     -5.27149      9.96549      0.01495        -0.000077     -0.001853     -0.004608
     -2.80638      8.54234      0.01558         0.029427     -0.015691     -0.001082
     -2.80627      9.96553      0.01362         0.021452      0.005124     -0.002920
     -0.34149      8.54239      0.01378         0.023875     -0.014246      0.000490
     -0.34138      9.96550      0.01354         0.011251      0.013128      0.000809
      2.12343      8.54232      0.01336        -0.012856     -0.014040      0.001288
      2.12354      9.96544      0.01469        -0.026792      0.014813     -0.001316
      4.58846      8.54235      0.01505        -0.020118     -0.017544      0.000603
      4.58853      9.96550      0.01517        -0.025492      0.007442     -0.000496
      3.04930      2.68154      3.53553        -0.020742      0.013135     -0.049839
      4.02070      2.02068      3.59996        -1.618207      1.081570     -0.143874
      2.07767      3.34267      3.47608         1.624114     -1.071655      0.051788
 -----------------------------------------------------------------------------------
    total drift:                               -0.021547      0.021229      0.025053


--------------------------------------------------------------------------------------------------------



  FREE ENERGIE OF THE ION-ELECTRON SYSTEM (eV)
  ---------------------------------------------------
  free  energy   TOTEN  =      -526.00145670 eV

  energy  without entropy=     -526.00145670  energy(sigma->0) =     -526.00145670
 


--------------------------------------------------------------------------------------------------------


    POTLOK:  cpu time    6.3612: real time    6.4120


--------------------------------------------------------------------------------------------------------


 writing wavefunctions
     LOOP+:  cpu time  829.4425: real time  837.1258
    4ORBIT:  cpu time    0.0000: real time    0.0000

 total amount of memory used by VASP MPI-rank0   556209. kBytes
=======================================================================

   base      :      30000. kBytes
   nonl-proj :     184518. kBytes
   fftplans  :      31725. kBytes
   grid      :     282516. kBytes
   one-center:        162. kBytes
   wavefun   :      27288. kBytes
 
  
  
 General timing and accounting informations for this job:
 ========================================================
  
                  Total CPU time used (sec):      864.844
                            User time (sec):      836.751
                          System time (sec):       28.093
                         Elapsed time (sec):      874.395
  
                   Maximum memory used (kb):     1184912.
                   Average memory used (kb):          N/A
  
                          Minor page faults:       415276
                          Major page faults:          105
                 Voluntary context switches:         3680
