 vasp.6.2.1 16May21 (build Nov 06 2021 14:46:37) complex                        
  
 executed on             LinuxIFC date 2025.03.03  20:36:53
 running on  112 total cores
 distrk:  each k-point on   56 cores,    2 groups
 distr:  one band on NCORE=   1 cores,   56 groups


--------------------------------------------------------------------------------------------------------


 INCAR:
   ALGO = Conjugate
   KPAR = 2
   NCORE = 32
   ISMEAR = 0
   SIGMA = 0.01
   PREC = Accurate
   EDIFF = 1E-7
   ENCUT = 1000
   ISIF = 0
   METAGGA = SCAN
   LUSE_VDW = .TRUE.
   BPARAM = 15.7
   LASPH = .TRUE.
   SYMPREC = 1E-7
   NELM = 200

 POTCAR:    PAW_PBE C_h 06Feb2004                 
 POTCAR:    PAW_PBE O_h 06Feb2004                 
 -----------------------------------------------------------------------------
|                                                                             |
|           W    W    AA    RRRRR   N    N  II  N    N   GGGG   !!!           |
|           W    W   A  A   R    R  NN   N  II  NN   N  G    G  !!!           |
|           W    W  A    A  R    R  N N  N  II  N N  N  G       !!!           |
|           W WW W  AAAAAA  RRRRR   N  N N  II  N  N N  G  GGG   !            |
|           WW  WW  A    A  R   R   N   NN  II  N   NN  G    G                |
|           W    W  A    A  R    R  N    N  II  N    N   GGGG   !!!           |
|                                                                             |
|     The value NCORE = 32 specified in the INCAR file was overwritten,       |
|     because it was not compatible with the 56 processes available:          |
|     NCORE = 1                                                               |
|     was used instead, please check that this makes sense for your           |
|     machine.                                                                |
|                                                                             |
 -----------------------------------------------------------------------------

 -----------------------------------------------------------------------------
|                                                                             |
|           W    W    AA    RRRRR   N    N  II  N    N   GGGG   !!!           |
|           W    W   A  A   R    R  NN   N  II  NN   N  G    G  !!!           |
|           W    W  A    A  R    R  N N  N  II  N N  N  G       !!!           |
|           W WW W  AAAAAA  RRRRR   N  N N  II  N  N N  G  GGG   !            |
|           WW  WW  A    A  R   R   N   NN  II  N   NN  G    G                |
|           W    W  A    A  R    R  N    N  II  N    N   GGGG   !!!           |
|                                                                             |
|     For optimal performance we recommend to set                             |
|       NCORE = 2 up to number-of-cores-per-socket                            |
|     NCORE specifies how many cores store one orbital (NPAR=cpu/NCORE).      |
|     This setting can greatly improve the performance of VASP for DFT.       |
|     The default, NCORE=1 might be grossly inefficient on modern             |
|     multi-core architectures or massively parallel machines. Do your        |
|     own testing! More info at https://www.vasp.at/wiki/index.php/NCORE      |
|     Unfortunately you need to use the default for GW and RPA                |
|     calculations (for HF NCORE is supported but not extensively tested      |
|     yet).                                                                   |
|                                                                             |
 -----------------------------------------------------------------------------

 -----------------------------------------------------------------------------
|                                                                             |
|               ----> ADVICE to this user running VASP <----                  |
|                                                                             |
|     You have switched on vdW-DFT.                                           |
|     This routine was written and supplied by Jiri Klimes. We recommend      |
|     that you carefully read and cite the following publications:            |
|       J. Klimes, D.R. Bowler, A. Michelides                                 |
|          J. Phys.: Cond Matt. 22 022201 (2010)                              |
|       J. Klimes, D.R. Bowler, A. Michelides                                 |
|          Phys. Rev. B. 83, 195131 (2011)                                    |
|     and references therein.                                                 |
|                                                                             |
 -----------------------------------------------------------------------------

 POTCAR:    PAW_PBE C_h 06Feb2004                 
   VRHFIN =C: s2p2                                                                                  
   LEXCH  = PE                                                                                      
   EATOM  =   147.1560 eV,   10.8157 Ry                                                             
                                                                                                    
   TITEL  = PAW_PBE C_h 06Feb2004                                                                   
   LULTRA =        F    use ultrasoft PP ?                                                          
   IUNSCR =        1    unscreen: 0-lin 1-nonlin 2-no                                               
   RPACOR =    0.800    partial core radius                                                         
   POMASS =   12.011; ZVAL   =    4.000    mass and valenz                                          
   RCORE  =    1.100    outmost cutoff radius                                                       
   RWIGS  =    1.630; RWIGS  =    0.863    wigner-seitz radius (au A)                               
   ENMAX  =  700.000; ENMIN  =  500.000 eV                                                          
   ICORE  =        2    local potential                                                             
   LCOR   =        T    correct aug charges                                                         
   LPAW   =        T    paw PP                                                                      
   EAUG   =  946.768                                                                                
   DEXC   =    0.000                                                                                
   RMAX   =    1.128    core radius for proj-oper                                                   
   RAUG   =    1.300    factor for augmentation sphere                                              
   RDEP   =    1.162    radius for radial grids                                                     
   RDEPT  =    1.088    core radius for aug-charge                                                  
                                                                                                    
   Atomic configuration                                                                             
    4 entries                                                                                       
     n  l   j            E        occ.                                                              
     1  0  0.50      -273.3789   2.0000                                                             
     2  0  0.50       -13.7508   2.0000                                                             
     2  1  0.50        -5.2854   2.0000                                                             
     3  2  1.50        -5.4423   0.0000                                                             
   Description                                                                                      
     l       E           TYP  RCUT    TYP  RCUT                                                     
     0    -13.7508458     23  1.100                                                                 
     0     -8.2022199     23  1.100                                                                 
     1     -5.2854383     23  1.100                                                                 
     1      1.1560700     23  1.100                                                                 
     2     -5.4423304      7  1.100                                                                 
  local pseudopotential read in
  partial core-charges read in
  partial kinetic energy density read in
  atomic valenz-charges read in
  non local Contribution for L=           0  read in
    real space projection operators read in
  non local Contribution for L=           0  read in
    real space projection operators read in
  non local Contribution for L=           1  read in
    real space projection operators read in
  non local Contribution for L=           1  read in
    real space projection operators read in
    PAW grid and wavefunctions read in
 
   number of l-projection  operators is LMAX  =           4
   number of lm-projection operators is LMMAX =           8
 
 POTCAR:    PAW_PBE O_h 06Feb2004                 
   VRHFIN =O: s2p4                                                                                  
   LEXCH  = PE                                                                                      
   EATOM  =   432.3788 eV,   31.7789 Ry                                                             
                                                                                                    
   TITEL  = PAW_PBE O_h 06Feb2004                                                                   
   LULTRA =        F    use ultrasoft PP ?                                                          
   IUNSCR =        1    unscreen: 0-lin 1-nonlin 2-no                                               
   RPACOR =    0.800    partial core radius                                                         
   POMASS =   16.000; ZVAL   =    6.000    mass and valenz                                          
   RCORE  =    1.100    outmost cutoff radius                                                       
   RWIGS  =    1.400; RWIGS  =    0.741    wigner-seitz radius (au A)                               
   ENMAX  =  700.000; ENMIN  =  500.000 eV                                                          
   ICORE  =        2    local potential                                                             
   LCOR   =        T    correct aug charges                                                         
   LPAW   =        T    paw PP                                                                      
   EAUG   =  888.804                                                                                
   DEXC   =    0.000                                                                                
   RMAX   =    1.128    core radius for proj-oper                                                   
   RAUG   =    1.300    factor for augmentation sphere                                              
   RDEP   =    1.125    radius for radial grids                                                     
   RDEPT  =    1.088    core radius for aug-charge                                                  
                                                                                                    
   Atomic configuration                                                                             
    4 entries                                                                                       
     n  l   j            E        occ.                                                              
     1  0  0.50      -514.6923   2.0000                                                             
     2  0  0.50       -23.9615   2.0000                                                             
     2  1  0.50        -9.0305   4.0000                                                             
     3  2  1.50        -9.5241   0.0000                                                             
   Description                                                                                      
     l       E           TYP  RCUT    TYP  RCUT                                                     
     0    -23.9615319     23  1.100                                                                 
     0    -25.3221145     23  1.100                                                                 
     1     -9.0304911     23  1.100                                                                 
     1     -5.4802209     23  1.100                                                                 
     2     -9.5240782      7  1.100                                                                 
  local pseudopotential read in
  partial core-charges read in
  partial kinetic energy density read in
  atomic valenz-charges read in
  non local Contribution for L=           0  read in
    real space projection operators read in
  non local Contribution for L=           0  read in
    real space projection operators read in
  non local Contribution for L=           1  read in
    real space projection operators read in
  non local Contribution for L=           1  read in
    real space projection operators read in
    PAW grid and wavefunctions read in
 
   number of l-projection  operators is LMAX  =           4
   number of lm-projection operators is LMMAX =           8
 
 -----------------------------------------------------------------------------
|                                                                             |
|               ----> ADVICE to this user running VASP <----                  |
|                                                                             |
|     You have a (more or less) 'large supercell' and for larger cells it     |
|     might be more efficient to use real-space projection operators.         |
|     Therefore, try LREAL= Auto in the INCAR file.                           |
|     Mind: For very accurate calculation, you might also keep the            |
|     reciprocal projection scheme (i.e. LREAL=.FALSE.).                      |
|                                                                             |
 -----------------------------------------------------------------------------

  PAW_PBE C_h 06Feb2004                 :
 energy of atom  1       EATOM= -147.1560
 kinetic energy error for atom=    0.0031 (will be added to EATOM!!)
  PAW_PBE O_h 06Feb2004                 :
 energy of atom  2       EATOM= -432.3788
 kinetic energy error for atom=    0.0171 (will be added to EATOM!!)
 
 
 POSCAR:  C  O
  positions in cartesian coordinates
  No initial velocities read in

 METAGGA = SCAN     LMAXTAU =  6    LMIXTAU =  F

 exchange correlation table for  LEXCH =        8
   RHO(1)=    0.500       N(1)  =     2000
   RHO(2)=  100.500       N(2)  =     4000
 


--------------------------------------------------------------------------------------------------------


 ion  position               nearest neighbor table
   1  0.972  0.000  0.001-  50 1.42   2 1.42  42 1.42
   2  0.039  0.134  0.001-   5 1.42   7 1.42   1 1.42
   3  0.172  0.000  0.001-  42 1.42  44 1.42   4 1.42
   4  0.239  0.134  0.000-   7 1.42   3 1.42  23 1.42
   5  0.972  0.200  0.001-   6 1.42   2 1.42  34 1.42
   6  0.039  0.334  0.001-   5 1.42  21 1.42  11 1.42
   7  0.172  0.200  0.000-   8 1.42   2 1.42   4 1.42
   8  0.239  0.334  0.000-  13 1.42   7 1.42  21 1.42
   9  0.372  0.000  0.001-  10 1.42  44 1.42  46 1.42
  10  0.439  0.134  0.000-  27 1.42   9 1.42  23 1.42
  11  0.972  0.400  0.001-  12 1.42  36 1.42   6 1.42
  12  0.039  0.534  0.001-  25 1.42  11 1.42  17 1.42
  13  0.372  0.400  0.000-   8 1.42  14 1.42  24 1.42
  14  0.439  0.534  0.000-  13 1.42  29 1.42  19 1.42
  15  0.572  0.000  0.001-  46 1.42  16 1.42  48 1.42
  16  0.639  0.134  0.001-  15 1.42  35 1.42  27 1.42
  17  0.972  0.600  0.001-  38 1.42  18 1.42  12 1.42
  18  0.039  0.734  0.001-  43 1.42  41 1.42  17 1.42
  19  0.572  0.600  0.001-  14 1.42  20 1.42  32 1.42
  20  0.639  0.734  0.001-  49 1.42  19 1.42  47 1.42
  21  0.172  0.400  0.000-  22 1.42   8 1.42   6 1.42
  22  0.239  0.534  0.000-  21 1.42  29 1.42  25 1.42
  23  0.372  0.200  0.000-  10 1.42   4 1.42  24 1.42
  24  0.439  0.334  0.000-  13 1.42  31 1.42  23 1.42
  25  0.172  0.600  0.001-  26 1.42  12 1.42  22 1.42
  26  0.239  0.734  0.001-  25 1.42  45 1.42  43 1.42
  27  0.572  0.200  0.001-  10 1.42  28 1.42  16 1.42
  28  0.639  0.334  0.001-  27 1.42  37 1.42  31 1.42
  29  0.372  0.600  0.000-  22 1.42  14 1.42  30 1.42
  30  0.439  0.734  0.001-  47 1.42  29 1.42  45 1.42
  31  0.572  0.400  0.000-  32 1.42  28 1.42  24 1.42
  32  0.639  0.534  0.001-  31 1.42  39 1.42  19 1.42
  33  0.772  0.000  0.001-  34 1.42  48 1.42  50 1.42
  34  0.839  0.134  0.001-  33 1.42   5 1.42  35 1.42
  35  0.772  0.200  0.001-  36 1.42  16 1.42  34 1.42
  36  0.839  0.334  0.001-  35 1.42  11 1.42  37 1.42
  37  0.772  0.400  0.001-  28 1.42  38 1.42  36 1.42
  38  0.839  0.534  0.001-  17 1.42  37 1.42  39 1.42
  39  0.772  0.600  0.001-  40 1.42  38 1.42  32 1.42
  40  0.839  0.734  0.001-  39 1.42  49 1.42  41 1.42
  41  0.972  0.800  0.001-  18 1.42  42 1.42  40 1.42
  42  0.039  0.934  0.001-   3 1.42  41 1.42   1 1.42
  43  0.172  0.800  0.001-  18 1.42  44 1.42  26 1.42
  44  0.239  0.934  0.001-   9 1.42  43 1.42   3 1.42
  45  0.372  0.800  0.001-  26 1.42  46 1.42  30 1.42
  46  0.439  0.934  0.001-  15 1.42  45 1.42   9 1.42
  47  0.572  0.800  0.001-  30 1.42  48 1.42  20 1.42
  48  0.639  0.934  0.001-  47 1.42  33 1.42  15 1.42
  49  0.772  0.800  0.001-  50 1.42  20 1.42  40 1.42
  50  0.839  0.934  0.001-  49 1.42   1 1.42  33 1.42
  51  0.373  0.251  0.265-  52 1.18  53 1.18
  52  0.421  0.189  0.268-  51 1.18
  53  0.325  0.313  0.262-  51 1.18
 
  LATTYP: Found a hexagonal cell.
 ALAT       =    12.3250000000
 C/A-ratio  =     1.6227180527
  
  Lattice vectors:
  
 A1 = (  12.3250000000,   0.0000000000,   0.0000000000)
 A2 = (  -6.1625000000,  10.6737631016,   0.0000000000)
 A3 = (   0.0000000000,   0.0000000000,  20.0000000000)


Analysis of symmetry for initial positions (statically):
=====================================================================
 Subroutine PRICEL returns:
 Original cell was already a primitive cell.
 

 Routine SETGRP: Setting up the symmetry group for a 
 hexagonal supercell.


 Subroutine GETGRP returns: Found  1 space group operations
 (whereof  1 operations were pure point group operations)
 out of a pool of 24 trial point group operations.


The static configuration has the point symmetry C_1 .


Analysis of symmetry for dynamics (positions and initial velocities):
=====================================================================
 Subroutine PRICEL returns:
 Original cell was already a primitive cell.
 

 Routine SETGRP: Setting up the symmetry group for a 
 hexagonal supercell.


 Subroutine GETGRP returns: Found  1 space group operations
 (whereof  1 operations were pure point group operations)
 out of a pool of 24 trial point group operations.


The dynamic configuration has the point symmetry C_1 .


 Subroutine INISYM returns: Found  1 space group operations
 (whereof  1 operations are pure point group operations),
 and found     1 'primitive' translations


----------------------------------------------------------------------------------------

                                     Primitive cell                                     

  volume of cell :    2631.0826

  direct lattice vectors                    reciprocal lattice vectors
    12.325000000  0.000000000  0.000000000     0.081135903  0.046843835  0.000000000
    -6.162500000 10.673763102  0.000000000     0.000000000  0.093687670  0.000000000
     0.000000000  0.000000000 20.000000000     0.000000000  0.000000000  0.050000000

  length of vectors
    12.325000000 12.325000000 20.000000000     0.093687670  0.093687670  0.050000000

  position of ions in fractional coordinates (direct lattice)
     0.972450841  0.000320818  0.000708389
     0.039118382  0.133659505  0.000550216
     0.172443627  0.000295449  0.000624535
     0.239096278  0.133647917  0.000320585
     0.972452058  0.200322012  0.000606523
     0.039128360  0.333643771  0.000555187
     0.172451764  0.200354552  0.000273959
     0.239124359  0.333665720  0.000090325
     0.372465565  0.000324403  0.000567391
     0.439137473  0.133619939  0.000322923
     0.972449824  0.400309362  0.000684513
     0.039124981  0.533636789  0.000716763
     0.372416176  0.400329481  0.000000000
     0.439099602  0.533638981  0.000290518
     0.572443676  0.000312125  0.000699475
     0.639110207  0.133631751  0.000684093
     0.972452703  0.600305653  0.000800361
     0.039124495  0.733640359  0.000818141
     0.572433471  0.600306242  0.000503618
     0.639111888  0.733641879  0.000659881
     0.172454630  0.400318228  0.000361306
     0.239120185  0.533636548  0.000473136
     0.372459750  0.200295993  0.000111246
     0.439107096  0.333673419  0.000069702
     0.172452155  0.600311506  0.000655425
     0.239123371  0.733638574  0.000718912
     0.572431082  0.200289171  0.000516621
     0.639112773  0.333618630  0.000577970
     0.372439808  0.600308022  0.000453556
     0.439116090  0.733637858  0.000617737
     0.572469358  0.400320504  0.000424897
     0.639119408  0.533650873  0.000574513
     0.772445723  0.000315427  0.000745201
     0.839116277  0.133640203  0.000719132
     0.772440513  0.200307432  0.000726291
     0.839120241  0.333635728  0.000731834
     0.772446320  0.400298367  0.000728722
     0.839118980  0.533633964  0.000776376
     0.772456143  0.600308173  0.000744639
     0.839115033  0.733643180  0.000789390
     0.972455313  0.800305582  0.000815291
     0.039114714  0.933643289  0.000747563
     0.172457971  0.800312211  0.000779216
     0.239134551  0.933647193  0.000681063
     0.372451396  0.800316674  0.000689249
     0.439124489  0.933644769  0.000676788
     0.572441101  0.800310054  0.000668168
     0.639115067  0.933638985  0.000734556
     0.772445098  0.800313187  0.000752577
     0.839116614  0.933644338  0.000758538
     0.373021009  0.251226878  0.264865773
     0.420879805  0.189313152  0.268086866
     0.325156981  0.313167186  0.261893030

  ion indices of the primitive-cell ions
   primitive index   ion index
                 1           1
                 2           2
                 3           3
                 4           4
                 5           5
                 6           6
                 7           7
                 8           8
                 9           9
                10          10
                11          11
                12          12
                13          13
                14          14
                15          15
                16          16
                17          17
                18          18
                19          19
                20          20
                21          21
                22          22
                23          23
                24          24
                25          25
                26          26
                27          27
                28          28
                29          29
                30          30
                31          31
                32          32
                33          33
                34          34
                35          35
                36          36
                37          37
                38          38
                39          39
                40          40
                41          41
                42          42
                43          43
                44          44
                45          45
                46          46
                47          47
                48          48
                49          49
                50          50
                51          51
                52          52
                53          53

----------------------------------------------------------------------------------------

 
 
 KPOINTS: auto                                    

Automatic generation of k-mesh.
 Grid dimensions read from file:
 generate k-points for:    1    1    1

 Generating k-lattice:

  Cartesian coordinates                     Fractional coordinates (reciprocal lattice)
     0.081135903  0.046843835  0.000000000     1.000000000 -0.000000000  0.000000000
     0.000000000  0.093687670  0.000000000     0.000000000  1.000000000  0.000000000
     0.000000000  0.000000000  0.050000000     0.000000000  0.000000000  1.000000000

  Length of vectors
     0.093687670  0.093687670  0.050000000

  Shift w.r.t. Gamma in fractional coordinates (k-lattice)
     0.000000000  0.000000000  0.000000000

 
 Subroutine IBZKPT returns following result:
 ===========================================
 
 Found      1 irreducible k-points:
 
 Following reciprocal coordinates:
            Coordinates               Weight
  0.000000  0.000000  0.000000      1.000000
 
 Following cartesian coordinates:
            Coordinates               Weight
  0.000000  0.000000  0.000000      1.000000
 


--------------------------------------------------------------------------------------------------------




 Dimension of arrays:
   k-points           NKPTS =      1   k-points in BZ     NKDIM =      1   number of bands    NBANDS=    168
   number of dos      NEDOS =    301   number of ions     NIONS =     53
   non local maximal  LDIM  =      4   non local SUM 2l+1 LMDIM =      8
   total plane-waves  NPLWV = ******
   max r-space proj   IRMAX =      1   max aug-charges    IRDMAX=   9736
   dimension x,y,z NGX =   128 NGY =  128 NGZ =  210
   dimension x,y,z NGXF=   256 NGYF=  256 NGZF=  420
   support grid    NGXF=   256 NGYF=  256 NGZF=  420
   ions per type =              51   2
   NGX,Y,Z   is equivalent  to a cutoff of  17.27, 17.27, 17.46 a.u.
   NGXF,Y,Z  is equivalent  to a cutoff of  34.53, 34.53, 34.91 a.u.

 SYSTEM =  unknown system                          
 POSCAR =   C  O                                   

 Startparameter for this run:
   NWRITE =      2    write-flag & timer
   PREC   = accura    normal or accurate (medium, high low for compatibility)
   ISTART =      0    job   : 0-new  1-cont  2-samecut
   ICHARG =      2    charge: 1-file 2-atom 10-const
   ISPIN  =      1    spin polarized calculation?
   LNONCOLLINEAR =      F non collinear calculations
   LSORBIT =      F    spin-orbit coupling
   INIWAV =      1    electr: 0-lowe 1-rand  2-diag
   LASPH  =      T    aspherical Exc in radial PAW
 Electronic Relaxation 1
   ENCUT  = 1000.0 eV  73.50 Ry    8.57 a.u.  31.78 31.78 51.57*2*pi/ulx,y,z
   ENINI  = 1000.0     initial cutoff
   ENAUG  =  946.8 eV  augmentation charge cutoff
   NELM   =    200;   NELMIN=  2; NELMDL= -5     # of ELM steps 
   EDIFF  = 0.1E-06   stopping-criterion for ELM
   LREAL  =      F    real-space projection
   NLSPLINE    = F    spline interpolate recip. space projectors
   LCOMPAT=      F    compatible to vasp.4.4
   GGA_COMPAT  = T    GGA compatible to vasp.4.4-vasp.4.6
   LMAXPAW     = -100 max onsite density
   LMAXMIX     =    2 max onsite mixed and CHGCAR
   VOSKOWN=      0    Vosko Wilk Nusair interpolation
   ROPT   =    0.00000   0.00000
 Ionic relaxation
   EDIFFG = 0.1E-05   stopping-criterion for IOM
   NSW    =      0    number of steps for IOM
   NBLOCK =      1;   KBLOCK =      1    inner block; outer block 
   IBRION =     -1    ionic relax: 0-MD 1-quasi-New 2-CG
   NFREE  =      0    steps in history (QN), initial steepest desc. (CG)
   ISIF   =      0    stress and relaxation
   IWAVPR =     10    prediction:  0-non 1-charg 2-wave 3-comb
   ISYM   =      2    0-nonsym 1-usesym 2-fastsym
   LCORR  =      T    Harris-Foulkes like correction to forces

   POTIM  = 0.5000    time-step for ionic-motion
   TEIN   =    0.0    initial temperature
   TEBEG  =    0.0;   TEEND  =   0.0 temperature during run
   SMASS  =  -3.00    Nose mass-parameter (am)
   estimated Nose-frequenzy (Omega)   =  0.10E-29 period in steps = 0.13E+47 mass=  -0.347E-26a.u.
   SCALEE = 1.0000    scale energy and forces
   NPACO  =    256;   APACO  = 16.0  distance and # of slots for P.C.
   PSTRESS=    0.0 pullay stress

  Mass of Ions in am
   POMASS =  12.01 16.00
  Ionic Valenz
   ZVAL   =   4.00  6.00
  Atomic Wigner-Seitz radii
   RWIGS  =  -1.00 -1.00
  virtual crystal weights 
   VCA    =   1.00  1.00
   NELECT =     216.0000    total number of electrons
   NUPDOWN=      -1.0000    fix difference up-down

 DOS related values:
   EMIN   =  10.00;   EMAX   =-10.00  energy-range for DOS
   EFERMI =   0.00
   ISMEAR =     0;   SIGMA  =   0.01  broadening in eV -4-tet -1-fermi 0-gaus

 Electronic relaxation 2 (details)
   IALGO  =     58    algorithm
   LDIAG  =      T    sub-space diagonalisation (order eigenvalues)
   LSUBROT=      F    optimize rotation matrix (better conditioning)
   TURBO    =      0    0=normal 1=particle mesh
   IRESTART =      0    0=no restart 2=restart with 2 vectors
   NREBOOT  =      0    no. of reboots
   NMIN     =      0    reboot dimension
   EREF     =   0.00    reference energy to select bands
   IMIX   =      4    mixing-type and parameters
     AMIX     =   0.40;   BMIX     =  1.00
     AMIX_MAG =   1.60;   BMIX_MAG =  1.00
     AMIN     =   0.10
     WC   =   100.;   INIMIX=   1;  MIXPRE=   1;  MAXMIX= -45

 Intra band minimization:
   WEIMIN = 0.0000     energy-eigenvalue tresh-hold
   EBREAK =  0.15E-09  absolut break condition
   DEPER  =   0.30     relativ break condition  

   TIME   =   0.40     timestep for ELM

  volume/ion in A,a.u.               =      49.64       335.01
  Fermi-wavevector in a.u.,A,eV,Ry     =   0.711510  1.344560  6.887909  0.506247
  Thomas-Fermi vector in A             =   1.798641
 
 Write flags
   LWAVE        =      T    write WAVECAR
   LDOWNSAMPLE  =      F    k-point downsampling of WAVECAR
   LCHARG       =      T    write CHGCAR
   LVTOT        =      F    write LOCPOT, total local potential
   LVHAR        =      F    write LOCPOT, Hartree potential only
   LELF         =      F    write electronic localiz. function (ELF)
   LORBIT       =      0    0 simple, 1 ext, 2 COOP (PROOUT), +10 PAW based schemes


 Dipole corrections
   LMONO  =      F    monopole corrections only (constant potential shift)
   LDIPOL =      F    correct potential (dipole corrections)
   IDIPOL =      0    1-x, 2-y, 3-z, 4-all directions 
   EPSILON=  1.0000000 bulk dielectric constant

 Exchange correlation treatment:
   GGA     =    --    GGA type
   LEXCH   =     8    internal setting for exchange type
   VOSKOWN=      0    Vosko Wilk Nusair interpolation
   LHFCALC =     F    Hartree Fock is set to
   LHFONE  =     F    Hartree Fock one center treatment
   AEXX    =    0.0000 exact exchange contribution

 vdW DFT:
   LUSE_VDW   =     T    switch on vdW DFT
   Zab_VDW    =-.8491    correlation parameter
   PARAM1     =0.1234
   PARAM2     =1.0000
   PARAM3     =0.0000
   -- rVV10 --
   BPARAM     =15.7000
   CPARAM     = 0.0093

 Linear response parameters
   LEPSILON=     F    determine dielectric tensor
   LRPA    =     F    only Hartree local field effects (RPA)
   LNABLA  =     F    use nabla operator in PAW spheres
   LVEL    =     F    velocity operator in full k-point grid
   LINTERFAST=   F  fast interpolation
   KINTER  =     0    interpolate to denser k-point grid
   CSHIFT  =0.1000    complex shift for real part using Kramers Kronig
   OMEGAMAX=  -1.0    maximum frequency
   DEG_THRESHOLD= 0.2000000E-02 threshold for treating states as degnerate
   RTIME   =   -0.100 relaxation time in fs
  (WPLASMAI=    0.000 imaginary part of plasma frequency in eV, 0.658/RTIME)
   DFIELD  = 0.0000000 0.0000000 0.0000000 field for delta impulse in time
 
 Orbital magnetization related:
   ORBITALMAG=     F  switch on orbital magnetization
   LCHIMAG   =     F  perturbation theory with respect to B field
   DQ        =  0.001000  dq finite difference perturbation B field
   LLRAUG    =     F  two centre corrections for induced B field



--------------------------------------------------------------------------------------------------------


 Static calculation
 charge density and potential will be updated during run
 non-spin polarized calculation
 Conjugate gradient for all bands (Freysoldt, et al. PRB 79, 241103 (2009))
 preconditioned conjugated gradient                                        
 perform sub-space diagonalisation
    before iterative eigenvector-optimisation
 modified Broyden-mixing scheme, WC =      100.0
 initial mixing is a Kerker type mixing with AMIX =  0.4000 and BMIX =      1.0000
 Hartree-type preconditioning will be used
 using additional bands           60
 reciprocal scheme for non local part
 use partial core corrections
 no Harris-corrections to forces 
 use gradient corrections 
 use of overlap-Matrix (Vanderbilt PP)
 Gauss-broadening in eV      SIGMA  =   0.01


--------------------------------------------------------------------------------------------------------


  energy-cutoff  :     1000.00
  volume of cell :     2631.08
      direct lattice vectors                 reciprocal lattice vectors
    12.325000000  0.000000000  0.000000000     0.081135903  0.046843835  0.000000000
    -6.162500000 10.673763102  0.000000000     0.000000000  0.093687670  0.000000000
     0.000000000  0.000000000 20.000000000     0.000000000  0.000000000  0.050000000

  length of vectors
    12.325000000 12.325000000 20.000000000     0.093687670  0.093687670  0.050000000


 
 k-points in units of 2pi/SCALE and weight: auto                                    
   0.00000000  0.00000000  0.00000000       1.000
 
 k-points in reciprocal lattice and weights: auto                                    
   0.00000000  0.00000000  0.00000000       1.000
 
 position of ions in fractional coordinates (direct lattice) 
   0.97245084  0.00032082  0.00070839
   0.03911838  0.13365950  0.00055022
   0.17244363  0.00029545  0.00062454
   0.23909628  0.13364792  0.00032058
   0.97245206  0.20032201  0.00060652
   0.03912836  0.33364377  0.00055519
   0.17245176  0.20035455  0.00027396
   0.23912436  0.33366572  0.00009033
   0.37246557  0.00032440  0.00056739
   0.43913747  0.13361994  0.00032292
   0.97244982  0.40030936  0.00068451
   0.03912498  0.53363679  0.00071676
   0.37241618  0.40032948  0.00000000
   0.43909960  0.53363898  0.00029052
   0.57244368  0.00031213  0.00069947
   0.63911021  0.13363175  0.00068409
   0.97245270  0.60030565  0.00080036
   0.03912449  0.73364036  0.00081814
   0.57243347  0.60030624  0.00050362
   0.63911189  0.73364188  0.00065988
   0.17245463  0.40031823  0.00036131
   0.23912018  0.53363655  0.00047314
   0.37245975  0.20029599  0.00011125
   0.43910710  0.33367342  0.00006970
   0.17245216  0.60031151  0.00065542
   0.23912337  0.73363857  0.00071891
   0.57243108  0.20028917  0.00051662
   0.63911277  0.33361863  0.00057797
   0.37243981  0.60030802  0.00045356
   0.43911609  0.73363786  0.00061774
   0.57246936  0.40032050  0.00042490
   0.63911941  0.53365087  0.00057451
   0.77244572  0.00031543  0.00074520
   0.83911628  0.13364020  0.00071913
   0.77244051  0.20030743  0.00072629
   0.83912024  0.33363573  0.00073183
   0.77244632  0.40029837  0.00072872
   0.83911898  0.53363396  0.00077638
   0.77245614  0.60030817  0.00074464
   0.83911503  0.73364318  0.00078939
   0.97245531  0.80030558  0.00081529
   0.03911471  0.93364329  0.00074756
   0.17245797  0.80031221  0.00077922
   0.23913455  0.93364719  0.00068106
   0.37245140  0.80031667  0.00068925
   0.43912449  0.93364477  0.00067679
   0.57244110  0.80031005  0.00066817
   0.63911507  0.93363899  0.00073456
   0.77244510  0.80031319  0.00075258
   0.83911661  0.93364434  0.00075854
   0.37302101  0.25122688  0.26486577
   0.42087980  0.18931315  0.26808687
   0.32515698  0.31316719  0.26189303
 
 position of ions in cartesian coordinates  (Angst):
  11.98347958  0.00342433  0.01416777
  -0.34154264  1.42664989  0.01100432
   2.12354700  0.00315355  0.01249070
   2.12325634  1.42652621  0.00641170
  10.75098721  2.13818970  0.01213047
  -1.57382270  3.56123457  0.01110375
   0.89078307  2.13853702  0.00547917
   0.89099273  3.56146885  0.00180651
   4.58863896  0.00346260  0.01134782
   4.58893648  1.42622757  0.00645846
   9.51853763  4.27280730  0.01369027
  -2.80632132  5.69591267  0.01433526
   2.12299894  4.27302204  0.00000000
   2.12335237  5.69593607  0.00581036
   7.05344483  0.00333155  0.01398950
   7.05352764  1.42635365  0.01368187
   8.28609598  6.40752033  0.01600723
  -4.03884931  7.83070339  0.01636283
   3.35585531  6.40752662  0.01007237
   3.35598594  7.83071962  0.01319763
  -0.34145776  4.27290193  0.00722612
  -0.34137895  5.69591010  0.00946273
   3.35624236  2.13791198  0.00222492
   3.35573251  3.56155103  0.00139405
  -1.57394684  6.40758280  0.01310850
  -1.57385216  7.83068434  0.01437823
   5.82093107  2.13783916  0.01033241
   5.82114012  3.56096622  0.01155939
   0.89092245  6.40754561  0.00907111
   0.89106251  7.83067670  0.01235474
   4.58870974  4.27292622  0.00849795
   4.58852320  5.69606300  0.01149026
   9.51844972  0.00336679  0.01490402
   9.51855036  1.42644387  0.01438264
   8.28593477  2.13803408  0.01452582
   8.28612680  3.56114872  0.01463668
   7.05356221  4.27268994  0.01457444
   7.05362213  5.69588251  0.01552751
   5.82112285  6.40754723  0.01489279
   5.82101669  7.83073350  0.01578780
   7.05362858  8.54227219  0.01630582
  -5.27148792  9.96548729  0.01495127
  -2.80637951  8.54234295  0.01558431
  -2.80626749  9.96552896  0.01362126
  -0.34148805  8.54239058  0.01378498
  -0.34137657  9.96550309  0.01353576
   2.12342586  8.54231992  0.01336337
   2.12354296  9.96544135  0.01469111
   4.58845581  8.54235337  0.01505154
   4.58852904  9.96549848  0.01517076
   3.04929830  2.68153618  5.29731547
   4.02070129  2.02068374  5.36173733
   2.07766701  3.34267235  5.23786060
 


--------------------------------------------------------------------------------------------------------


 k-point   1 :   0.0000 0.0000 0.0000  plane waves:  189031

 maximum and minimum number of plane-waves per node :    189031   189031

 maximum number of plane-waves:    189031
 maximum index in each direction: 
   IXMAX=   31   IYMAX=   31   IZMAX=   51
   IXMIN=  -31   IYMIN=  -31   IZMIN=  -51


 serial   3D FFT for wavefunctions
 parallel 3D FFT for charge:
    minimum data exchange during FFTs selected (reduces bandwidth)


 total amount of memory used by VASP MPI-rank0   556209. kBytes
=======================================================================

   base      :      30000. kBytes
   nonl-proj :     184518. kBytes
   fftplans  :      31725. kBytes
   grid      :     282516. kBytes
   one-center:        162. kBytes
   wavefun   :      27288. kBytes
 
     INWAV:  cpu time    0.0000: real time    0.0000
 Broyden mixing: mesh for mixing (old mesh)
   NGX = 63   NGY = 63   NGZ =103
  (NGX  =256   NGY  =256   NGZ  =420)
  gives a total of 408807 points

 initial charge density was supplied:
 charge density of overlapping atoms calculated
 number of electron     216.0000000 magnetization 
 keeping initial charge density in first step


--------------------------------------------------------------------------------------------------------


 Maximum index for augmentation-charges          459 (set IRDMAX)


--------------------------------------------------------------------------------------------------------


 First call to EWALD:  gamma=   0.128
 Maximum number of real-space cells 3x 3x 2
 Maximum number of reciprocal cells 3x 3x 4

    FEWALD:  cpu time    0.0024: real time    0.0024


--------------------------------------- Iteration      1(   1)  ---------------------------------------


    POTLOK:  cpu time    6.2397: real time    6.2804
    SETDIJ:  cpu time    0.1564: real time    0.1569
    TRIAL :  cpu time   21.7425: real time   21.9492
    CORREC:  cpu time    0.0005: real time    0.0006
    --------------------------------------------
      LOOP:  cpu time   28.1516: real time   28.4098

 eigenvalue-minimisations  :   336
 total energy-change (2. order) : 0.2410197E+04  (-0.1180243E+05)
 number of electron     216.0000000 magnetization 
 augmentation part      216.0000000 magnetization 

 Free energy of the ion-electron system (eV)
  ---------------------------------------------------
  alpha Z        PSCENC =        59.93625244
  Ewald energy   TEWEN  =     31652.86799389
  -Hartree energ DENC   =    -37828.31078546
  -exchange      EXHF   =         0.00000000
  -V(xc)+E(xc)   XCENC  =       604.27345717
  PAW double counting   =      6339.73130699    -6197.22120962
  entropy T*S    EENTRO =        -0.00000000
  eigenvalues    EBANDS =      -590.60344856
  atomic energy  EATOM  =      8369.52358910
  ---------------------------------------------------
  free energy    TOTEN  =      2410.19715595 eV

  energy without entropy =     2410.19715595  energy(sigma->0) =     2410.19715595


--------------------------------------------------------------------------------------------------------




--------------------------------------- Iteration      1(   2)  ---------------------------------------


    TRIAL :  cpu time   30.9293: real time   31.1786
    CORREC:  cpu time    0.0001: real time    0.0001
    --------------------------------------------
      LOOP:  cpu time   30.9671: real time   31.2227

 eigenvalue-minimisations  :   560
 total energy-change (2. order) :-0.2436744E+04  (-0.2306592E+04)
 number of electron     216.0000000 magnetization 
 augmentation part      216.0000000 magnetization 

 Free energy of the ion-electron system (eV)
  ---------------------------------------------------
  alpha Z        PSCENC =        59.93625244
  Ewald energy   TEWEN  =     31652.86799389
  -Hartree energ DENC   =    -37828.31078546
  -exchange      EXHF   =         0.00000000
  -V(xc)+E(xc)   XCENC  =       604.27345717
  PAW double counting   =      6339.73130699    -6197.22120962
  entropy T*S    EENTRO =        -0.00000000
  eigenvalues    EBANDS =     -3027.34699612
  atomic energy  EATOM  =      8369.52358910
  ---------------------------------------------------
  free energy    TOTEN  =       -26.54639161 eV

  energy without entropy =      -26.54639161  energy(sigma->0) =      -26.54639161


--------------------------------------------------------------------------------------------------------




--------------------------------------- Iteration      1(   3)  ---------------------------------------


    TRIAL :  cpu time   23.9943: real time   24.2115
    CORREC:  cpu time    0.0001: real time    0.0001
    --------------------------------------------
      LOOP:  cpu time   24.0262: real time   24.2438

 eigenvalue-minimisations  :   392
 total energy-change (2. order) :-0.5615534E+03  (-0.5586426E+03)
 number of electron     216.0000000 magnetization 
 augmentation part      216.0000000 magnetization 

 Free energy of the ion-electron system (eV)
  ---------------------------------------------------
  alpha Z        PSCENC =        59.93625244
  Ewald energy   TEWEN  =     31652.86799389
  -Hartree energ DENC   =    -37828.31078546
  -exchange      EXHF   =         0.00000000
  -V(xc)+E(xc)   XCENC  =       604.27345717
  PAW double counting   =      6339.73130699    -6197.22120962
  entropy T*S    EENTRO =        -0.00000000
  eigenvalues    EBANDS =     -3588.90044143
  atomic energy  EATOM  =      8369.52358910
  ---------------------------------------------------
  free energy    TOTEN  =      -588.09983692 eV

  energy without entropy =     -588.09983692  energy(sigma->0) =     -588.09983692


--------------------------------------------------------------------------------------------------------




--------------------------------------- Iteration      1(   4)  ---------------------------------------


    TRIAL :  cpu time   26.3100: real time   26.5536
    CORREC:  cpu time    0.0001: real time    0.0001
    --------------------------------------------
      LOOP:  cpu time   26.3471: real time   26.6051

 eigenvalue-minimisations  :   448
 total energy-change (2. order) :-0.2629317E+02  (-0.2613282E+02)
 number of electron     216.0000000 magnetization 
 augmentation part      216.0000000 magnetization 

 Free energy of the ion-electron system (eV)
  ---------------------------------------------------
  alpha Z        PSCENC =        59.93625244
  Ewald energy   TEWEN  =     31652.86799389
  -Hartree energ DENC   =    -37828.31078546
  -exchange      EXHF   =         0.00000000
  -V(xc)+E(xc)   XCENC  =       604.27345717
  PAW double counting   =      6339.73130699    -6197.22120962
  entropy T*S    EENTRO =        -0.00000000
  eigenvalues    EBANDS =     -3615.19361359
  atomic energy  EATOM  =      8369.52358910
  ---------------------------------------------------
  free energy    TOTEN  =      -614.39300907 eV

  energy without entropy =     -614.39300907  energy(sigma->0) =     -614.39300907


--------------------------------------------------------------------------------------------------------




--------------------------------------- Iteration      1(   5)  ---------------------------------------


    TRIAL :  cpu time   26.3108: real time   26.5375
    CORREC:  cpu time    0.0001: real time    0.0003
    CHARGE:  cpu time    2.2872: real time    2.3036
    --------------------------------------------
      LOOP:  cpu time   28.6084: real time   28.8741

 eigenvalue-minimisations  :   448
 total energy-change (2. order) :-0.9338495E+00  (-0.9298136E+00)
 number of electron     216.0000000 magnetization 
 augmentation part       -0.4304136 magnetization 

 Free energy of the ion-electron system (eV)
  ---------------------------------------------------
  alpha Z        PSCENC =        59.93625244
  Ewald energy   TEWEN  =     31652.86799389
  -Hartree energ DENC   =    -37828.31078546
  -exchange      EXHF   =         0.00000000
  -V(xc)+E(xc)   XCENC  =       604.27345717
  PAW double counting   =      6339.73130699    -6197.22120962
  entropy T*S    EENTRO =        -0.00000000
  eigenvalues    EBANDS =     -3616.12746306
  atomic energy  EATOM  =      8369.52358910
  ---------------------------------------------------
  free energy    TOTEN  =      -615.32685855 eV

  energy without entropy =     -615.32685855  energy(sigma->0) =     -615.32685855


--------------------------------------------------------------------------------------------------------




--------------------------------------- Iteration      1(   6)  ---------------------------------------


    POTLOK:  cpu time    6.1226: real time    6.1610
    SETDIJ:  cpu time    0.2373: real time    0.2382
    TRIAL :  cpu time   15.4966: real time   15.6143
    CORREC:  cpu time   11.7641: real time   11.8426
    CHARGE:  cpu time    2.2838: real time    2.3019
    --------------------------------------------
      LOOP:  cpu time   35.9239: real time   36.1808

 eigenvalue-minimisations  :     0
 total energy-change (2. order) : 0.1039468E+03  (-0.1211434E+02)
 number of electron     216.0000000 magnetization 
 augmentation part       -0.4881609 magnetization 

 Free energy of the ion-electron system (eV)
  ---------------------------------------------------
  alpha Z        PSCENC =        59.93625244
  Ewald energy   TEWEN  =     31652.86799389
  -Hartree energ DENC   =    -39156.29919138
  -exchange      EXHF   =         0.00000000
  -V(xc)+E(xc)   XCENC  =       671.05348151
  PAW double counting   =    113863.35097159  -113726.56617690
  entropy T*S    EENTRO =        -0.00000000
  eigenvalues    EBANDS =     -2245.24694702
  atomic energy  EATOM  =      8369.52358910
  ---------------------------------------------------
  free energy    TOTEN  =      -511.38002677 eV

  energy without entropy =     -511.38002677  energy(sigma->0) =     -511.38002677


--------------------------------------------------------------------------------------------------------




--------------------------------------- Iteration      1(   7)  ---------------------------------------


    POTLOK:  cpu time    6.1120: real time    6.1490
    SETDIJ:  cpu time    0.1859: real time    0.1866
    TRIAL :  cpu time   15.4997: real time   15.6667
    CORREC:  cpu time   11.7432: real time   11.8419
    CHARGE:  cpu time    2.2823: real time    2.3017
    --------------------------------------------
      LOOP:  cpu time   35.8757: real time   36.2027

 eigenvalue-minimisations  :     0
 total energy-change (2. order) :-0.1212964E+02  (-0.1571025E+01)
 number of electron     216.0000000 magnetization 
 augmentation part       -0.5188878 magnetization 

 Free energy of the ion-electron system (eV)
  ---------------------------------------------------
  alpha Z        PSCENC =        59.93625244
  Ewald energy   TEWEN  =     31652.86799389
  -Hartree energ DENC   =    -38735.55901698
  -exchange      EXHF   =         0.00000000
  -V(xc)+E(xc)   XCENC  =       651.09761547
  PAW double counting   =    131916.34310300  -131776.80473681
  entropy T*S    EENTRO =        -0.00000000
  eigenvalues    EBANDS =     -2660.91446578
  atomic energy  EATOM  =      8369.52358910
  ---------------------------------------------------
  free energy    TOTEN  =      -523.50966566 eV

  energy without entropy =     -523.50966566  energy(sigma->0) =     -523.50966566


--------------------------------------------------------------------------------------------------------




--------------------------------------- Iteration      1(   8)  ---------------------------------------


    POTLOK:  cpu time    6.1255: real time    6.1692
    SETDIJ:  cpu time    0.1709: real time    0.1715
    TRIAL :  cpu time   15.4800: real time   15.6008
    CORREC:  cpu time   11.7641: real time   11.8495
    CHARGE:  cpu time    2.2841: real time    2.3009
    --------------------------------------------
      LOOP:  cpu time   35.8524: real time   36.1198

 eigenvalue-minimisations  :     0
 total energy-change (2. order) :-0.1571163E+01  (-0.4960057E+00)
 number of electron     216.0000000 magnetization 
 augmentation part       -0.5179720 magnetization 

 Free energy of the ion-electron system (eV)
  ---------------------------------------------------
  alpha Z        PSCENC =        59.93625244
  Ewald energy   TEWEN  =     31652.86799389
  -Hartree energ DENC   =    -38706.35896555
  -exchange      EXHF   =         0.00000000
  -V(xc)+E(xc)   XCENC  =       649.53054735
  PAW double counting   =    139963.34332227  -139823.32437903
  entropy T*S    EENTRO =        -0.00000000
  eigenvalues    EBANDS =     -2690.59918929
  atomic energy  EATOM  =      8369.52358910
  ---------------------------------------------------
  free energy    TOTEN  =      -525.08082880 eV

  energy without entropy =     -525.08082880  energy(sigma->0) =     -525.08082880


--------------------------------------------------------------------------------------------------------




--------------------------------------- Iteration      1(   9)  ---------------------------------------


    POTLOK:  cpu time    6.1269: real time    6.1665
    SETDIJ:  cpu time    0.1735: real time    0.1741
    TRIAL :  cpu time   15.4757: real time   15.6079
    CORREC:  cpu time   11.7398: real time   11.8197
    CHARGE:  cpu time    2.2812: real time    2.2986
    --------------------------------------------
      LOOP:  cpu time   35.8154: real time   36.0951

 eigenvalue-minimisations  :     0
 total energy-change (2. order) :-0.4959326E+00  (-0.1876564E+00)
 number of electron     216.0000000 magnetization 
 augmentation part       -0.5137484 magnetization 

 Free energy of the ion-electron system (eV)
  ---------------------------------------------------
  alpha Z        PSCENC =        59.93625244
  Ewald energy   TEWEN  =     31652.86799389
  -Hartree energ DENC   =    -38714.59150053
  -exchange      EXHF   =         0.00000000
  -V(xc)+E(xc)   XCENC  =       649.31568126
  PAW double counting   =    146087.68811124  -145947.47621830
  entropy T*S    EENTRO =        -0.00000000
  eigenvalues    EBANDS =     -2682.84067048
  atomic energy  EATOM  =      8369.52358910
  ---------------------------------------------------
  free energy    TOTEN  =      -525.57676138 eV

  energy without entropy =     -525.57676138  energy(sigma->0) =     -525.57676138


--------------------------------------------------------------------------------------------------------




--------------------------------------- Iteration      1(  10)  ---------------------------------------


    POTLOK:  cpu time    6.1471: real time    6.1936
    SETDIJ:  cpu time    0.1825: real time    0.1831
    TRIAL :  cpu time   15.4641: real time   15.6018
    CORREC:  cpu time   11.7650: real time   11.8503
    CHARGE:  cpu time    2.2904: real time    2.3086
    --------------------------------------------
      LOOP:  cpu time   35.9161: real time   36.2074

 eigenvalue-minimisations  :     0
 total energy-change (2. order) :-0.1875161E+00  (-0.7857448E-01)
 number of electron     216.0000000 magnetization 
 augmentation part       -0.5079385 magnetization 

 Free energy of the ion-electron system (eV)
  ---------------------------------------------------
  alpha Z        PSCENC =        59.93625244
  Ewald energy   TEWEN  =     31652.86799389
  -Hartree energ DENC   =    -38714.69131909
  -exchange      EXHF   =         0.00000000
  -V(xc)+E(xc)   XCENC  =       649.12309681
  PAW double counting   =    148488.27071774  -148347.96304960
  entropy T*S    EENTRO =        -0.00000000
  eigenvalues    EBANDS =     -2682.83155878
  atomic energy  EATOM  =      8369.52358910
  ---------------------------------------------------
  free energy    TOTEN  =      -525.76427750 eV

  energy without entropy =     -525.76427750  energy(sigma->0) =     -525.76427750


--------------------------------------------------------------------------------------------------------




--------------------------------------- Iteration      1(  11)  ---------------------------------------


    POTLOK:  cpu time    6.1356: real time    6.1755
    SETDIJ:  cpu time    0.2008: real time    0.2018
    TRIAL :  cpu time   15.4669: real time   15.6021
    CORREC:  cpu time   11.7635: real time   11.8509
    CHARGE:  cpu time    2.2781: real time    2.3002
    --------------------------------------------
      LOOP:  cpu time   35.8988: real time   36.1851

 eigenvalue-minimisations  :     0
 total energy-change (2. order) :-0.7835918E-01  (-0.3111768E-01)
 number of electron     216.0000000 magnetization 
 augmentation part       -0.5043892 magnetization 

 Free energy of the ion-electron system (eV)
  ---------------------------------------------------
  alpha Z        PSCENC =        59.93625244
  Ewald energy   TEWEN  =     31652.86799389
  -Hartree energ DENC   =    -38709.31919850
  -exchange      EXHF   =         0.00000000
  -V(xc)+E(xc)   XCENC  =       648.98248258
  PAW double counting   =    148491.16810868  -148350.85618324
  entropy T*S    EENTRO =        -0.00000000
  eigenvalues    EBANDS =     -2688.14568164
  atomic energy  EATOM  =      8369.52358910
  ---------------------------------------------------
  free energy    TOTEN  =      -525.84263668 eV

  energy without entropy =     -525.84263668  energy(sigma->0) =     -525.84263668


--------------------------------------------------------------------------------------------------------




--------------------------------------- Iteration      1(  12)  ---------------------------------------


    POTLOK:  cpu time    6.1442: real time    6.1813
    SETDIJ:  cpu time    0.1685: real time    0.1690
    TRIAL :  cpu time   15.4596: real time   15.5977
    CORREC:  cpu time   11.7822: real time   11.8631
    CHARGE:  cpu time    2.2937: real time    2.3114
    --------------------------------------------
      LOOP:  cpu time   35.9272: real time   36.2072

 eigenvalue-minimisations  :     0
 total energy-change (2. order) :-0.3103269E-01  (-0.1042548E-01)
 number of electron     216.0000000 magnetization 
 augmentation part       -0.5043662 magnetization 

 Free energy of the ion-electron system (eV)
  ---------------------------------------------------
  alpha Z        PSCENC =        59.93625244
  Ewald energy   TEWEN  =     31652.86799389
  -Hartree energ DENC   =    -38705.03066948
  -exchange      EXHF   =         0.00000000
  -V(xc)+E(xc)   XCENC  =       648.88626535
  PAW double counting   =    147875.50901778  -147735.22066542
  entropy T*S    EENTRO =        -0.00000000
  eigenvalues    EBANDS =     -2692.34545302
  atomic energy  EATOM  =      8369.52358910
  ---------------------------------------------------
  free energy    TOTEN  =      -525.87366936 eV

  energy without entropy =     -525.87366936  energy(sigma->0) =     -525.87366936


--------------------------------------------------------------------------------------------------------




--------------------------------------- Iteration      1(  13)  ---------------------------------------


    POTLOK:  cpu time    6.1407: real time    6.1771
    SETDIJ:  cpu time    0.1842: real time    0.1851
    TRIAL :  cpu time   15.4842: real time   15.6059
    CORREC:  cpu time   11.7539: real time   11.8360
    CHARGE:  cpu time    2.2927: real time    2.3084
    --------------------------------------------
      LOOP:  cpu time   35.8998: real time   36.1660

 eigenvalue-minimisations  :     0
 total energy-change (2. order) :-0.1041113E-01  (-0.2868672E-02)
 number of electron     216.0000000 magnetization 
 augmentation part       -0.5049901 magnetization 

 Free energy of the ion-electron system (eV)
  ---------------------------------------------------
  alpha Z        PSCENC =        59.93625244
  Ewald energy   TEWEN  =     31652.86799389
  -Hartree energ DENC   =    -38703.46744215
  -exchange      EXHF   =         0.00000000
  -V(xc)+E(xc)   XCENC  =       648.83067342
  PAW double counting   =    147360.49181868  -147220.21559456
  entropy T*S    EENTRO =        -0.00000000
  eigenvalues    EBANDS =     -2693.85137132
  atomic energy  EATOM  =      8369.52358910
  ---------------------------------------------------
  free energy    TOTEN  =      -525.88408049 eV

  energy without entropy =     -525.88408049  energy(sigma->0) =     -525.88408049


--------------------------------------------------------------------------------------------------------




--------------------------------------- Iteration      1(  14)  ---------------------------------------


    POTLOK:  cpu time    6.1708: real time    6.2104
    SETDIJ:  cpu time    0.1548: real time    0.1557
    TRIAL :  cpu time   15.4677: real time   15.5970
    CORREC:  cpu time   11.7247: real time   11.8253
    CHARGE:  cpu time    2.2843: real time    2.3005
    --------------------------------------------
      LOOP:  cpu time   35.8454: real time   36.1344

 eigenvalue-minimisations  :     0
 total energy-change (2. order) :-0.2871959E-02  (-0.7219457E-03)
 number of electron     216.0000000 magnetization 
 augmentation part       -0.5052372 magnetization 

 Free energy of the ion-electron system (eV)
  ---------------------------------------------------
  alpha Z        PSCENC =        59.93625244
  Ewald energy   TEWEN  =     31652.86799389
  -Hartree energ DENC   =    -38703.40495348
  -exchange      EXHF   =         0.00000000
  -V(xc)+E(xc)   XCENC  =       648.82459319
  PAW double counting   =    147121.06451450  -146980.79385257
  entropy T*S    EENTRO =        -0.00000000
  eigenvalues    EBANDS =     -2693.90508953
  atomic energy  EATOM  =      8369.52358910
  ---------------------------------------------------
  free energy    TOTEN  =      -525.88695245 eV

  energy without entropy =     -525.88695245  energy(sigma->0) =     -525.88695245


--------------------------------------------------------------------------------------------------------




--------------------------------------- Iteration      1(  15)  ---------------------------------------


    POTLOK:  cpu time    6.1572: real time    6.2000
    SETDIJ:  cpu time    0.1674: real time    0.1679
    TRIAL :  cpu time   15.4804: real time   15.5964
    CORREC:  cpu time   11.7113: real time   11.8354
    CHARGE:  cpu time    2.2970: real time    2.3194
    --------------------------------------------
      LOOP:  cpu time   35.8681: real time   36.1792

 eigenvalue-minimisations  :     0
 total energy-change (2. order) :-0.7264079E-03  (-0.1922516E-03)
 number of electron     216.0000000 magnetization 
 augmentation part       -0.5053605 magnetization 

 Free energy of the ion-electron system (eV)
  ---------------------------------------------------
  alpha Z        PSCENC =        59.93625244
  Ewald energy   TEWEN  =     31652.86799389
  -Hartree energ DENC   =    -38703.32300734
  -exchange      EXHF   =         0.00000000
  -V(xc)+E(xc)   XCENC  =       648.82563246
  PAW double counting   =    147028.29442399  -146888.02630409
  entropy T*S    EENTRO =        -0.00000000
  eigenvalues    EBANDS =     -2693.98625930
  atomic energy  EATOM  =      8369.52358910
  ---------------------------------------------------
  free energy    TOTEN  =      -525.88767886 eV

  energy without entropy =     -525.88767886  energy(sigma->0) =     -525.88767886


--------------------------------------------------------------------------------------------------------




--------------------------------------- Iteration      1(  16)  ---------------------------------------


    POTLOK:  cpu time    6.1554: real time    6.1968
    SETDIJ:  cpu time    0.1722: real time    0.1728
    TRIAL :  cpu time   15.4787: real time   15.5979
    CORREC:  cpu time   11.7571: real time   11.8552
    CHARGE:  cpu time    2.2845: real time    2.3037
    --------------------------------------------
      LOOP:  cpu time   35.8885: real time   36.1701

 eigenvalue-minimisations  :     0
 total energy-change (2. order) :-0.1953107E-03  (-0.6207529E-04)
 number of electron     216.0000000 magnetization 
 augmentation part       -0.5053997 magnetization 

 Free energy of the ion-electron system (eV)
  ---------------------------------------------------
  alpha Z        PSCENC =        59.93625244
  Ewald energy   TEWEN  =     31652.86799389
  -Hartree energ DENC   =    -38703.23824010
  -exchange      EXHF   =         0.00000000
  -V(xc)+E(xc)   XCENC  =       648.82442309
  PAW double counting   =    146973.76842739  -146833.50085508
  entropy T*S    EENTRO =        -0.00000000
  eigenvalues    EBANDS =     -2694.06946490
  atomic energy  EATOM  =      8369.52358910
  ---------------------------------------------------
  free energy    TOTEN  =      -525.88787417 eV

  energy without entropy =     -525.88787417  energy(sigma->0) =     -525.88787417


--------------------------------------------------------------------------------------------------------




--------------------------------------- Iteration      1(  17)  ---------------------------------------


    POTLOK:  cpu time    6.1531: real time    6.1898
    SETDIJ:  cpu time    0.1727: real time    0.1735
    TRIAL :  cpu time   15.4192: real time   15.6011
    CORREC:  cpu time   11.7652: real time   11.8440
    CHARGE:  cpu time    2.2834: real time    2.3009
    --------------------------------------------
      LOOP:  cpu time   35.8235: real time   36.1440

 eigenvalue-minimisations  :     0
 total energy-change (2. order) :-0.6122090E-04  (-0.2206067E-04)
 number of electron     216.0000000 magnetization 
 augmentation part       -0.5054066 magnetization 

 Free energy of the ion-electron system (eV)
  ---------------------------------------------------
  alpha Z        PSCENC =        59.93625244
  Ewald energy   TEWEN  =     31652.86799389
  -Hartree energ DENC   =    -38703.34727816
  -exchange      EXHF   =         0.00000000
  -V(xc)+E(xc)   XCENC  =       648.83077959
  PAW double counting   =    146932.35854900  -146792.09162610
  entropy T*S    EENTRO =        -0.00000000
  eigenvalues    EBANDS =     -2693.96619515
  atomic energy  EATOM  =      8369.52358910
  ---------------------------------------------------
  free energy    TOTEN  =      -525.88793539 eV

  energy without entropy =     -525.88793539  energy(sigma->0) =     -525.88793539


--------------------------------------------------------------------------------------------------------




--------------------------------------- Iteration      1(  18)  ---------------------------------------


    POTLOK:  cpu time    6.1361: real time    6.1708
    SETDIJ:  cpu time    0.1899: real time    0.1904
    TRIAL :  cpu time   15.4567: real time   15.5950
    CORREC:  cpu time   11.7300: real time   11.8396
    CHARGE:  cpu time    2.2829: real time    2.2986
    --------------------------------------------
      LOOP:  cpu time   35.8486: real time   36.1522

 eigenvalue-minimisations  :     0
 total energy-change (2. order) :-0.2150494E-04  (-0.7497856E-05)
 number of electron     216.0000000 magnetization 
 augmentation part       -0.5054297 magnetization 

 Free energy of the ion-electron system (eV)
  ---------------------------------------------------
  alpha Z        PSCENC =        59.93625244
  Ewald energy   TEWEN  =     31652.86799389
  -Hartree energ DENC   =    -38703.42120397
  -exchange      EXHF   =         0.00000000
  -V(xc)+E(xc)   XCENC  =       648.83419327
  PAW double counting   =    146913.86317984  -146773.59626226
  entropy T*S    EENTRO =        -0.00000000
  eigenvalues    EBANDS =     -2693.89569920
  atomic energy  EATOM  =      8369.52358910
  ---------------------------------------------------
  free energy    TOTEN  =      -525.88795689 eV

  energy without entropy =     -525.88795689  energy(sigma->0) =     -525.88795689


--------------------------------------------------------------------------------------------------------




--------------------------------------- Iteration      1(  19)  ---------------------------------------


    POTLOK:  cpu time    6.1386: real time    6.1832
    SETDIJ:  cpu time    0.1729: real time    0.1737
    TRIAL :  cpu time   15.4702: real time   15.6058
    CORREC:  cpu time   46.9287: real time   47.3505
    CHARGE:  cpu time    2.2775: real time    2.2965
    --------------------------------------------
      LOOP:  cpu time   71.0291: real time   71.6602

 eigenvalue-minimisations  :     0
 total energy-change (2. order) :-0.7490977E-05  (-0.1017060E-04)
 number of electron     216.0000000 magnetization 
 augmentation part       -0.5054824 magnetization 

 Free energy of the ion-electron system (eV)
  ---------------------------------------------------
  alpha Z        PSCENC =        59.93625244
  Ewald energy   TEWEN  =     31652.86799389
  -Hartree energ DENC   =    -38703.42774233
  -exchange      EXHF   =         0.00000000
  -V(xc)+E(xc)   XCENC  =       648.83388595
  PAW double counting   =    146914.94963018  -146774.68227071
  entropy T*S    EENTRO =        -0.00000000
  eigenvalues    EBANDS =     -2693.88930291
  atomic energy  EATOM  =      8369.52358910
  ---------------------------------------------------
  free energy    TOTEN  =      -525.88796438 eV

  energy without entropy =     -525.88796438  energy(sigma->0) =     -525.88796438


--------------------------------------------------------------------------------------------------------




--------------------------------------- Iteration      1(  20)  ---------------------------------------


    POTLOK:  cpu time    6.1285: real time    6.1786
    SETDIJ:  cpu time    0.1936: real time    0.1942
    TRIAL :  cpu time   15.4451: real time   15.6091
    CORREC:  cpu time   11.7750: real time   11.8600
    CHARGE:  cpu time    2.2840: real time    2.3053
    --------------------------------------------
      LOOP:  cpu time   35.8287: real time   36.1875

 eigenvalue-minimisations  :     0
 total energy-change (2. order) : 0.1843754E-04  (-0.2074693E-04)
 number of electron     216.0000000 magnetization 
 augmentation part       -0.5054733 magnetization 

 Free energy of the ion-electron system (eV)
  ---------------------------------------------------
  alpha Z        PSCENC =        59.93625244
  Ewald energy   TEWEN  =     31652.86799389
  -Hartree energ DENC   =    -38703.51888135
  -exchange      EXHF   =         0.00000000
  -V(xc)+E(xc)   XCENC  =       648.83679617
  PAW double counting   =    146940.70022936  -146800.43224089
  entropy T*S    EENTRO =        -0.00000000
  eigenvalues    EBANDS =     -2693.80168466
  atomic energy  EATOM  =      8369.52358910
  ---------------------------------------------------
  free energy    TOTEN  =      -525.88794595 eV

  energy without entropy =     -525.88794595  energy(sigma->0) =     -525.88794595


--------------------------------------------------------------------------------------------------------




--------------------------------------- Iteration      1(  21)  ---------------------------------------


    POTLOK:  cpu time    6.1380: real time    6.1951
    SETDIJ:  cpu time    0.1518: real time    0.1523
    TRIAL :  cpu time   15.4150: real time   15.5909
    CORREC:  cpu time   11.7690: real time   11.8682
    CHARGE:  cpu time    2.2620: real time    2.2944
    --------------------------------------------
      LOOP:  cpu time   35.7603: real time   36.1277

 eigenvalue-minimisations  :     0
 total energy-change (2. order) :-0.1937532E-04  (-0.3774117E-05)
 number of electron     216.0000000 magnetization 
 augmentation part       -0.5054354 magnetization 

 Free energy of the ion-electron system (eV)
  ---------------------------------------------------
  alpha Z        PSCENC =        59.93625244
  Ewald energy   TEWEN  =     31652.86799389
  -Hartree energ DENC   =    -38703.47255957
  -exchange      EXHF   =         0.00000000
  -V(xc)+E(xc)   XCENC  =       648.83406409
  PAW double counting   =    146935.40953807  -146795.14145819
  entropy T*S    EENTRO =        -0.00000000
  eigenvalues    EBANDS =     -2693.84538515
  atomic energy  EATOM  =      8369.52358910
  ---------------------------------------------------
  free energy    TOTEN  =      -525.88796532 eV

  energy without entropy =     -525.88796532  energy(sigma->0) =     -525.88796532


--------------------------------------------------------------------------------------------------------




--------------------------------------- Iteration      1(  22)  ---------------------------------------


    POTLOK:  cpu time    6.1295: real time    6.1687
    SETDIJ:  cpu time    0.1997: real time    0.2003
    TRIAL :  cpu time   15.4617: real time   15.6062
    CORREC:  cpu time   11.7557: real time   11.8440
    CHARGE:  cpu time    2.2863: real time    2.3017
    --------------------------------------------
      LOOP:  cpu time   35.8893: real time   36.1830

 eigenvalue-minimisations  :     0
 total energy-change (2. order) :-0.3761175E-05  (-0.4879132E-06)
 number of electron     216.0000000 magnetization 
 augmentation part       -0.5054373 magnetization 

 Free energy of the ion-electron system (eV)
  ---------------------------------------------------
  alpha Z        PSCENC =        59.93625244
  Ewald energy   TEWEN  =     31652.86799389
  -Hartree energ DENC   =    -38703.48319844
  -exchange      EXHF   =         0.00000000
  -V(xc)+E(xc)   XCENC  =       648.83540665
  PAW double counting   =    146929.19682073  -146788.92925114
  entropy T*S    EENTRO =        -0.00000000
  eigenvalues    EBANDS =     -2693.83558231
  atomic energy  EATOM  =      8369.52358910
  ---------------------------------------------------
  free energy    TOTEN  =      -525.88796908 eV

  energy without entropy =     -525.88796908  energy(sigma->0) =     -525.88796908


--------------------------------------------------------------------------------------------------------




--------------------------------------- Iteration      1(  23)  ---------------------------------------


    POTLOK:  cpu time    6.1349: real time    6.1750
    SETDIJ:  cpu time    0.1810: real time    0.1817
    TRIAL :  cpu time   15.4838: real time   15.6034
    CORREC:  cpu time   11.7669: real time   11.8469
    CHARGE:  cpu time    2.2868: real time    2.3052
    --------------------------------------------
      LOOP:  cpu time   35.8838: real time   36.1663

 eigenvalue-minimisations  :     0
 total energy-change (2. order) :-0.9834184E-07  (-0.2291331E-06)
 number of electron     216.0000000 magnetization 
 augmentation part       -0.5054410 magnetization 

 Free energy of the ion-electron system (eV)
  ---------------------------------------------------
  alpha Z        PSCENC =        59.93625244
  Ewald energy   TEWEN  =     31652.86799389
  -Hartree energ DENC   =    -38703.47018531
  -exchange      EXHF   =         0.00000000
  -V(xc)+E(xc)   XCENC  =       648.83481612
  PAW double counting   =    146928.25920524  -146787.99163203
  entropy T*S    EENTRO =        -0.00000000
  eigenvalues    EBANDS =     -2693.84800862
  atomic energy  EATOM  =      8369.52358910
  ---------------------------------------------------
  free energy    TOTEN  =      -525.88796918 eV

  energy without entropy =     -525.88796918  energy(sigma->0) =     -525.88796918


--------------------------------------------------------------------------------------------------------




--------------------------------------- Iteration      1(  24)  ---------------------------------------


    POTLOK:  cpu time    6.1565: real time    6.1947
    SETDIJ:  cpu time    0.1779: real time    0.1785
    TRIAL :  cpu time   15.4497: real time   15.5915
    CORREC:  cpu time   11.7337: real time   11.8310
    CHARGE:  cpu time    2.2862: real time    2.3026
    --------------------------------------------
      LOOP:  cpu time   35.8543: real time   36.1500

 eigenvalue-minimisations  :     0
 total energy-change (2. order) :-0.7924973E-07  (-0.2135883E-06)
 number of electron     216.0000000 magnetization 
 augmentation part       -0.5054415 magnetization 

 Free energy of the ion-electron system (eV)
  ---------------------------------------------------
  alpha Z        PSCENC =        59.93625244
  Ewald energy   TEWEN  =     31652.86799389
  -Hartree energ DENC   =    -38703.46270977
  -exchange      EXHF   =         0.00000000
  -V(xc)+E(xc)   XCENC  =       648.83445781
  PAW double counting   =    146928.42324054  -146788.15563786
  entropy T*S    EENTRO =        -0.00000000
  eigenvalues    EBANDS =     -2693.85515541
  atomic energy  EATOM  =      8369.52358910
  ---------------------------------------------------
  free energy    TOTEN  =      -525.88796926 eV

  energy without entropy =     -525.88796926  energy(sigma->0) =     -525.88796926


--------------------------------------------------------------------------------------------------------




--------------------------------------- Iteration      1(  25)  ---------------------------------------


    POTLOK:  cpu time    6.1426: real time    6.1815
    SETDIJ:  cpu time    0.1845: real time    0.1851
    TRIAL :  cpu time   15.4383: real time   15.6020
    CORREC:  cpu time   11.7381: real time   11.8454
    CHARGE:  cpu time    2.2870: real time    2.3039
    --------------------------------------------
      LOOP:  cpu time   35.8459: real time   36.1848

 eigenvalue-minimisations  :     0
 total energy-change (2. order) :-0.2041052E-06  (-0.6391147E-07)
 number of electron     216.0000000 magnetization 
 augmentation part       -0.5054413 magnetization 

 Free energy of the ion-electron system (eV)
  ---------------------------------------------------
  alpha Z        PSCENC =        59.93625244
  Ewald energy   TEWEN  =     31652.86799389
  -Hartree energ DENC   =    -38703.45715368
  -exchange      EXHF   =         0.00000000
  -V(xc)+E(xc)   XCENC  =       648.83432530
  PAW double counting   =    146928.38893175  -146788.12135762
  entropy T*S    EENTRO =        -0.00000000
  eigenvalues    EBANDS =     -2693.86055065
  atomic energy  EATOM  =      8369.52358910
  ---------------------------------------------------
  free energy    TOTEN  =      -525.88796947 eV

  energy without entropy =     -525.88796947  energy(sigma->0) =     -525.88796947


--------------------------------------------------------------------------------------------------------




--------------------------------------- Iteration      1(  26)  ---------------------------------------


    POTLOK:  cpu time    6.1257: real time    6.1749
    SETDIJ:  cpu time    0.1856: real time    0.1862
    TRIAL :  cpu time   15.4332: real time   15.5940
    CORREC:  cpu time   11.6646: real time   11.7602
    CHARGE:  cpu time    2.2743: real time    2.3015
    --------------------------------------------
      LOOP:  cpu time   35.7443: real time   36.0798

 eigenvalue-minimisations  :     0
 total energy-change (2. order) :-0.2729939E-07  ( 0.2472822E-06)
 number of electron     216.0000000 magnetization 
 augmentation part       -0.5054399 magnetization 

 Free energy of the ion-electron system (eV)
  ---------------------------------------------------
  alpha Z        PSCENC =        59.93625244
  Ewald energy   TEWEN  =     31652.86799389
  -Hartree energ DENC   =    -38703.45340641
  -exchange      EXHF   =         0.00000000
  -V(xc)+E(xc)   XCENC  =       648.83420770
  PAW double counting   =    146928.17724644  -146787.90968606
  entropy T*S    EENTRO =        -0.00000000
  eigenvalues    EBANDS =     -2693.86416660
  atomic energy  EATOM  =      8369.52358910
  ---------------------------------------------------
  free energy    TOTEN  =      -525.88796949 eV

  energy without entropy =     -525.88796949  energy(sigma->0) =     -525.88796949


--------------------------------------------------------------------------------------------------------




--------------------------------------- Iteration      1(  27)  ---------------------------------------


    POTLOK:  cpu time    6.1416: real time    6.1866
    SETDIJ:  cpu time    0.1724: real time    0.1730
    TRIAL :  cpu time   15.4850: real time   15.6130
    CORREC:  cpu time   11.7427: real time   11.8250
    EDDIAG:  cpu time    3.2019: real time    3.2277
    CHARGE:  cpu time    2.3094: real time    2.3269
    --------------------------------------------
      LOOP:  cpu time   39.0908: real time   39.3904

 eigenvalue-minimisations  :     0
 total energy-change (2. order) :-0.6673508E-07  (-0.1809458E-07)
 number of electron     216.0000000 magnetization 
 augmentation part       -0.5054400 magnetization 

 Free energy of the ion-electron system (eV)
  ---------------------------------------------------
  alpha Z        PSCENC =        59.93625244
  Ewald energy   TEWEN  =     31652.86799389
  -Hartree energ DENC   =    -38703.45157053
  -exchange      EXHF   =         0.00000000
  -V(xc)+E(xc)   XCENC  =       648.83417588
  PAW double counting   =    146927.92095182  -146787.65340924
  entropy T*S    EENTRO =        -0.00000000
  eigenvalues    EBANDS =     -2693.86595291
  atomic energy  EATOM  =      8369.52358910
  ---------------------------------------------------
  free energy    TOTEN  =      -525.88796956 eV

  energy without entropy =     -525.88796956  energy(sigma->0) =     -525.88796956


--------------------------------------------------------------------------------------------------------


  average scaling for gradient   0.9909


 average (electrostatic) potential at core
  the test charge radii are     0.5770  0.5955
  (the norm of the test charge is              1.0000)
[...]
      9     -22.2435      2.00000
     10     -20.3136      2.00000
     11     -20.3133      2.00000
     12     -20.3131      2.00000
     13     -20.3127      2.00000
     14     -20.3126      2.00000
     15     -20.3125      2.00000
     16     -19.3780      2.00000
     17     -19.3779      2.00000
     18     -19.3775      2.00000
     19     -19.3770      2.00000
     20     -19.3767      2.00000
     21     -19.3765      2.00000
     22     -17.1568      2.00000
     23     -17.1567      2.00000
     24     -17.1559      2.00000
     25     -17.1555      2.00000
     26     -17.1542      2.00000
     27     -17.1541      2.00000
     28     -15.9982      2.00000
     29     -15.9981      2.00000
     30     -15.9975      2.00000
     31     -15.9975      2.00000
     32     -15.9968      2.00000
     33     -15.9966      2.00000
     34     -14.6054      2.00000
     35     -14.6053      2.00000
     36     -14.6049      2.00000
     37     -14.6044      2.00000
     38     -14.6042      2.00000
     39     -14.6035      2.00000
     40     -12.8002      2.00000
     41     -12.1461      2.00000
     42     -12.1459      2.00000
     43     -12.1455      2.00000
     44     -12.1454      2.00000
     45     -12.1443      2.00000
     46     -12.1441      2.00000
     47     -11.9289      2.00000
     48     -11.9289      2.00000
     49     -11.9278      2.00000
     50     -11.9277      2.00000
     51     -11.9265      2.00000
     52     -11.9263      2.00000
     53     -11.5231      2.00000
     54     -11.2671      2.00000
     55     -11.2664      2.00000
     56     -10.5976      2.00000
     57     -10.4827      2.00000
     58     -10.4825      2.00000
     59     -10.4809      2.00000
     60     -10.4805      2.00000
     61     -10.4804      2.00000
     62     -10.4804      2.00000
     63      -9.4264      2.00000
     64      -9.4253      2.00000
     65      -9.4235      2.00000
     66      -9.4226      2.00000
     67      -9.4208      2.00000
     68      -9.4208      2.00000
     69      -9.1814      2.00000
     70      -9.1810      2.00000
     71      -9.1807      2.00000
     72      -9.1805      2.00000
     73      -9.1799      2.00000
     74      -9.1791      2.00000
     75      -9.1788      2.00000
     76      -9.1785      2.00000
     77      -9.1782      2.00000
     78      -9.1777      2.00000
     79      -9.1775      2.00000
     80      -9.1774      2.00000
     81      -7.6714      2.00000
     82      -7.6704      2.00000
     83      -7.4751      2.00000
     84      -7.4738      2.00000
     85      -7.4732      2.00000
     86      -7.4726      2.00000
     87      -7.4702      2.00000
     88      -7.4696      2.00000
     89      -7.1814      2.00000
     90      -7.1813      2.00000
     91      -7.1812      2.00000
     92      -7.1807      2.00000
     93      -7.1805      2.00000
     94      -7.1802      2.00000
     95      -6.2373      2.00000
     96      -6.2359      2.00000
     97      -6.2357      2.00000
     98      -6.2353      2.00000
     99      -6.2350      2.00000
    100      -6.2343      2.00000
    101      -5.9571      2.00000
    102      -5.9547      2.00000
    103      -4.1378      2.00000
    104      -4.1376      2.00000
    105      -4.1373      2.00000
    106      -4.1371      2.00000
    107      -4.1351      2.00000
    108      -4.1350      2.00000
    109      -1.1630      0.00000
    110      -1.1628      0.00000
    111      -1.1616      0.00000
    112      -1.1614      0.00000
    113      -1.1607      0.00000
    114      -1.1607      0.00000
    115       0.8151      0.00000
    116       0.8163      0.00000
    117       0.8168      0.00000
    118       0.8175      0.00000
    119       0.8177      0.00000
    120       0.8205      0.00000
    121       0.8399      0.00000
    122       1.3785      0.00000
    123       1.6000      0.00000
    124       1.6054      0.00000
    125       1.8972      0.00000
    126       2.0743      0.00000
    127       2.2071      0.00000
    128       2.2595      0.00000
    129       2.2755      0.00000
    130       2.2828      0.00000
    131       2.2897      0.00000
    132       2.5514      0.00000
    133       2.6967      0.00000
    134       2.6970      0.00000
    135       2.6980      0.00000
    136       2.6985      0.00000
    137       2.6987      0.00000
    138       2.6991      0.00000
    139       2.9180      0.00000
    140       2.9457      0.00000
    141       3.0523      0.00000
    142       3.0604      0.00000
    143       3.0744      0.00000
    144       3.0944      0.00000
    145       3.1854      0.00000
    146       3.2041      0.00000
    147       3.2566      0.00000
    148       3.2877      0.00000
    149       3.3019      0.00000
    150       3.3061      0.00000
    151       3.3102      0.00000
    152       4.2295      0.00000
    153       4.3247      0.00000
    154       4.4717      0.00000
    155       4.6325      0.00000
    156       4.7934      0.00000
    157       5.1498      0.00000
    158       5.2895      0.00000
    159       5.2896      0.00000
    160       5.2999      0.00000
    161       5.3013      0.00000
    162       5.3021      0.00000
    163       5.3030      0.00000
    164       5.3037      0.00000
    165       5.3494      0.00000
    166       5.4449      0.00000
    167       5.4869      0.00000
    168       5.6546      0.00000


--------------------------------------------------------------------------------------------------------


 soft charge-density along one line, spin component           1
         0         1         2         3         4         5         6         7         8         9
 total charge-density along one line
 
 pseudopotential strength for first ion, spin component:           1
 12.630  21.251  -0.000   0.000   0.000  -0.000   0.000   0.000
 21.251  35.755  -0.000   0.000   0.000  -0.000   0.000   0.000
 -0.000  -0.000  -3.234   0.000   0.000  -5.794   0.000   0.000
  0.000   0.000   0.000  -3.238   0.000   0.000  -5.800   0.000
  0.000   0.000   0.000   0.000  -3.234   0.000   0.000  -5.794
 -0.000  -0.000  -5.794   0.000   0.000 -10.358   0.000   0.000
  0.000   0.000   0.000  -5.800   0.000   0.000 -10.368   0.000
  0.000   0.000   0.000   0.000  -5.794   0.000   0.000 -10.358
 total augmentation occupancy for first ion, spin component:           1
  9.643  -3.599   0.000  -0.002  -0.001  -0.000   0.001   0.000
 -3.599   1.374  -0.000   0.001   0.000   0.000  -0.000  -0.000
  0.000  -0.000   8.197  -0.009   0.001  -2.896   0.004  -0.000
 -0.002   0.001  -0.009   3.782  -0.000   0.004  -1.107   0.000
 -0.001   0.000   0.001  -0.000   8.196  -0.000   0.000  -2.895
 -0.000   0.000  -2.896   0.004  -0.000   1.036  -0.001   0.000
  0.001  -0.000   0.004  -1.107   0.000  -0.001   0.329   0.000
  0.000  -0.000  -0.000   0.000  -2.895   0.000   0.000   1.035


------------------------ aborting loop because EDIFF is reached ----------------------------------------


    FORLOC:  cpu time    0.1064: real time    0.1071
    FORNL :  cpu time    2.9130: real time    2.9359
    FORCOR:  cpu time    6.1952: real time    6.2453
    OFIELD:  cpu time    0.0022: real time    0.0023

 VOLUME and BASIS-vectors are now :
 -----------------------------------------------------------------------------
  energy-cutoff  :     1000.00
  volume of cell :     2631.08
      direct lattice vectors                 reciprocal lattice vectors
    12.325000000  0.000000000  0.000000000     0.081135903  0.046843835  0.000000000
    -6.162500000 10.673763102  0.000000000     0.000000000  0.093687670  0.000000000
     0.000000000  0.000000000 20.000000000     0.000000000  0.000000000  0.050000000

  length of vectors
    12.325000000 12.325000000 20.000000000     0.093687670  0.093687670  0.050000000


 FORCES acting on ions:
    Electron-Ion                     Ewald-Force                    Non-Local-Force
 -----------------------------------------------------------------------------------------------
   0.379E+01 0.328E+01 0.186E+02   -.379E+01 -.328E+01 -.186E+02   -.744E-03 0.519E-02 0.754E-02
   0.551E+01 0.267E+01 0.217E+02   -.551E+01 -.268E+01 -.217E+02   0.156E-02 0.101E-01 -.575E-02
   0.235E+01 0.632E+01 0.239E+02   -.236E+01 -.633E+01 -.239E+02   0.906E-02 0.232E-01 0.423E-02
   0.312E+01 0.451E+01 0.305E+02   -.313E+01 -.452E+01 -.305E+02   0.233E-01 0.167E-01 -.272E-02
   0.404E+01 0.948E+00 0.189E+02   -.404E+01 -.955E+00 -.189E+02   -.925E-02 0.610E-02 0.234E-02
   0.414E+01 -.825E+00 0.191E+02   -.414E+01 0.820E+00 -.191E+02   -.112E-01 0.129E-01 -.649E-02
   0.591E+01 0.215E+01 0.286E+02   -.592E+01 -.215E+01 -.286E+02   0.199E-01 -.733E-02 0.199E-03
   0.573E+01 -.206E+01 0.299E+02   -.574E+01 0.206E+01 -.299E+02   0.926E-03 0.335E-02 -.501E-02
   -.283E+01 0.570E+01 0.241E+02   0.283E+01 -.571E+01 -.241E+02   0.120E-01 -.361E-02 -.588E-02
   -.426E+01 0.357E+01 0.299E+02   0.426E+01 -.358E+01 -.299E+02   -.216E-01 0.289E-01 0.994E-02
   0.105E+01 -.104E+01 0.166E+02   -.104E+01 0.104E+01 -.166E+02   0.485E-03 -.384E-02 -.966E-03
   0.901E+00 -.754E+00 0.159E+02   -.905E+00 0.760E+00 -.159E+02   -.172E-02 -.602E-02 0.596E-02
   0.227E+01 -.487E+01 0.321E+02   -.228E+01 0.488E+01 -.321E+02   0.379E-01 -.464E-02 0.462E-02
   0.129E+01 -.634E+01 0.250E+02   -.129E+01 0.635E+01 -.250E+02   0.705E-02 0.228E-02 -.152E-01
   -.364E+01 0.224E+01 0.183E+02   0.364E+01 -.224E+01 -.183E+02   0.652E-02 -.712E-03 0.571E-02
   -.497E+01 0.147E+01 0.198E+02   0.498E+01 -.148E+01 -.198E+02   -.555E-02 0.943E-02 -.114E-01
   -.651E+00 -.242E+00 0.153E+02   0.654E+00 0.252E+00 -.153E+02   0.354E-02 -.168E-01 0.272E-02
   0.293E+00 0.226E+01 0.159E+02   -.297E+00 -.225E+01 -.159E+02   0.459E-02 -.109E-01 0.104E-01
   -.960E+00 -.595E+01 0.214E+02   0.959E+00 0.596E+01 -.214E+02   0.241E-02 -.132E-01 0.204E-02
   -.500E+00 -.336E+01 0.172E+02   0.505E+00 0.337E+01 -.172E+02   -.130E-01 -.120E-01 0.106E-02
   0.550E+01 -.243E+01 0.228E+02   -.550E+01 0.243E+01 -.228E+02   -.678E-03 0.451E-02 -.245E-01
   0.367E+01 -.305E+01 0.200E+02   -.368E+01 0.305E+01 -.200E+02   -.390E-02 0.661E-02 -.251E-02
   -.110E+01 0.206E+01 0.346E+02   0.109E+01 -.207E+01 -.346E+02   -.344E-02 0.253E-01 0.216E-01
   -.148E+01 -.326E+01 0.340E+02   0.148E+01 0.326E+01 -.340E+02   0.192E-01 -.114E-01 0.560E-02
   0.193E+01 -.762E+00 0.167E+02   -.193E+01 0.765E+00 -.167E+02   0.869E-02 -.956E-02 -.686E-02
   0.427E+00 0.170E+01 0.167E+02   -.436E+00 -.170E+01 -.167E+02   0.804E-02 -.340E-02 0.590E-02
   -.638E+01 0.875E+00 0.254E+02   0.639E+01 -.885E+00 -.254E+02   0.120E-01 0.155E-01 0.217E-02
   -.611E+01 -.243E+01 0.241E+02   0.612E+01 0.243E+01 -.241E+02   -.150E-01 0.102E-01 0.294E-02
   0.217E+01 -.436E+01 0.206E+02   -.218E+01 0.436E+01 -.206E+02   0.805E-02 0.380E-03 -.134E-01
   0.190E+00 -.184E+01 0.175E+02   -.193E+00 0.184E+01 -.175E+02   -.416E-02 -.874E-03 -.668E-03
   -.451E+01 -.470E+01 0.273E+02   0.451E+01 0.471E+01 -.273E+02   -.169E-01 -.130E-01 -.281E-02
   -.306E+01 -.566E+01 0.220E+02   0.307E+01 0.568E+01 -.220E+02   -.677E-02 -.171E-01 0.768E-02
   0.266E+00 0.100E+01 0.158E+02   -.256E+00 -.101E+01 -.158E+02   -.111E-01 -.104E-02 0.770E-02
   0.664E+00 0.982E+00 0.165E+02   -.660E+00 -.986E+00 -.165E+02   -.144E-01 0.123E-01 -.303E-02
   -.255E+01 0.401E+00 0.174E+02   0.255E+01 -.406E+00 -.174E+02   -.470E-02 0.327E-02 0.827E-02
   -.226E+01 -.955E+00 0.171E+02   0.226E+01 0.954E+00 -.171E+02   -.759E-02 0.304E-02 0.883E-03
   -.438E+01 -.227E+01 0.187E+02   0.439E+01 0.228E+01 -.188E+02   -.592E-02 -.892E-02 0.821E-02
   -.278E+01 -.221E+01 0.169E+02   0.278E+01 0.222E+01 -.169E+02   -.628E-02 -.145E-01 0.111E-01
   -.254E+01 -.326E+01 0.177E+02   0.254E+01 0.327E+01 -.177E+02   -.109E-01 -.195E-01 0.835E-02
   -.379E+00 -.832E+00 0.160E+02   0.386E+00 0.842E+00 -.160E+02   -.574E-02 -.142E-01 0.904E-02
   0.953E+00 0.238E+01 0.164E+02   -.953E+00 -.237E+01 -.164E+02   -.363E-02 -.676E-02 0.808E-02
   0.295E+01 0.461E+01 0.192E+02   -.295E+01 -.461E+01 -.192E+02   0.252E-02 0.211E-02 0.984E-02
   0.255E+00 0.401E+01 0.174E+02   -.259E+00 -.401E+01 -.174E+02   0.129E-01 -.411E-02 0.191E-02
   -.846E-01 0.630E+01 0.219E+02   0.796E-01 -.631E+01 -.219E+02   0.446E-02 0.635E-02 0.695E-02
   -.762E+00 0.145E+01 0.173E+02   0.758E+00 -.146E+01 -.173E+02   0.131E-01 -.395E-02 -.210E-02
   -.295E+01 0.363E+01 0.194E+02   0.295E+01 -.363E+01 -.194E+02   0.215E-02 0.139E-02 -.541E-02
   -.643E+00 -.168E+01 0.166E+02   0.648E+00 0.168E+01 -.166E+02   -.218E-02 -.402E-02 0.461E-02
   -.151E+01 0.578E+00 0.159E+02   0.152E+01 -.575E+00 -.159E+02   -.149E-01 0.194E-02 -.507E-02
   0.167E+00 -.105E+01 0.159E+02   -.160E+00 0.105E+01 -.159E+02   -.902E-02 -.121E-01 0.727E-02
   0.167E+01 0.119E+01 0.160E+02   -.167E+01 -.119E+01 -.160E+02   -.138E-01 0.175E-02 0.374E-02
   0.252E-01 -.415E-02 -.258E+03   -.241E-01 0.221E-02 0.258E+03   -.161E-01 0.141E-01 -.698E-02
   -.228E+03 0.155E+03 -.399E+03   0.279E+03 -.190E+03 0.402E+03   -.527E+02 0.358E+02 -.354E+01
   0.228E+03 -.155E+03 -.379E+03   -.279E+03 0.190E+03 0.376E+03   0.527E+02 -.358E+02 0.317E+01
 -----------------------------------------------------------------------------------------------
   -.134E-01 0.201E-01 0.337E+00   0.000E+00 0.284E-13 0.455E-12   -.826E-02 0.777E-03 -.305E+00
 
 
 POSITION                                       TOTAL-FORCE (eV/Angst)
 -----------------------------------------------------------------------------------
     11.98348      0.00342      0.01417        -0.006738      0.006508     -0.003460
     -0.34154      1.42665      0.01100        -0.014387      0.018171     -0.004137
      2.12355      0.00315      0.01249         0.010231      0.016037     -0.008488
      2.12326      1.42653      0.00641         0.025518      0.017998     -0.006936
     10.75099      2.13819      0.01213        -0.007538      0.017119     -0.000112
     -1.57382      3.56123      0.01110        -0.025329      0.014024     -0.000831
      0.89078      2.13854      0.00548         0.008706      0.010274      0.004403
      0.89099      3.56147      0.00181        -0.011963      0.010133      0.014786
      4.58864      0.00346      0.01135         0.026940     -0.019225     -0.003233
      4.58894      1.42623      0.00646         0.004966      0.026529      0.017025
      9.51854      4.27281      0.01369         0.017097      0.000894      0.001123
     -2.80632      5.69591      0.01434        -0.005537     -0.017951      0.001246
      2.12300      4.27302      0.00000         0.020797      0.016810      0.024103
      2.12335      5.69594      0.00581         0.003516      0.006247      0.000846
      7.05344      0.00333      0.01399         0.008283     -0.015309      0.000577
      7.05353      1.42635      0.01368        -0.002519      0.013489     -0.004466
      8.28610      6.40752      0.01601         0.019456     -0.021995     -0.001061
     -4.03885      7.83070      0.01636         0.007836     -0.019586     -0.001597
      3.35586      6.40753      0.01007        -0.015430     -0.011064     -0.000999
      3.35599      7.83072      0.01320        -0.018443     -0.007765     -0.000231
     -0.34146      4.27290      0.00723         0.000420      0.019966     -0.003604
     -0.34138      5.69591      0.00946        -0.012075      0.003322      0.002217
      3.35624      2.13791      0.00222        -0.004686      0.029826      0.020615
      3.35573      3.56155      0.00139         0.030631     -0.007674      0.012465
     -1.57395      6.40758      0.01311         0.026228     -0.015083     -0.000429
     -1.57385      7.83068      0.01438         0.010919     -0.003100      0.000260
      5.82093      2.13784      0.01033         0.021374      0.006619      0.000554
      5.82114      3.56097      0.01156         0.002364      0.001013     -0.004402
      0.89092      6.40755      0.00907         0.003965      0.000097     -0.002569
      0.89106      7.83068      0.01235        -0.007474      0.008381      0.003369
      4.58871      4.27293      0.00850        -0.021984     -0.002335     -0.008870
      4.58852      5.69606      0.01149         0.001350     -0.022803     -0.003414
      9.51845      0.00337      0.01490        -0.018260     -0.006126     -0.000318
      9.51855      1.42644      0.01438        -0.030973      0.021010      0.000018
      8.28593      2.13803      0.01453         0.001821      0.000142      0.002808
      8.28613      3.56115      0.01464        -0.012202     -0.004040     -0.000808
      7.05356      4.27269      0.01457         0.004742     -0.008662      0.001568
      7.05362      5.69588      0.01553        -0.001641     -0.029966     -0.000255
      5.82112      6.40755      0.01489        -0.015507     -0.018418     -0.000606
      5.82102      7.83073      0.01579        -0.004931     -0.020493     -0.001662
      7.05363      8.54227      0.01631        -0.002945     -0.011425     -0.000905
     -5.27149      9.96549      0.01495         0.001093     -0.001596     -0.004864
     -2.80638      8.54234      0.01558         0.029990     -0.016033     -0.001680
     -2.80627      9.96553      0.01362         0.018423      0.004264     -0.005181
     -0.34149      8.54239      0.01378         0.023717     -0.016737      0.000160
     -0.34138      9.96550      0.01354         0.011879      0.010842     -0.000770
      2.12343      8.54232      0.01336        -0.013333     -0.013962      0.000868
      2.12354      9.96544      0.01469        -0.024798      0.014347     -0.001394
      4.58846      8.54235      0.01505        -0.020565     -0.016824      0.000353
      4.58853      9.96550      0.01517        -0.025480      0.007501     -0.000929
      3.04930      2.68154      5.29732        -0.030121      0.020121      0.028453
      4.02070      2.02068      5.36174        -1.652129      1.102093     -0.131390
      2.07767      3.34267      5.23786         1.664722     -1.095607      0.071785
 -----------------------------------------------------------------------------------
    total drift:                               -0.021685      0.020864      0.032604


--------------------------------------------------------------------------------------------------------



  FREE ENERGIE OF THE ION-ELECTRON SYSTEM (eV)
  ---------------------------------------------------
  free  energy   TOTEN  =      -525.88796956 eV

  energy  without entropy=     -525.88796956  energy(sigma->0) =     -525.88796956
 


--------------------------------------------------------------------------------------------------------


    POTLOK:  cpu time    6.3504: real time    6.3914


--------------------------------------------------------------------------------------------------------


 writing wavefunctions
     LOOP+:  cpu time 1003.7769: real time 1012.6904
    4ORBIT:  cpu time    0.0000: real time    0.0000

 total amount of memory used by VASP MPI-rank0   556209. kBytes
=======================================================================

   base      :      30000. kBytes
   nonl-proj :     184518. kBytes
   fftplans  :      31725. kBytes
   grid      :     282516. kBytes
   one-center:        162. kBytes
   wavefun   :      27288. kBytes
 
  
  
 General timing and accounting informations for this job:
 ========================================================
  
                  Total CPU time used (sec):     1039.039
                            User time (sec):     1005.681
                          System time (sec):       33.358
                         Elapsed time (sec):     1049.445
  
                   Maximum memory used (kb):     1184424.
                   Average memory used (kb):          N/A
  
                          Minor page faults:       521235
                          Major page faults:          128
                 Voluntary context switches:         3898
