 vasp.6.2.1 16May21 (build Nov 06 2021 14:46:37) complex                        
  
 executed on             LinuxIFC date 2025.03.03  19:51:30
 running on  112 total cores
 distrk:  each k-point on   56 cores,    2 groups
 distr:  one band on NCORE=   1 cores,   56 groups


--------------------------------------------------------------------------------------------------------


 INCAR:
   ALGO = Conjugate
   KPAR = 2
   NCORE = 32
   ISMEAR = 0
   SIGMA = 0.01
   PREC = Accurate
   EDIFF = 1E-7
   ENCUT = 1000
   ISIF = 0
   METAGGA = SCAN
   LUSE_VDW = .TRUE.
   BPARAM = 15.7
   LASPH = .TRUE.
   SYMPREC = 1E-7
   NELM = 200

 POTCAR:    PAW_PBE C_h 06Feb2004                 
 POTCAR:    PAW_PBE O_h 06Feb2004                 
 -----------------------------------------------------------------------------
|                                                                             |
|           W    W    AA    RRRRR   N    N  II  N    N   GGGG   !!!           |
|           W    W   A  A   R    R  NN   N  II  NN   N  G    G  !!!           |
|           W    W  A    A  R    R  N N  N  II  N N  N  G       !!!           |
|           W WW W  AAAAAA  RRRRR   N  N N  II  N  N N  G  GGG   !            |
|           WW  WW  A    A  R   R   N   NN  II  N   NN  G    G                |
|           W    W  A    A  R    R  N    N  II  N    N   GGGG   !!!           |
|                                                                             |
|     The value NCORE = 32 specified in the INCAR file was overwritten,       |
|     because it was not compatible with the 56 processes available:          |
|     NCORE = 1                                                               |
|     was used instead, please check that this makes sense for your           |
|     machine.                                                                |
|                                                                             |
 -----------------------------------------------------------------------------

 -----------------------------------------------------------------------------
|                                                                             |
|           W    W    AA    RRRRR   N    N  II  N    N   GGGG   !!!           |
|           W    W   A  A   R    R  NN   N  II  NN   N  G    G  !!!           |
|           W    W  A    A  R    R  N N  N  II  N N  N  G       !!!           |
|           W WW W  AAAAAA  RRRRR   N  N N  II  N  N N  G  GGG   !            |
|           WW  WW  A    A  R   R   N   NN  II  N   NN  G    G                |
|           W    W  A    A  R    R  N    N  II  N    N   GGGG   !!!           |
|                                                                             |
|     For optimal performance we recommend to set                             |
|       NCORE = 2 up to number-of-cores-per-socket                            |
|     NCORE specifies how many cores store one orbital (NPAR=cpu/NCORE).      |
|     This setting can greatly improve the performance of VASP for DFT.       |
|     The default, NCORE=1 might be grossly inefficient on modern             |
|     multi-core architectures or massively parallel machines. Do your        |
|     own testing! More info at https://www.vasp.at/wiki/index.php/NCORE      |
|     Unfortunately you need to use the default for GW and RPA                |
|     calculations (for HF NCORE is supported but not extensively tested      |
|     yet).                                                                   |
|                                                                             |
 -----------------------------------------------------------------------------

 -----------------------------------------------------------------------------
|                                                                             |
|               ----> ADVICE to this user running VASP <----                  |
|                                                                             |
|     You have switched on vdW-DFT.                                           |
|     This routine was written and supplied by Jiri Klimes. We recommend      |
|     that you carefully read and cite the following publications:            |
|       J. Klimes, D.R. Bowler, A. Michelides                                 |
|          J. Phys.: Cond Matt. 22 022201 (2010)                              |
|       J. Klimes, D.R. Bowler, A. Michelides                                 |
|          Phys. Rev. B. 83, 195131 (2011)                                    |
|     and references therein.                                                 |
|                                                                             |
 -----------------------------------------------------------------------------

 POTCAR:    PAW_PBE C_h 06Feb2004                 
   VRHFIN =C: s2p2                                                                                  
   LEXCH  = PE                                                                                      
   EATOM  =   147.1560 eV,   10.8157 Ry                                                             
                                                                                                    
   TITEL  = PAW_PBE C_h 06Feb2004                                                                   
   LULTRA =        F    use ultrasoft PP ?                                                          
   IUNSCR =        1    unscreen: 0-lin 1-nonlin 2-no                                               
   RPACOR =    0.800    partial core radius                                                         
   POMASS =   12.011; ZVAL   =    4.000    mass and valenz                                          
   RCORE  =    1.100    outmost cutoff radius                                                       
   RWIGS  =    1.630; RWIGS  =    0.863    wigner-seitz radius (au A)                               
   ENMAX  =  700.000; ENMIN  =  500.000 eV                                                          
   ICORE  =        2    local potential                                                             
   LCOR   =        T    correct aug charges                                                         
   LPAW   =        T    paw PP                                                                      
   EAUG   =  946.768                                                                                
   DEXC   =    0.000                                                                                
   RMAX   =    1.128    core radius for proj-oper                                                   
   RAUG   =    1.300    factor for augmentation sphere                                              
   RDEP   =    1.162    radius for radial grids                                                     
   RDEPT  =    1.088    core radius for aug-charge                                                  
                                                                                                    
   Atomic configuration                                                                             
    4 entries                                                                                       
     n  l   j            E        occ.                                                              
     1  0  0.50      -273.3789   2.0000                                                             
     2  0  0.50       -13.7508   2.0000                                                             
     2  1  0.50        -5.2854   2.0000                                                             
     3  2  1.50        -5.4423   0.0000                                                             
   Description                                                                                      
     l       E           TYP  RCUT    TYP  RCUT                                                     
     0    -13.7508458     23  1.100                                                                 
     0     -8.2022199     23  1.100                                                                 
     1     -5.2854383     23  1.100                                                                 
     1      1.1560700     23  1.100                                                                 
     2     -5.4423304      7  1.100                                                                 
  local pseudopotential read in
  partial core-charges read in
  partial kinetic energy density read in
  atomic valenz-charges read in
  non local Contribution for L=           0  read in
    real space projection operators read in
  non local Contribution for L=           0  read in
    real space projection operators read in
  non local Contribution for L=           1  read in
    real space projection operators read in
  non local Contribution for L=           1  read in
    real space projection operators read in
    PAW grid and wavefunctions read in
 
   number of l-projection  operators is LMAX  =           4
   number of lm-projection operators is LMMAX =           8
 
 POTCAR:    PAW_PBE O_h 06Feb2004                 
   VRHFIN =O: s2p4                                                                                  
   LEXCH  = PE                                                                                      
   EATOM  =   432.3788 eV,   31.7789 Ry                                                             
                                                                                                    
   TITEL  = PAW_PBE O_h 06Feb2004                                                                   
   LULTRA =        F    use ultrasoft PP ?                                                          
   IUNSCR =        1    unscreen: 0-lin 1-nonlin 2-no                                               
   RPACOR =    0.800    partial core radius                                                         
   POMASS =   16.000; ZVAL   =    6.000    mass and valenz                                          
   RCORE  =    1.100    outmost cutoff radius                                                       
   RWIGS  =    1.400; RWIGS  =    0.741    wigner-seitz radius (au A)                               
   ENMAX  =  700.000; ENMIN  =  500.000 eV                                                          
   ICORE  =        2    local potential                                                             
   LCOR   =        T    correct aug charges                                                         
   LPAW   =        T    paw PP                                                                      
   EAUG   =  888.804                                                                                
   DEXC   =    0.000                                                                                
   RMAX   =    1.128    core radius for proj-oper                                                   
   RAUG   =    1.300    factor for augmentation sphere                                              
   RDEP   =    1.125    radius for radial grids                                                     
   RDEPT  =    1.088    core radius for aug-charge                                                  
                                                                                                    
   Atomic configuration                                                                             
    4 entries                                                                                       
     n  l   j            E        occ.                                                              
     1  0  0.50      -514.6923   2.0000                                                             
     2  0  0.50       -23.9615   2.0000                                                             
     2  1  0.50        -9.0305   4.0000                                                             
     3  2  1.50        -9.5241   0.0000                                                             
   Description                                                                                      
     l       E           TYP  RCUT    TYP  RCUT                                                     
     0    -23.9615319     23  1.100                                                                 
     0    -25.3221145     23  1.100                                                                 
     1     -9.0304911     23  1.100                                                                 
     1     -5.4802209     23  1.100                                                                 
     2     -9.5240782      7  1.100                                                                 
  local pseudopotential read in
  partial core-charges read in
  partial kinetic energy density read in
  atomic valenz-charges read in
  non local Contribution for L=           0  read in
    real space projection operators read in
  non local Contribution for L=           0  read in
    real space projection operators read in
  non local Contribution for L=           1  read in
    real space projection operators read in
  non local Contribution for L=           1  read in
    real space projection operators read in
    PAW grid and wavefunctions read in
 
   number of l-projection  operators is LMAX  =           4
   number of lm-projection operators is LMMAX =           8
 
 -----------------------------------------------------------------------------
|                                                                             |
|               ----> ADVICE to this user running VASP <----                  |
|                                                                             |
|     You have a (more or less) 'large supercell' and for larger cells it     |
|     might be more efficient to use real-space projection operators.         |
|     Therefore, try LREAL= Auto in the INCAR file.                           |
|     Mind: For very accurate calculation, you might also keep the            |
|     reciprocal projection scheme (i.e. LREAL=.FALSE.).                      |
|                                                                             |
 -----------------------------------------------------------------------------

  PAW_PBE C_h 06Feb2004                 :
 energy of atom  1       EATOM= -147.1560
 kinetic energy error for atom=    0.0031 (will be added to EATOM!!)
  PAW_PBE O_h 06Feb2004                 :
 energy of atom  2       EATOM= -432.3788
 kinetic energy error for atom=    0.0171 (will be added to EATOM!!)
 
 
 POSCAR:  C  O
  positions in cartesian coordinates
  No initial velocities read in

 METAGGA = SCAN     LMAXTAU =  6    LMIXTAU =  F

 exchange correlation table for  LEXCH =        8
   RHO(1)=    0.500       N(1)  =     2000
   RHO(2)=  100.500       N(2)  =     4000
 


--------------------------------------------------------------------------------------------------------


 ion  position               nearest neighbor table
   1  0.972  0.000  0.001-  50 1.42   2 1.42  42 1.42
   2  0.039  0.134  0.001-   5 1.42   7 1.42   1 1.42
   3  0.172  0.000  0.001-  42 1.42  44 1.42   4 1.42
   4  0.239  0.134  0.000-   7 1.42   3 1.42  23 1.42
   5  0.972  0.200  0.001-   6 1.42   2 1.42  34 1.42
   6  0.039  0.334  0.001-   5 1.42  21 1.42  11 1.42
   7  0.172  0.200  0.000-   8 1.42   2 1.42   4 1.42
   8  0.239  0.334  0.000-  13 1.42   7 1.42  21 1.42
   9  0.372  0.000  0.001-  10 1.42  44 1.42  46 1.42
  10  0.439  0.134  0.000-  27 1.42   9 1.42  23 1.42
  11  0.972  0.400  0.001-  12 1.42  36 1.42   6 1.42
  12  0.039  0.534  0.001-  25 1.42  11 1.42  17 1.42
  13  0.372  0.400  0.000-   8 1.42  14 1.42  24 1.42
  14  0.439  0.534  0.000-  13 1.42  29 1.42  19 1.42
  15  0.572  0.000  0.001-  46 1.42  16 1.42  48 1.42
  16  0.639  0.134  0.001-  15 1.42  35 1.42  27 1.42
  17  0.972  0.600  0.001-  38 1.42  18 1.42  12 1.42
  18  0.039  0.734  0.001-  43 1.42  41 1.42  17 1.42
  19  0.572  0.600  0.001-  14 1.42  20 1.42  32 1.42
  20  0.639  0.734  0.001-  49 1.42  19 1.42  47 1.42
  21  0.172  0.400  0.000-  22 1.42   8 1.42   6 1.42
  22  0.239  0.534  0.000-  21 1.42  29 1.42  25 1.42
  23  0.372  0.200  0.000-  10 1.42   4 1.42  24 1.42
  24  0.439  0.334  0.000-  13 1.42  31 1.42  23 1.42
  25  0.172  0.600  0.001-  26 1.42  12 1.42  22 1.42
  26  0.239  0.734  0.001-  25 1.42  45 1.42  43 1.42
  27  0.572  0.200  0.001-  10 1.42  28 1.42  16 1.42
  28  0.639  0.334  0.001-  27 1.42  37 1.42  31 1.42
  29  0.372  0.600  0.000-  22 1.42  14 1.42  30 1.42
  30  0.439  0.734  0.001-  47 1.42  29 1.42  45 1.42
  31  0.572  0.400  0.000-  32 1.42  28 1.42  24 1.42
  32  0.639  0.534  0.001-  31 1.42  39 1.42  19 1.42
  33  0.772  0.000  0.001-  34 1.42  48 1.42  50 1.42
  34  0.839  0.134  0.001-  33 1.42   5 1.42  35 1.42
  35  0.772  0.200  0.001-  36 1.42  16 1.42  34 1.42
  36  0.839  0.334  0.001-  35 1.42  11 1.42  37 1.42
  37  0.772  0.400  0.001-  28 1.42  38 1.42  36 1.42
  38  0.839  0.534  0.001-  17 1.42  37 1.42  39 1.42
  39  0.772  0.600  0.001-  40 1.42  38 1.42  32 1.42
  40  0.839  0.734  0.001-  39 1.42  49 1.42  41 1.42
  41  0.972  0.800  0.001-  18 1.42  42 1.42  40 1.42
  42  0.039  0.934  0.001-   3 1.42  41 1.42   1 1.42
  43  0.172  0.800  0.001-  18 1.42  44 1.42  26 1.42
  44  0.239  0.934  0.001-   9 1.42  43 1.42   3 1.42
  45  0.372  0.800  0.001-  26 1.42  46 1.42  30 1.42
  46  0.439  0.934  0.001-  15 1.42  45 1.42   9 1.42
  47  0.572  0.800  0.001-  30 1.42  48 1.42  20 1.42
  48  0.639  0.934  0.001-  47 1.42  33 1.42  15 1.42
  49  0.772  0.800  0.001-  50 1.42  20 1.42  40 1.42
  50  0.839  0.934  0.001-  49 1.42   1 1.42  33 1.42
  51  0.373  0.251  0.223-  52 1.18  53 1.18
  52  0.421  0.189  0.226-  51 1.18
  53  0.325  0.313  0.220-  51 1.18
 
  LATTYP: Found a hexagonal cell.
 ALAT       =    12.3250000000
 C/A-ratio  =     1.6227180527
  
  Lattice vectors:
  
 A1 = (  12.3250000000,   0.0000000000,   0.0000000000)
 A2 = (  -6.1625000000,  10.6737631016,   0.0000000000)
 A3 = (   0.0000000000,   0.0000000000,  20.0000000000)


Analysis of symmetry for initial positions (statically):
=====================================================================
 Subroutine PRICEL returns:
 Original cell was already a primitive cell.
 

 Routine SETGRP: Setting up the symmetry group for a 
 hexagonal supercell.


 Subroutine GETGRP returns: Found  1 space group operations
 (whereof  1 operations were pure point group operations)
 out of a pool of 24 trial point group operations.


The static configuration has the point symmetry C_1 .


Analysis of symmetry for dynamics (positions and initial velocities):
=====================================================================
 Subroutine PRICEL returns:
 Original cell was already a primitive cell.
 

 Routine SETGRP: Setting up the symmetry group for a 
 hexagonal supercell.


 Subroutine GETGRP returns: Found  1 space group operations
 (whereof  1 operations were pure point group operations)
 out of a pool of 24 trial point group operations.


The dynamic configuration has the point symmetry C_1 .


 Subroutine INISYM returns: Found  1 space group operations
 (whereof  1 operations are pure point group operations),
 and found     1 'primitive' translations


----------------------------------------------------------------------------------------

                                     Primitive cell                                     

  volume of cell :    2631.0826

  direct lattice vectors                    reciprocal lattice vectors
    12.325000000  0.000000000  0.000000000     0.081135903  0.046843835  0.000000000
    -6.162500000 10.673763102  0.000000000     0.000000000  0.093687670  0.000000000
     0.000000000  0.000000000 20.000000000     0.000000000  0.000000000  0.050000000

  length of vectors
    12.325000000 12.325000000 20.000000000     0.093687670  0.093687670  0.050000000

  position of ions in fractional coordinates (direct lattice)
     0.972450841  0.000320818  0.000708389
     0.039118382  0.133659505  0.000550216
     0.172443627  0.000295449  0.000624535
     0.239096278  0.133647917  0.000320585
     0.972452058  0.200322012  0.000606523
     0.039128360  0.333643771  0.000555187
     0.172451764  0.200354552  0.000273959
     0.239124359  0.333665720  0.000090325
     0.372465565  0.000324403  0.000567391
     0.439137473  0.133619939  0.000322923
     0.972449824  0.400309362  0.000684513
     0.039124981  0.533636789  0.000716763
     0.372416176  0.400329481  0.000000000
     0.439099602  0.533638981  0.000290518
     0.572443676  0.000312125  0.000699475
     0.639110207  0.133631751  0.000684093
     0.972452703  0.600305653  0.000800361
     0.039124495  0.733640359  0.000818141
     0.572433471  0.600306242  0.000503618
     0.639111888  0.733641879  0.000659881
     0.172454630  0.400318228  0.000361306
     0.239120185  0.533636548  0.000473136
     0.372459750  0.200295993  0.000111246
     0.439107096  0.333673419  0.000069702
     0.172452155  0.600311506  0.000655425
     0.239123371  0.733638574  0.000718912
     0.572431082  0.200289171  0.000516621
     0.639112773  0.333618630  0.000577970
     0.372439808  0.600308022  0.000453556
     0.439116090  0.733637858  0.000617737
     0.572469358  0.400320504  0.000424897
     0.639119408  0.533650873  0.000574513
     0.772445723  0.000315427  0.000745201
     0.839116277  0.133640203  0.000719132
     0.772440513  0.200307432  0.000726291
     0.839120241  0.333635728  0.000731834
     0.772446320  0.400298367  0.000728722
     0.839118980  0.533633964  0.000776376
     0.772456143  0.600308173  0.000744639
     0.839115033  0.733643180  0.000789390
     0.972455313  0.800305582  0.000815291
     0.039114714  0.933643289  0.000747563
     0.172457971  0.800312211  0.000779216
     0.239134551  0.933647193  0.000681063
     0.372451396  0.800316674  0.000689249
     0.439124489  0.933644769  0.000676788
     0.572441101  0.800310054  0.000668168
     0.639115067  0.933638985  0.000734556
     0.772445098  0.800313187  0.000752577
     0.839116614  0.933644338  0.000758538
     0.373021009  0.251226878  0.222724679
     0.420879805  0.189313152  0.225945772
     0.325156981  0.313167186  0.219751936

  ion indices of the primitive-cell ions
   primitive index   ion index
                 1           1
                 2           2
                 3           3
                 4           4
                 5           5
                 6           6
                 7           7
                 8           8
                 9           9
                10          10
                11          11
                12          12
                13          13
                14          14
                15          15
                16          16
                17          17
                18          18
                19          19
                20          20
                21          21
                22          22
                23          23
                24          24
                25          25
                26          26
                27          27
                28          28
                29          29
                30          30
                31          31
                32          32
                33          33
                34          34
                35          35
                36          36
                37          37
                38          38
                39          39
                40          40
                41          41
                42          42
                43          43
                44          44
                45          45
                46          46
                47          47
                48          48
                49          49
                50          50
                51          51
                52          52
                53          53

----------------------------------------------------------------------------------------

 
 
 KPOINTS: auto                                    

Automatic generation of k-mesh.
 Grid dimensions read from file:
 generate k-points for:    1    1    1

 Generating k-lattice:

  Cartesian coordinates                     Fractional coordinates (reciprocal lattice)
     0.081135903  0.046843835  0.000000000     1.000000000 -0.000000000  0.000000000
     0.000000000  0.093687670  0.000000000     0.000000000  1.000000000  0.000000000
     0.000000000  0.000000000  0.050000000     0.000000000  0.000000000  1.000000000

  Length of vectors
     0.093687670  0.093687670  0.050000000

  Shift w.r.t. Gamma in fractional coordinates (k-lattice)
     0.000000000  0.000000000  0.000000000

 
 Subroutine IBZKPT returns following result:
 ===========================================
 
 Found      1 irreducible k-points:
 
 Following reciprocal coordinates:
            Coordinates               Weight
  0.000000  0.000000  0.000000      1.000000
 
 Following cartesian coordinates:
            Coordinates               Weight
  0.000000  0.000000  0.000000      1.000000
 


--------------------------------------------------------------------------------------------------------




 Dimension of arrays:
   k-points           NKPTS =      1   k-points in BZ     NKDIM =      1   number of bands    NBANDS=    168
   number of dos      NEDOS =    301   number of ions     NIONS =     53
   non local maximal  LDIM  =      4   non local SUM 2l+1 LMDIM =      8
   total plane-waves  NPLWV = ******
   max r-space proj   IRMAX =      1   max aug-charges    IRDMAX=   9736
   dimension x,y,z NGX =   128 NGY =  128 NGZ =  210
   dimension x,y,z NGXF=   256 NGYF=  256 NGZF=  420
   support grid    NGXF=   256 NGYF=  256 NGZF=  420
   ions per type =              51   2
   NGX,Y,Z   is equivalent  to a cutoff of  17.27, 17.27, 17.46 a.u.
   NGXF,Y,Z  is equivalent  to a cutoff of  34.53, 34.53, 34.91 a.u.

 SYSTEM =  unknown system                          
 POSCAR =   C  O                                   

 Startparameter for this run:
   NWRITE =      2    write-flag & timer
   PREC   = accura    normal or accurate (medium, high low for compatibility)
   ISTART =      0    job   : 0-new  1-cont  2-samecut
   ICHARG =      2    charge: 1-file 2-atom 10-const
   ISPIN  =      1    spin polarized calculation?
   LNONCOLLINEAR =      F non collinear calculations
   LSORBIT =      F    spin-orbit coupling
   INIWAV =      1    electr: 0-lowe 1-rand  2-diag
   LASPH  =      T    aspherical Exc in radial PAW
 Electronic Relaxation 1
   ENCUT  = 1000.0 eV  73.50 Ry    8.57 a.u.  31.78 31.78 51.57*2*pi/ulx,y,z
   ENINI  = 1000.0     initial cutoff
   ENAUG  =  946.8 eV  augmentation charge cutoff
   NELM   =    200;   NELMIN=  2; NELMDL= -5     # of ELM steps 
   EDIFF  = 0.1E-06   stopping-criterion for ELM
   LREAL  =      F    real-space projection
   NLSPLINE    = F    spline interpolate recip. space projectors
   LCOMPAT=      F    compatible to vasp.4.4
   GGA_COMPAT  = T    GGA compatible to vasp.4.4-vasp.4.6
   LMAXPAW     = -100 max onsite density
   LMAXMIX     =    2 max onsite mixed and CHGCAR
   VOSKOWN=      0    Vosko Wilk Nusair interpolation
   ROPT   =    0.00000   0.00000
 Ionic relaxation
   EDIFFG = 0.1E-05   stopping-criterion for IOM
   NSW    =      0    number of steps for IOM
   NBLOCK =      1;   KBLOCK =      1    inner block; outer block 
   IBRION =     -1    ionic relax: 0-MD 1-quasi-New 2-CG
   NFREE  =      0    steps in history (QN), initial steepest desc. (CG)
   ISIF   =      0    stress and relaxation
   IWAVPR =     10    prediction:  0-non 1-charg 2-wave 3-comb
   ISYM   =      2    0-nonsym 1-usesym 2-fastsym
   LCORR  =      T    Harris-Foulkes like correction to forces

   POTIM  = 0.5000    time-step for ionic-motion
   TEIN   =    0.0    initial temperature
   TEBEG  =    0.0;   TEEND  =   0.0 temperature during run
   SMASS  =  -3.00    Nose mass-parameter (am)
   estimated Nose-frequenzy (Omega)   =  0.10E-29 period in steps = 0.13E+47 mass=  -0.347E-26a.u.
   SCALEE = 1.0000    scale energy and forces
   NPACO  =    256;   APACO  = 16.0  distance and # of slots for P.C.
   PSTRESS=    0.0 pullay stress

  Mass of Ions in am
   POMASS =  12.01 16.00
  Ionic Valenz
   ZVAL   =   4.00  6.00
  Atomic Wigner-Seitz radii
   RWIGS  =  -1.00 -1.00
  virtual crystal weights 
   VCA    =   1.00  1.00
   NELECT =     216.0000    total number of electrons
   NUPDOWN=      -1.0000    fix difference up-down

 DOS related values:
   EMIN   =  10.00;   EMAX   =-10.00  energy-range for DOS
   EFERMI =   0.00
   ISMEAR =     0;   SIGMA  =   0.01  broadening in eV -4-tet -1-fermi 0-gaus

 Electronic relaxation 2 (details)
   IALGO  =     58    algorithm
   LDIAG  =      T    sub-space diagonalisation (order eigenvalues)
   LSUBROT=      F    optimize rotation matrix (better conditioning)
   TURBO    =      0    0=normal 1=particle mesh
   IRESTART =      0    0=no restart 2=restart with 2 vectors
   NREBOOT  =      0    no. of reboots
   NMIN     =      0    reboot dimension
   EREF     =   0.00    reference energy to select bands
   IMIX   =      4    mixing-type and parameters
     AMIX     =   0.40;   BMIX     =  1.00
     AMIX_MAG =   1.60;   BMIX_MAG =  1.00
     AMIN     =   0.10
     WC   =   100.;   INIMIX=   1;  MIXPRE=   1;  MAXMIX= -45

 Intra band minimization:
   WEIMIN = 0.0000     energy-eigenvalue tresh-hold
   EBREAK =  0.15E-09  absolut break condition
   DEPER  =   0.30     relativ break condition  

   TIME   =   0.40     timestep for ELM

  volume/ion in A,a.u.               =      49.64       335.01
  Fermi-wavevector in a.u.,A,eV,Ry     =   0.711510  1.344560  6.887909  0.506247
  Thomas-Fermi vector in A             =   1.798641
 
 Write flags
   LWAVE        =      T    write WAVECAR
   LDOWNSAMPLE  =      F    k-point downsampling of WAVECAR
   LCHARG       =      T    write CHGCAR
   LVTOT        =      F    write LOCPOT, total local potential
   LVHAR        =      F    write LOCPOT, Hartree potential only
   LELF         =      F    write electronic localiz. function (ELF)
   LORBIT       =      0    0 simple, 1 ext, 2 COOP (PROOUT), +10 PAW based schemes


 Dipole corrections
   LMONO  =      F    monopole corrections only (constant potential shift)
   LDIPOL =      F    correct potential (dipole corrections)
   IDIPOL =      0    1-x, 2-y, 3-z, 4-all directions 
   EPSILON=  1.0000000 bulk dielectric constant

 Exchange correlation treatment:
   GGA     =    --    GGA type
   LEXCH   =     8    internal setting for exchange type
   VOSKOWN=      0    Vosko Wilk Nusair interpolation
   LHFCALC =     F    Hartree Fock is set to
   LHFONE  =     F    Hartree Fock one center treatment
   AEXX    =    0.0000 exact exchange contribution

 vdW DFT:
   LUSE_VDW   =     T    switch on vdW DFT
   Zab_VDW    =-.8491    correlation parameter
   PARAM1     =0.1234
   PARAM2     =1.0000
   PARAM3     =0.0000
   -- rVV10 --
   BPARAM     =15.7000
   CPARAM     = 0.0093

 Linear response parameters
   LEPSILON=     F    determine dielectric tensor
   LRPA    =     F    only Hartree local field effects (RPA)
   LNABLA  =     F    use nabla operator in PAW spheres
   LVEL    =     F    velocity operator in full k-point grid
   LINTERFAST=   F  fast interpolation
   KINTER  =     0    interpolate to denser k-point grid
   CSHIFT  =0.1000    complex shift for real part using Kramers Kronig
   OMEGAMAX=  -1.0    maximum frequency
   DEG_THRESHOLD= 0.2000000E-02 threshold for treating states as degnerate
   RTIME   =   -0.100 relaxation time in fs
  (WPLASMAI=    0.000 imaginary part of plasma frequency in eV, 0.658/RTIME)
   DFIELD  = 0.0000000 0.0000000 0.0000000 field for delta impulse in time
 
 Orbital magnetization related:
   ORBITALMAG=     F  switch on orbital magnetization
   LCHIMAG   =     F  perturbation theory with respect to B field
   DQ        =  0.001000  dq finite difference perturbation B field
   LLRAUG    =     F  two centre corrections for induced B field



--------------------------------------------------------------------------------------------------------


 Static calculation
 charge density and potential will be updated during run
 non-spin polarized calculation
 Conjugate gradient for all bands (Freysoldt, et al. PRB 79, 241103 (2009))
 preconditioned conjugated gradient                                        
 perform sub-space diagonalisation
    before iterative eigenvector-optimisation
 modified Broyden-mixing scheme, WC =      100.0
 initial mixing is a Kerker type mixing with AMIX =  0.4000 and BMIX =      1.0000
 Hartree-type preconditioning will be used
 using additional bands           60
 reciprocal scheme for non local part
 use partial core corrections
 no Harris-corrections to forces 
 use gradient corrections 
 use of overlap-Matrix (Vanderbilt PP)
 Gauss-broadening in eV      SIGMA  =   0.01


--------------------------------------------------------------------------------------------------------


  energy-cutoff  :     1000.00
  volume of cell :     2631.08
      direct lattice vectors                 reciprocal lattice vectors
    12.325000000  0.000000000  0.000000000     0.081135903  0.046843835  0.000000000
    -6.162500000 10.673763102  0.000000000     0.000000000  0.093687670  0.000000000
     0.000000000  0.000000000 20.000000000     0.000000000  0.000000000  0.050000000

  length of vectors
    12.325000000 12.325000000 20.000000000     0.093687670  0.093687670  0.050000000


 
 k-points in units of 2pi/SCALE and weight: auto                                    
   0.00000000  0.00000000  0.00000000       1.000
 
 k-points in reciprocal lattice and weights: auto                                    
   0.00000000  0.00000000  0.00000000       1.000
 
 position of ions in fractional coordinates (direct lattice) 
   0.97245084  0.00032082  0.00070839
   0.03911838  0.13365950  0.00055022
   0.17244363  0.00029545  0.00062454
   0.23909628  0.13364792  0.00032058
   0.97245206  0.20032201  0.00060652
   0.03912836  0.33364377  0.00055519
   0.17245176  0.20035455  0.00027396
   0.23912436  0.33366572  0.00009033
   0.37246557  0.00032440  0.00056739
   0.43913747  0.13361994  0.00032292
   0.97244982  0.40030936  0.00068451
   0.03912498  0.53363679  0.00071676
   0.37241618  0.40032948  0.00000000
   0.43909960  0.53363898  0.00029052
   0.57244368  0.00031213  0.00069947
   0.63911021  0.13363175  0.00068409
   0.97245270  0.60030565  0.00080036
   0.03912449  0.73364036  0.00081814
   0.57243347  0.60030624  0.00050362
   0.63911189  0.73364188  0.00065988
   0.17245463  0.40031823  0.00036131
   0.23912018  0.53363655  0.00047314
   0.37245975  0.20029599  0.00011125
   0.43910710  0.33367342  0.00006970
   0.17245216  0.60031151  0.00065542
   0.23912337  0.73363857  0.00071891
   0.57243108  0.20028917  0.00051662
   0.63911277  0.33361863  0.00057797
   0.37243981  0.60030802  0.00045356
   0.43911609  0.73363786  0.00061774
   0.57246936  0.40032050  0.00042490
   0.63911941  0.53365087  0.00057451
   0.77244572  0.00031543  0.00074520
   0.83911628  0.13364020  0.00071913
   0.77244051  0.20030743  0.00072629
   0.83912024  0.33363573  0.00073183
   0.77244632  0.40029837  0.00072872
   0.83911898  0.53363396  0.00077638
   0.77245614  0.60030817  0.00074464
   0.83911503  0.73364318  0.00078939
   0.97245531  0.80030558  0.00081529
   0.03911471  0.93364329  0.00074756
   0.17245797  0.80031221  0.00077922
   0.23913455  0.93364719  0.00068106
   0.37245140  0.80031667  0.00068925
   0.43912449  0.93364477  0.00067679
   0.57244110  0.80031005  0.00066817
   0.63911507  0.93363899  0.00073456
   0.77244510  0.80031319  0.00075258
   0.83911661  0.93364434  0.00075854
   0.37302101  0.25122688  0.22272468
   0.42087980  0.18931315  0.22594577
   0.32515698  0.31316719  0.21975194
 
 position of ions in cartesian coordinates  (Angst):
  11.98347958  0.00342433  0.01416777
  -0.34154264  1.42664989  0.01100432
   2.12354700  0.00315355  0.01249070
   2.12325634  1.42652621  0.00641170
  10.75098721  2.13818970  0.01213047
  -1.57382270  3.56123457  0.01110375
   0.89078307  2.13853702  0.00547917
   0.89099273  3.56146885  0.00180651
   4.58863896  0.00346260  0.01134782
   4.58893648  1.42622757  0.00645846
   9.51853763  4.27280730  0.01369027
  -2.80632132  5.69591267  0.01433526
   2.12299894  4.27302204  0.00000000
   2.12335237  5.69593607  0.00581036
   7.05344483  0.00333155  0.01398950
   7.05352764  1.42635365  0.01368187
   8.28609598  6.40752033  0.01600723
  -4.03884931  7.83070339  0.01636283
   3.35585531  6.40752662  0.01007237
   3.35598594  7.83071962  0.01319763
  -0.34145776  4.27290193  0.00722612
  -0.34137895  5.69591010  0.00946273
   3.35624236  2.13791198  0.00222492
   3.35573251  3.56155103  0.00139405
  -1.57394684  6.40758280  0.01310850
  -1.57385216  7.83068434  0.01437823
   5.82093107  2.13783916  0.01033241
   5.82114012  3.56096622  0.01155939
   0.89092245  6.40754561  0.00907111
   0.89106251  7.83067670  0.01235474
   4.58870974  4.27292622  0.00849795
   4.58852320  5.69606300  0.01149026
   9.51844972  0.00336679  0.01490402
   9.51855036  1.42644387  0.01438264
   8.28593477  2.13803408  0.01452582
   8.28612680  3.56114872  0.01463668
   7.05356221  4.27268994  0.01457444
   7.05362213  5.69588251  0.01552751
   5.82112285  6.40754723  0.01489279
   5.82101669  7.83073350  0.01578780
   7.05362858  8.54227219  0.01630582
  -5.27148792  9.96548729  0.01495127
  -2.80637951  8.54234295  0.01558431
  -2.80626749  9.96552896  0.01362126
  -0.34148805  8.54239058  0.01378498
  -0.34137657  9.96550309  0.01353576
   2.12342586  8.54231992  0.01336337
   2.12354296  9.96544135  0.01469111
   4.58845581  8.54235337  0.01505154
   4.58852904  9.96549848  0.01517076
   3.04929830  2.68153618  4.45449359
   4.02070129  2.02068374  4.51891545
   2.07766701  3.34267235  4.39503872
 


--------------------------------------------------------------------------------------------------------


 k-point   1 :   0.0000 0.0000 0.0000  plane waves:  189031

 maximum and minimum number of plane-waves per node :    189031   189031

 maximum number of plane-waves:    189031
 maximum index in each direction: 
   IXMAX=   31   IYMAX=   31   IZMAX=   51
   IXMIN=  -31   IYMIN=  -31   IZMIN=  -51


 serial   3D FFT for wavefunctions
 parallel 3D FFT for charge:
    minimum data exchange during FFTs selected (reduces bandwidth)


 total amount of memory used by VASP MPI-rank0   556209. kBytes
=======================================================================

   base      :      30000. kBytes
   nonl-proj :     184518. kBytes
   fftplans  :      31725. kBytes
   grid      :     282516. kBytes
   one-center:        162. kBytes
   wavefun   :      27288. kBytes
 
     INWAV:  cpu time    0.0000: real time    0.0000
 Broyden mixing: mesh for mixing (old mesh)
   NGX = 63   NGY = 63   NGZ =103
  (NGX  =256   NGY  =256   NGZ  =420)
  gives a total of 408807 points

 initial charge density was supplied:
 charge density of overlapping atoms calculated
 number of electron     216.0000000 magnetization 
 keeping initial charge density in first step


--------------------------------------------------------------------------------------------------------


 Maximum index for augmentation-charges          459 (set IRDMAX)


--------------------------------------------------------------------------------------------------------


 First call to EWALD:  gamma=   0.128
 Maximum number of real-space cells 3x 3x 2
 Maximum number of reciprocal cells 3x 3x 4

    FEWALD:  cpu time    0.0034: real time    0.0034


--------------------------------------- Iteration      1(   1)  ---------------------------------------


    POTLOK:  cpu time    6.2516: real time    6.2899
    SETDIJ:  cpu time    0.1703: real time    0.1708
    TRIAL :  cpu time   21.7931: real time   21.9833
    CORREC:  cpu time    0.0006: real time    0.0006
    --------------------------------------------
      LOOP:  cpu time   28.2240: real time   28.4674

 eigenvalue-minimisations  :   336
 total energy-change (2. order) : 0.2409601E+04  (-0.1180561E+05)
 number of electron     216.0000000 magnetization 
 augmentation part      216.0000000 magnetization 

 Free energy of the ion-electron system (eV)
  ---------------------------------------------------
  alpha Z        PSCENC =        59.93625244
  Ewald energy   TEWEN  =     32604.61742785
  -Hartree energ DENC   =    -38780.03525284
  -exchange      EXHF   =         0.00000000
  -V(xc)+E(xc)   XCENC  =       604.31268915
  PAW double counting   =      6339.73130699    -6197.22120962
  entropy T*S    EENTRO =        -0.00000000
  eigenvalues    EBANDS =      -591.26403837
  atomic energy  EATOM  =      8369.52358910
  ---------------------------------------------------
  free energy    TOTEN  =      2409.60076471 eV

  energy without entropy =     2409.60076471  energy(sigma->0) =     2409.60076471


--------------------------------------------------------------------------------------------------------




--------------------------------------- Iteration      1(   2)  ---------------------------------------


    TRIAL :  cpu time   30.9966: real time   31.2476
    CORREC:  cpu time    0.0001: real time    0.0001
    --------------------------------------------
      LOOP:  cpu time   31.0645: real time   31.3203

 eigenvalue-minimisations  :   560
 total energy-change (2. order) :-0.2434158E+04  (-0.2304527E+04)
 number of electron     216.0000000 magnetization 
 augmentation part      216.0000000 magnetization 

 Free energy of the ion-electron system (eV)
  ---------------------------------------------------
  alpha Z        PSCENC =        59.93625244
  Ewald energy   TEWEN  =     32604.61742785
  -Hartree energ DENC   =    -38780.03525284
  -exchange      EXHF   =         0.00000000
  -V(xc)+E(xc)   XCENC  =       604.31268915
  PAW double counting   =      6339.73130699    -6197.22120962
  entropy T*S    EENTRO =        -0.00000000
  eigenvalues    EBANDS =     -3025.42235262
  atomic energy  EATOM  =      8369.52358910
  ---------------------------------------------------
  free energy    TOTEN  =       -24.55754954 eV

  energy without entropy =      -24.55754954  energy(sigma->0) =      -24.55754954


--------------------------------------------------------------------------------------------------------




--------------------------------------- Iteration      1(   3)  ---------------------------------------


    TRIAL :  cpu time   24.0644: real time   24.2453
    CORREC:  cpu time    0.0001: real time    0.0001
    --------------------------------------------
      LOOP:  cpu time   24.1055: real time   24.2869

 eigenvalue-minimisations  :   392
 total energy-change (2. order) :-0.5633538E+03  (-0.5605129E+03)
 number of electron     216.0000000 magnetization 
 augmentation part      216.0000000 magnetization 

 Free energy of the ion-electron system (eV)
  ---------------------------------------------------
  alpha Z        PSCENC =        59.93625244
  Ewald energy   TEWEN  =     32604.61742785
  -Hartree energ DENC   =    -38780.03525284
  -exchange      EXHF   =         0.00000000
  -V(xc)+E(xc)   XCENC  =       604.31268915
  PAW double counting   =      6339.73130699    -6197.22120962
  entropy T*S    EENTRO =        -0.00000000
  eigenvalues    EBANDS =     -3588.77619686
  atomic energy  EATOM  =      8369.52358910
  ---------------------------------------------------
  free energy    TOTEN  =      -587.91139378 eV

  energy without entropy =     -587.91139378  energy(sigma->0) =     -587.91139378


--------------------------------------------------------------------------------------------------------




--------------------------------------- Iteration      1(   4)  ---------------------------------------


    TRIAL :  cpu time   26.3277: real time   26.5692
    CORREC:  cpu time    0.0001: real time    0.0001
    --------------------------------------------
      LOOP:  cpu time   26.3656: real time   26.6076

 eigenvalue-minimisations  :   448
 total energy-change (2. order) :-0.2648668E+02  (-0.2632803E+02)
 number of electron     216.0000000 magnetization 
 augmentation part      216.0000000 magnetization 

 Free energy of the ion-electron system (eV)
  ---------------------------------------------------
  alpha Z        PSCENC =        59.93625244
  Ewald energy   TEWEN  =     32604.61742785
  -Hartree energ DENC   =    -38780.03525284
  -exchange      EXHF   =         0.00000000
  -V(xc)+E(xc)   XCENC  =       604.31268915
  PAW double counting   =      6339.73130699    -6197.22120962
  entropy T*S    EENTRO =        -0.00000000
  eigenvalues    EBANDS =     -3615.26287992
  atomic energy  EATOM  =      8369.52358910
  ---------------------------------------------------
  free energy    TOTEN  =      -614.39807685 eV

  energy without entropy =     -614.39807685  energy(sigma->0) =     -614.39807685


--------------------------------------------------------------------------------------------------------




--------------------------------------- Iteration      1(   5)  ---------------------------------------


    TRIAL :  cpu time   21.6915: real time   21.9142
    CORREC:  cpu time    0.0001: real time    0.0001
    CHARGE:  cpu time    2.2889: real time    2.3087
    --------------------------------------------
      LOOP:  cpu time   24.0156: real time   24.2808

 eigenvalue-minimisations  :   336
 total energy-change (2. order) :-0.9263069E+00  (-0.9257533E+00)
 number of electron     216.0000000 magnetization 
 augmentation part       -0.4309200 magnetization 

 Free energy of the ion-electron system (eV)
  ---------------------------------------------------
  alpha Z        PSCENC =        59.93625244
  Ewald energy   TEWEN  =     32604.61742785
  -Hartree energ DENC   =    -38780.03525284
  -exchange      EXHF   =         0.00000000
  -V(xc)+E(xc)   XCENC  =       604.31268915
  PAW double counting   =      6339.73130699    -6197.22120962
  entropy T*S    EENTRO =        -0.00000000
  eigenvalues    EBANDS =     -3616.18918683
  atomic energy  EATOM  =      8369.52358910
  ---------------------------------------------------
  free energy    TOTEN  =      -615.32438375 eV

  energy without entropy =     -615.32438375  energy(sigma->0) =     -615.32438375


--------------------------------------------------------------------------------------------------------




--------------------------------------- Iteration      1(   6)  ---------------------------------------


    POTLOK:  cpu time    6.1439: real time    6.1881
    SETDIJ:  cpu time    0.1797: real time    0.1802
    TRIAL :  cpu time   15.4867: real time   15.6176
    CORREC:  cpu time   11.7971: real time   11.8789
    CHARGE:  cpu time    2.2798: real time    2.2960
    --------------------------------------------
      LOOP:  cpu time   35.9568: real time   36.2341

 eigenvalue-minimisations  :     0
 total energy-change (2. order) : 0.1038998E+03  (-0.1201622E+02)
 number of electron     216.0000000 magnetization 
 augmentation part       -0.4925048 magnetization 

 Free energy of the ion-electron system (eV)
  ---------------------------------------------------
  alpha Z        PSCENC =        59.93625244
  Ewald energy   TEWEN  =     32604.61742785
  -Hartree energ DENC   =    -40107.78024462
  -exchange      EXHF   =         0.00000000
  -V(xc)+E(xc)   XCENC  =       671.02787012
  PAW double counting   =    113830.25800809  -113693.47018158
  entropy T*S    EENTRO =        -0.00000000
  eigenvalues    EBANDS =     -2245.53730124
  atomic energy  EATOM  =      8369.52358910
  ---------------------------------------------------
  free energy    TOTEN  =      -511.42457984 eV

  energy without entropy =     -511.42457984  energy(sigma->0) =     -511.42457984


--------------------------------------------------------------------------------------------------------




--------------------------------------- Iteration      1(   7)  ---------------------------------------


    POTLOK:  cpu time    6.1349: real time    6.1765
    SETDIJ:  cpu time    0.1687: real time    0.1693
    TRIAL :  cpu time   15.4881: real time   15.6231
    CORREC:  cpu time   11.7609: real time   11.8422
    CHARGE:  cpu time    2.2875: real time    2.3119
    --------------------------------------------
      LOOP:  cpu time   35.8699: real time   36.1533

 eigenvalue-minimisations  :     0
 total energy-change (2. order) :-0.1202914E+02  (-0.1589820E+01)
 number of electron     216.0000000 magnetization 
 augmentation part       -0.5233883 magnetization 

 Free energy of the ion-electron system (eV)
  ---------------------------------------------------
  alpha Z        PSCENC =        59.93625244
  Ewald energy   TEWEN  =     32604.61742785
  -Hartree energ DENC   =    -39689.99462264
  -exchange      EXHF   =         0.00000000
  -V(xc)+E(xc)   XCENC  =       651.26570212
  PAW double counting   =    132046.17142950  -131906.64216733
  entropy T*S    EENTRO =        -0.00000000
  eigenvalues    EBANDS =     -2658.33133253
  atomic energy  EATOM  =      8369.52358910
  ---------------------------------------------------
  free energy    TOTEN  =      -523.45372149 eV

  energy without entropy =     -523.45372149  energy(sigma->0) =     -523.45372149


--------------------------------------------------------------------------------------------------------




--------------------------------------- Iteration      1(   8)  ---------------------------------------


    POTLOK:  cpu time    6.1293: real time    6.1795
    SETDIJ:  cpu time    0.1881: real time    0.1887
    TRIAL :  cpu time   15.4713: real time   15.6048
    CORREC:  cpu time   11.7481: real time   11.8407
    CHARGE:  cpu time    2.2748: real time    2.3006
    --------------------------------------------
      LOOP:  cpu time   35.8327: real time   36.1541

 eigenvalue-minimisations  :     0
 total energy-change (2. order) :-0.1590252E+01  (-0.5265076E+00)
 number of electron     216.0000000 magnetization 
 augmentation part       -0.5209345 magnetization 

 Free energy of the ion-electron system (eV)
  ---------------------------------------------------
  alpha Z        PSCENC =        59.93625244
  Ewald energy   TEWEN  =     32604.61742785
  -Hartree energ DENC   =    -39660.03928291
  -exchange      EXHF   =         0.00000000
  -V(xc)+E(xc)   XCENC  =       649.61748970
  PAW double counting   =    140188.62624368  -140048.60911121
  entropy T*S    EENTRO =        -0.00000000
  eigenvalues    EBANDS =     -2688.71658222
  atomic energy  EATOM  =      8369.52358910
  ---------------------------------------------------
  free energy    TOTEN  =      -525.04397357 eV

  energy without entropy =     -525.04397357  energy(sigma->0) =     -525.04397357


--------------------------------------------------------------------------------------------------------




--------------------------------------- Iteration      1(   9)  ---------------------------------------


    POTLOK:  cpu time    6.1648: real time    6.2035
    SETDIJ:  cpu time    0.1564: real time    0.1572
    TRIAL :  cpu time   15.4730: real time   15.5973
    CORREC:  cpu time   11.7687: real time   11.8486
    CHARGE:  cpu time    2.2799: real time    2.2958
    --------------------------------------------
      LOOP:  cpu time   35.9008: real time   36.1643

 eigenvalue-minimisations  :     0
 total energy-change (2. order) :-0.5261811E+00  (-0.2073080E+00)
 number of electron     216.0000000 magnetization 
 augmentation part       -0.5150383 magnetization 

 Free energy of the ion-electron system (eV)
  ---------------------------------------------------
  alpha Z        PSCENC =        59.93625244
  Ewald energy   TEWEN  =     32604.61742785
  -Hartree energ DENC   =    -39667.29365052
  -exchange      EXHF   =         0.00000000
  -V(xc)+E(xc)   XCENC  =       649.34004715
  PAW double counting   =    146527.13875257  -146386.91842196
  entropy T*S    EENTRO =        -0.00000000
  eigenvalues    EBANDS =     -2681.91415131
  atomic energy  EATOM  =      8369.52358910
  ---------------------------------------------------
  free energy    TOTEN  =      -525.57015468 eV

  energy without entropy =     -525.57015468  energy(sigma->0) =     -525.57015468


--------------------------------------------------------------------------------------------------------




--------------------------------------- Iteration      1(  10)  ---------------------------------------


    POTLOK:  cpu time    6.1613: real time    6.2036
    SETDIJ:  cpu time    0.1943: real time    0.1950
    TRIAL :  cpu time   15.4543: real time   15.5908
    CORREC:  cpu time   11.7397: real time   11.8381
    CHARGE:  cpu time    2.2861: real time    2.3053
    --------------------------------------------
      LOOP:  cpu time   35.8847: real time   36.1872

 eigenvalue-minimisations  :     0
 total energy-change (2. order) :-0.2070758E+00  (-0.8886393E-01)
 number of electron     216.0000000 magnetization 
 augmentation part       -0.5082694 magnetization 

 Free energy of the ion-electron system (eV)
  ---------------------------------------------------
  alpha Z        PSCENC =        59.93625244
  Ewald energy   TEWEN  =     32604.61742785
  -Hartree energ DENC   =    -39666.75143812
  -exchange      EXHF   =         0.00000000
  -V(xc)+E(xc)   XCENC  =       649.11626863
  PAW double counting   =    148929.15302234  -148788.83350805
  entropy T*S    EENTRO =        -0.00000000
  eigenvalues    EBANDS =     -2682.53884470
  atomic energy  EATOM  =      8369.52358910
  ---------------------------------------------------
  free energy    TOTEN  =      -525.77723050 eV

  energy without entropy =     -525.77723050  energy(sigma->0) =     -525.77723050


--------------------------------------------------------------------------------------------------------




--------------------------------------- Iteration      1(  11)  ---------------------------------------


    POTLOK:  cpu time    6.1387: real time    6.1835
    SETDIJ:  cpu time    0.1871: real time    0.1878
    TRIAL :  cpu time   15.4587: real time   15.6167
    CORREC:  cpu time   11.7722: real time   11.8561
    CHARGE:  cpu time    2.2848: real time    2.3017
    --------------------------------------------
      LOOP:  cpu time   35.8733: real time   36.1801

 eigenvalue-minimisations  :     0
 total energy-change (2. order) :-0.8865337E-01  (-0.3499570E-01)
 number of electron     216.0000000 magnetization 
 augmentation part       -0.5043084 magnetization 

 Free energy of the ion-electron system (eV)
  ---------------------------------------------------
  alpha Z        PSCENC =        59.93625244
  Ewald energy   TEWEN  =     32604.61742785
  -Hartree energ DENC   =    -39660.98502810
  -exchange      EXHF   =         0.00000000
  -V(xc)+E(xc)   XCENC  =       648.97210791
  PAW double counting   =    148726.56490158  -148586.24587733
  entropy T*S    EENTRO =        -0.00000000
  eigenvalues    EBANDS =     -2688.24925732
  atomic energy  EATOM  =      8369.52358910
  ---------------------------------------------------
  free energy    TOTEN  =      -525.86588388 eV

  energy without entropy =     -525.86588388  energy(sigma->0) =     -525.86588388


--------------------------------------------------------------------------------------------------------




--------------------------------------- Iteration      1(  12)  ---------------------------------------


    POTLOK:  cpu time    6.1456: real time    6.1829
    SETDIJ:  cpu time    0.1789: real time    0.1796
    TRIAL :  cpu time   15.4709: real time   15.6005
    CORREC:  cpu time   11.7643: real time   11.8538
    CHARGE:  cpu time    2.2861: real time    2.3018
    --------------------------------------------
      LOOP:  cpu time   35.8878: real time   36.1619

 eigenvalue-minimisations  :     0
 total energy-change (2. order) :-0.3492219E-01  (-0.1110241E-01)
 number of electron     216.0000000 magnetization 
 augmentation part       -0.5042450 magnetization 

 Free energy of the ion-electron system (eV)
  ---------------------------------------------------
  alpha Z        PSCENC =        59.93625244
  Ewald energy   TEWEN  =     32604.61742785
  -Hartree energ DENC   =    -39656.35701163
  -exchange      EXHF   =         0.00000000
  -V(xc)+E(xc)   XCENC  =       648.87267078
  PAW double counting   =    147941.05138682  -147800.76043365
  entropy T*S    EENTRO =        -0.00000000
  eigenvalues    EBANDS =     -2692.78468778
  atomic energy  EATOM  =      8369.52358910
  ---------------------------------------------------
  free energy    TOTEN  =      -525.90080607 eV

  energy without entropy =     -525.90080607  energy(sigma->0) =     -525.90080607


--------------------------------------------------------------------------------------------------------




--------------------------------------- Iteration      1(  13)  ---------------------------------------


    POTLOK:  cpu time    6.1277: real time    6.1759
    SETDIJ:  cpu time    0.2160: real time    0.2167
    TRIAL :  cpu time   15.4862: real time   15.6145
    CORREC:  cpu time   11.7524: real time   11.8485
    CHARGE:  cpu time    2.2825: real time    2.3001
    --------------------------------------------
      LOOP:  cpu time   35.9057: real time   36.1971

 eigenvalue-minimisations  :     0
 total energy-change (2. order) :-0.1109560E-01  (-0.3112520E-02)
 number of electron     216.0000000 magnetization 
 augmentation part       -0.5049455 magnetization 

 Free energy of the ion-electron system (eV)
  ---------------------------------------------------
  alpha Z        PSCENC =        59.93625244
  Ewald energy   TEWEN  =     32604.61742785
  -Hartree energ DENC   =    -39654.91925995
  -exchange      EXHF   =         0.00000000
  -V(xc)+E(xc)   XCENC  =       648.82412695
  PAW double counting   =    147371.11186156  -147230.83463805
  entropy T*S    EENTRO =        -0.00000000
  eigenvalues    EBANDS =     -2694.17126157
  atomic energy  EATOM  =      8369.52358910
  ---------------------------------------------------
  free energy    TOTEN  =      -525.91190167 eV

  energy without entropy =     -525.91190167  energy(sigma->0) =     -525.91190167


--------------------------------------------------------------------------------------------------------




--------------------------------------- Iteration      1(  14)  ---------------------------------------


    POTLOK:  cpu time    6.1528: real time    6.1930
    SETDIJ:  cpu time    0.1668: real time    0.1673
    TRIAL :  cpu time   15.4579: real time   15.5983
    CORREC:  cpu time   11.7310: real time   11.8651
    CHARGE:  cpu time    2.2962: real time    2.3120
    --------------------------------------------
      LOOP:  cpu time   35.8572: real time   36.1930

 eigenvalue-minimisations  :     0
 total energy-change (2. order) :-0.3116812E-02  (-0.7931370E-03)
 number of electron     216.0000000 magnetization 
 augmentation part       -0.5052537 magnetization 

 Free energy of the ion-electron system (eV)
  ---------------------------------------------------
  alpha Z        PSCENC =        59.93625244
  Ewald energy   TEWEN  =     32604.61742785
  -Hartree energ DENC   =    -39654.98609491
  -exchange      EXHF   =         0.00000000
  -V(xc)+E(xc)   XCENC  =       648.82384184
  PAW double counting   =    147106.48034355  -146966.20928652
  entropy T*S    EENTRO =        -0.00000000
  eigenvalues    EBANDS =     -2694.10109184
  atomic energy  EATOM  =      8369.52358910
  ---------------------------------------------------
  free energy    TOTEN  =      -525.91501848 eV

  energy without entropy =     -525.91501848  energy(sigma->0) =     -525.91501848


--------------------------------------------------------------------------------------------------------




--------------------------------------- Iteration      1(  15)  ---------------------------------------


    POTLOK:  cpu time    6.1499: real time    6.1863
    SETDIJ:  cpu time    0.2118: real time    0.2125
    TRIAL :  cpu time   15.4844: real time   15.6117
    CORREC:  cpu time   11.7602: real time   11.8483
    CHARGE:  cpu time    2.2742: real time    2.2983
    --------------------------------------------
      LOOP:  cpu time   35.9299: real time   36.2084

 eigenvalue-minimisations  :     0
 total energy-change (2. order) :-0.7986011E-03  (-0.2287049E-03)
 number of electron     216.0000000 magnetization 
 augmentation part       -0.5054041 magnetization 

 Free energy of the ion-electron system (eV)
  ---------------------------------------------------
  alpha Z        PSCENC =        59.93625244
  Ewald energy   TEWEN  =     32604.61742785
  -Hartree energ DENC   =    -39654.92264171
  -exchange      EXHF   =         0.00000000
  -V(xc)+E(xc)   XCENC  =       648.82545094
  PAW double counting   =    147006.58499584  -146866.31640508
  entropy T*S    EENTRO =        -0.00000000
  eigenvalues    EBANDS =     -2694.16448646
  atomic energy  EATOM  =      8369.52358910
  ---------------------------------------------------
  free energy    TOTEN  =      -525.91581708 eV

  energy without entropy =     -525.91581708  energy(sigma->0) =     -525.91581708


--------------------------------------------------------------------------------------------------------




--------------------------------------- Iteration      1(  16)  ---------------------------------------


    POTLOK:  cpu time    6.1344: real time    6.1736
    SETDIJ:  cpu time    0.1946: real time    0.1952
    TRIAL :  cpu time   15.4790: real time   15.5942
    CORREC:  cpu time   11.7665: real time   11.8600
    CHARGE:  cpu time    2.2780: real time    2.2942
    --------------------------------------------
      LOOP:  cpu time   35.8898: real time   36.1580

 eigenvalue-minimisations  :     0
 total energy-change (2. order) :-0.2320278E-03  (-0.9326869E-04)
 number of electron     216.0000000 magnetization 
 augmentation part       -0.5054644 magnetization 

 Free energy of the ion-electron system (eV)
  ---------------------------------------------------
  alpha Z        PSCENC =        59.93625244
  Ewald energy   TEWEN  =     32604.61742785
  -Hartree energ DENC   =    -39654.83993100
  -exchange      EXHF   =         0.00000000
  -V(xc)+E(xc)   XCENC  =       648.82452262
  PAW double counting   =    146949.75557149  -146809.48747493
  entropy T*S    EENTRO =        -0.00000000
  eigenvalues    EBANDS =     -2694.24600669
  atomic energy  EATOM  =      8369.52358910
  ---------------------------------------------------
  free energy    TOTEN  =      -525.91604911 eV

  energy without entropy =     -525.91604911  energy(sigma->0) =     -525.91604911


--------------------------------------------------------------------------------------------------------




--------------------------------------- Iteration      1(  17)  ---------------------------------------


    POTLOK:  cpu time    6.1500: real time    6.1874
    SETDIJ:  cpu time    0.1921: real time    0.1927
    TRIAL :  cpu time   15.4847: real time   15.6021
    CORREC:  cpu time   11.7718: real time   11.8525
    CHARGE:  cpu time    2.2847: real time    2.3037
    --------------------------------------------
      LOOP:  cpu time   35.9219: real time   36.1793

 eigenvalue-minimisations  :     0
 total energy-change (2. order) :-0.9009088E-04  (-0.4079094E-04)
 number of electron     216.0000000 magnetization 
 augmentation part       -0.5055012 magnetization 

 Free energy of the ion-electron system (eV)
  ---------------------------------------------------
  alpha Z        PSCENC =        59.93625244
  Ewald energy   TEWEN  =     32604.61742785
  -Hartree energ DENC   =    -39654.99069213
  -exchange      EXHF   =         0.00000000
  -V(xc)+E(xc)   XCENC  =       648.83323748
  PAW double counting   =    146901.94577639  -146761.67848472
  entropy T*S    EENTRO =        -0.00000000
  eigenvalues    EBANDS =     -2694.10324562
  atomic energy  EATOM  =      8369.52358910
  ---------------------------------------------------
  free energy    TOTEN  =      -525.91613920 eV

  energy without entropy =     -525.91613920  energy(sigma->0) =     -525.91613920


--------------------------------------------------------------------------------------------------------




--------------------------------------- Iteration      1(  18)  ---------------------------------------


    POTLOK:  cpu time    6.1316: real time    6.1809
    SETDIJ:  cpu time    0.1840: real time    0.1846
    TRIAL :  cpu time   15.4580: real time   15.6124
    CORREC:  cpu time   11.7703: real time   11.8509
    CHARGE:  cpu time    2.2785: real time    2.3027
    --------------------------------------------
      LOOP:  cpu time   35.8306: real time   36.1690

 eigenvalue-minimisations  :     0
 total energy-change (2. order) :-0.3918543E-04  (-0.1619383E-04)
 number of electron     216.0000000 magnetization 
 augmentation part       -0.5055411 magnetization 

 Free energy of the ion-electron system (eV)
  ---------------------------------------------------
  alpha Z        PSCENC =        59.93625244
  Ewald energy   TEWEN  =     32604.61742785
  -Hartree energ DENC   =    -39655.09105405
  -exchange      EXHF   =         0.00000000
  -V(xc)+E(xc)   XCENC  =       648.83783699
  PAW double counting   =    146883.00623157  -146742.73883044
  entropy T*S    EENTRO =        -0.00000000
  eigenvalues    EBANDS =     -2694.00763185
  atomic energy  EATOM  =      8369.52358910
  ---------------------------------------------------
  free energy    TOTEN  =      -525.91617839 eV

  energy without entropy =     -525.91617839  energy(sigma->0) =     -525.91617839


--------------------------------------------------------------------------------------------------------




--------------------------------------- Iteration      1(  19)  ---------------------------------------


    POTLOK:  cpu time    6.1815: real time    6.2281
    SETDIJ:  cpu time    0.1392: real time    0.1400
    TRIAL :  cpu time   15.4614: real time   15.5976
    CORREC:  cpu time   11.7733: real time   11.8501
    CHARGE:  cpu time    2.2836: real time    2.2996
    --------------------------------------------
      LOOP:  cpu time   35.8814: real time   36.1968

 eigenvalue-minimisations  :     0
 total energy-change (2. order) :-0.1635836E-04  (-0.1154466E-04)
 number of electron     216.0000000 magnetization 
 augmentation part       -0.5055507 magnetization 

 Free energy of the ion-electron system (eV)
  ---------------------------------------------------
  alpha Z        PSCENC =        59.93625244
  Ewald energy   TEWEN  =     32604.61742785
  -Hartree energ DENC   =    -39655.08782650
  -exchange      EXHF   =         0.00000000
  -V(xc)+E(xc)   XCENC  =       648.83677768
  PAW double counting   =    146890.59482352  -146750.32674057
  entropy T*S    EENTRO =        -0.00000000
  eigenvalues    EBANDS =     -2694.01049828
  atomic energy  EATOM  =      8369.52358910
  ---------------------------------------------------
  free energy    TOTEN  =      -525.91619475 eV

  energy without entropy =     -525.91619475  energy(sigma->0) =     -525.91619475


--------------------------------------------------------------------------------------------------------




--------------------------------------- Iteration      1(  20)  ---------------------------------------


    POTLOK:  cpu time    6.1397: real time    6.1770
    SETDIJ:  cpu time    0.1902: real time    0.1909
    TRIAL :  cpu time   15.4849: real time   15.6059
    CORREC:  cpu time   11.7732: real time   11.8605
    CHARGE:  cpu time    2.2744: real time    2.3019
    --------------------------------------------
      LOOP:  cpu time   35.9284: real time   36.2052

 eigenvalue-minimisations  :     0
 total energy-change (2. order) :-0.6746850E-05  (-0.4351396E-05)
 number of electron     216.0000000 magnetization 
 augmentation part       -0.5055475 magnetization 

 Free energy of the ion-electron system (eV)
  ---------------------------------------------------
  alpha Z        PSCENC =        59.93625244
  Ewald energy   TEWEN  =     32604.61742785
  -Hartree energ DENC   =    -39655.11999054
  -exchange      EXHF   =         0.00000000
  -V(xc)+E(xc)   XCENC  =       648.83737262
  PAW double counting   =    146912.26784600  -146771.99946478
  entropy T*S    EENTRO =        -0.00000000
  eigenvalues    EBANDS =     -2693.97923419
  atomic energy  EATOM  =      8369.52358910
  ---------------------------------------------------
  free energy    TOTEN  =      -525.91620149 eV

  energy without entropy =     -525.91620149  energy(sigma->0) =     -525.91620149


--------------------------------------------------------------------------------------------------------




--------------------------------------- Iteration      1(  21)  ---------------------------------------


    POTLOK:  cpu time    6.1457: real time    6.1874
    SETDIJ:  cpu time    0.1832: real time    0.1842
    TRIAL :  cpu time   15.4584: real time   15.6087
    CORREC:  cpu time   11.7404: real time   11.8317
    CHARGE:  cpu time    2.2811: real time    2.3016
    --------------------------------------------
      LOOP:  cpu time   35.8327: real time   36.1412

 eigenvalue-minimisations  :     0
 total energy-change (2. order) :-0.4162022E-05  (-0.7879253E-06)
 number of electron     216.0000000 magnetization 
 augmentation part       -0.5055347 magnetization 

 Free energy of the ion-electron system (eV)
  ---------------------------------------------------
  alpha Z        PSCENC =        59.93625244
  Ewald energy   TEWEN  =     32604.61742785
  -Hartree energ DENC   =    -39655.10580094
  -exchange      EXHF   =         0.00000000
  -V(xc)+E(xc)   XCENC  =       648.83649266
  PAW double counting   =    146911.70079744  -146771.43241131
  entropy T*S    EENTRO =        -0.00000000
  eigenvalues    EBANDS =     -2693.99255289
  atomic energy  EATOM  =      8369.52358910
  ---------------------------------------------------
  free energy    TOTEN  =      -525.91620566 eV

  energy without entropy =     -525.91620566  energy(sigma->0) =     -525.91620566


--------------------------------------------------------------------------------------------------------




--------------------------------------- Iteration      1(  22)  ---------------------------------------


    POTLOK:  cpu time    6.1409: real time    6.1843
    SETDIJ:  cpu time    0.1777: real time    0.1783
    TRIAL :  cpu time   15.4777: real time   15.6196
    CORREC:  cpu time   11.7540: real time   11.8465
    CHARGE:  cpu time    2.2928: real time    2.3121
    --------------------------------------------
      LOOP:  cpu time   35.8670: real time   36.1743

 eigenvalue-minimisations  :     0
 total energy-change (2. order) :-0.7835333E-06  (-0.1836725E-06)
 number of electron     216.0000000 magnetization 
 augmentation part       -0.5055290 magnetization 

 Free energy of the ion-electron system (eV)
  ---------------------------------------------------
  alpha Z        PSCENC =        59.93625244
  Ewald energy   TEWEN  =     32604.61742785
  -Hartree energ DENC   =    -39655.10427235
  -exchange      EXHF   =         0.00000000
  -V(xc)+E(xc)   XCENC  =       648.83651255
  PAW double counting   =    146911.53073859  -146771.26247888
  entropy T*S    EENTRO =        -0.00000000
  eigenvalues    EBANDS =     -2693.99397574
  atomic energy  EATOM  =      8369.52358910
  ---------------------------------------------------
  free energy    TOTEN  =      -525.91620644 eV

  energy without entropy =     -525.91620644  energy(sigma->0) =     -525.91620644


--------------------------------------------------------------------------------------------------------




--------------------------------------- Iteration      1(  23)  ---------------------------------------


    POTLOK:  cpu time    6.1454: real time    6.1855
    SETDIJ:  cpu time    0.1763: real time    0.1769
    TRIAL :  cpu time   15.4882: real time   15.6042
    CORREC:  cpu time   11.7523: real time   11.8423
    CHARGE:  cpu time    2.2922: real time    2.3138
    --------------------------------------------
      LOOP:  cpu time   35.8954: real time   36.1667

 eigenvalue-minimisations  :     0
 total energy-change (2. order) :-0.1182489E-06  (-0.5047605E-07)
 number of electron     216.0000000 magnetization 
 augmentation part       -0.5055283 magnetization 

 Free energy of the ion-electron system (eV)
  ---------------------------------------------------
  alpha Z        PSCENC =        59.93625244
  Ewald energy   TEWEN  =     32604.61742785
  -Hartree energ DENC   =    -39655.10111384
  -exchange      EXHF   =         0.00000000
  -V(xc)+E(xc)   XCENC  =       648.83641100
  PAW double counting   =    146911.87474930  -146771.60653795
  entropy T*S    EENTRO =        -0.00000000
  eigenvalues    EBANDS =     -2693.99698446
  atomic energy  EATOM  =      8369.52358910
  ---------------------------------------------------
  free energy    TOTEN  =      -525.91620656 eV

  energy without entropy =     -525.91620656  energy(sigma->0) =     -525.91620656


--------------------------------------------------------------------------------------------------------




--------------------------------------- Iteration      1(  24)  ---------------------------------------


    POTLOK:  cpu time    6.1479: real time    6.1954
    SETDIJ:  cpu time    0.1799: real time    0.1805
    TRIAL :  cpu time   15.4612: real time   15.6282
    CORREC:  cpu time   11.7638: real time   11.8763
    EDDIAG:  cpu time    3.2048: real time    3.2297
    CHARGE:  cpu time    2.2868: real time    2.3025
    --------------------------------------------
      LOOP:  cpu time   39.0871: real time   39.4567

 eigenvalue-minimisations  :     0
 total energy-change (2. order) : 0.4831236E-08  (-0.3595288E-07)
 number of electron     216.0000000 magnetization 
 augmentation part       -0.5055273 magnetization 

 Free energy of the ion-electron system (eV)
  ---------------------------------------------------
  alpha Z        PSCENC =        59.93625244
  Ewald energy   TEWEN  =     32604.61742785
  -Hartree energ DENC   =    -39655.09909391
  -exchange      EXHF   =         0.00000000
  -V(xc)+E(xc)   XCENC  =       648.83632017
  PAW double counting   =    146912.18974415  -146771.92153434
  entropy T*S    EENTRO =        -0.00000000
  eigenvalues    EBANDS =     -2693.99891202
  atomic energy  EATOM  =      8369.52358910
  ---------------------------------------------------
  free energy    TOTEN  =      -525.91620655 eV

  energy without entropy =     -525.91620655  energy(sigma->0) =     -525.91620655


--------------------------------------------------------------------------------------------------------


  average scaling for gradient   1.0270


 average (electrostatic) potential at core
  the test charge radii are     0.5770  0.5955
  (the norm of the test charge is              1.0000)
       1 -87.7280       2 -87.7248       3 -87.7304       4 -87.7332       5 -87.7206
       6 -87.7176       7 -87.7285       8 -87.7214       9 -87.7221      10 -87.7273
      11 -87.7170      12 -87.7196      13 -87.7262      14 -87.7182      15 -87.7162
      16 -87.7196      17 -87.7218      18 -87.7255      19 -87.7242      20 -87.7209
      21 -87.7184      22 -87.7143      23 -87.7333      24 -87.7313      25 -87.7187
      26 -87.7191      27 -87.7193      28 -87.7263      29 -87.7195      30 -87.7153
      31 -87.7267      32 -87.7248      33 -87.7217      34 -87.7203      35 -87.7160
      36 -87.7206      37 -87.7189      38 -87.7244      39 -87.7243      40 -87.7257
      41 -87.7269      42 -87.7286      43 -87.7233      44 -87.7269      45 -87.7186
      46 -87.7182      47 -87.7205      48 -87.7185      49 -87.7254      50 -87.7243
      51 -91.7887      52-123.9192      53-123.9213
 
 
 
 E-fermi :  -4.0482     XC(G=0):  -2.3508     alpha+bet : -2.1113

 Fermi energy:        -4.0482421265

 k-point     1 :       0.0000    0.0000    0.0000
  band No.  band energies     occupation 
      1     -28.8487      2.00000
      2     -27.8225      2.00000
      3     -23.2326      2.00000
      4     -22.2492      2.00000
      5     -22.2480      2.00000
      6     -22.2459      2.00000
      7     -22.2450      2.00000
      8     -22.2433      2.00000
      9     -22.2430      2.00000
     10     -20.3140      2.00000
     11     -20.3139      2.00000
     12     -20.3138      2.00000
     13     -20.3132      2.00000
     14     -20.3131      2.00000
     15     -20.3128      2.00000
     16     -19.3784      2.00000
     17     -19.3782      2.00000
     18     -19.3778      2.00000
     19     -19.3776      2.00000
     20     -19.3774      2.00000
     21     -19.3770      2.00000
     22     -17.1576      2.00000
     23     -17.1575      2.00000
     24     -17.1567      2.00000
     25     -17.1561      2.00000
     26     -17.1542      2.00000
     27     -17.1540      2.00000
     28     -15.9987      2.00000
     29     -15.9985      2.00000
     30     -15.9981      2.00000
     31     -15.9980      2.00000
     32     -15.9972      2.00000
     33     -15.9971      2.00000
     34     -14.6059      2.00000
     35     -14.6058      2.00000
     36     -14.6055      2.00000
     37     -14.6049      2.00000
     38     -14.6048      2.00000
     39     -14.6037      2.00000
     40     -12.8015      2.00000
     41     -12.1465      2.00000
     42     -12.1463      2.00000
     43     -12.1458      2.00000
     44     -12.1458      2.00000
     45     -12.1450      2.00000
     46     -12.1448      2.00000
     47     -11.9298      2.00000
     48     -11.9298      2.00000
     49     -11.9284      2.00000
     50     -11.9283      2.00000
     51     -11.9266      2.00000
     52     -11.9263      2.00000
     53     -11.5245      2.00000
     54     -11.2706      2.00000
     55     -11.2685      2.00000
     56     -10.5977      2.00000
     57     -10.4830      2.00000
     58     -10.4828      2.00000
     59     -10.4816      2.00000
     60     -10.4813      2.00000
     61     -10.4810      2.00000
     62     -10.4809      2.00000
     63      -9.4301      2.00000
     64      -9.4273      2.00000
     65      -9.4229      2.00000
     66      -9.4226      2.00000
     67      -9.4197      2.00000
     68      -9.4196      2.00000
     69      -9.1820      2.00000
     70      -9.1814      2.00000
     71      -9.1812      2.00000
     72      -9.1810      2.00000
     73      -9.1806      2.00000
     74      -9.1801      2.00000
     75      -9.1795      2.00000
     76      -9.1792      2.00000
     77      -9.1790      2.00000
     78      -9.1779      2.00000
     79      -9.1776      2.00000
     80      -9.1775      2.00000
     81      -7.6757      2.00000
     82      -7.6725      2.00000
     83      -7.4757      2.00000
     84      -7.4747      2.00000
     85      -7.4738      2.00000
     86      -7.4733      2.00000
     87      -7.4704      2.00000
     88      -7.4699      2.00000
     89      -7.1835      2.00000
     90      -7.1832      2.00000
     91      -7.1807      2.00000
     92      -7.1805      2.00000
     93      -7.1798      2.00000
     94      -7.1796      2.00000
     95      -6.2389      2.00000
     96      -6.2371      2.00000
     97      -6.2367      2.00000
     98      -6.2352      2.00000
     99      -6.2347      2.00000
    100      -6.2337      2.00000
    101      -5.9576      2.00000
    102      -5.9553      2.00000
    103      -4.1394      2.00000
    104      -4.1388      2.00000
    105      -4.1381      2.00000
    106      -4.1375      2.00000
    107      -4.1345      2.00000
    108      -4.1343      2.00000
    109      -1.1646      0.00000
    110      -1.1643      0.00000
    111      -1.1617      0.00000
    112      -1.1615      0.00000
    113      -1.1609      0.00000
    114      -1.1605      0.00000
    115       0.7986      0.00000
    116       0.8133      0.00000
    117       0.8151      0.00000
    118       0.8158      0.00000
    119       0.8176      0.00000
    120       0.8183      0.00000
    121       0.8214      0.00000
    122       1.4093      0.00000
    123       1.5892      0.00000
    124       1.5983      0.00000
    125       1.9362      0.00000
    126       2.0273      0.00000
    127       2.1931      0.00000
    128       2.2738      0.00000
    129       2.2773      0.00000
    130       2.2848      0.00000
    131       2.2956      0.00000
    132       2.6565      0.00000
    133       2.6951      0.00000
    134       2.6956      0.00000
    135       2.6979      0.00000
    136       2.6987      0.00000
    137       2.6989      0.00000
    138       2.6991      0.00000
    139       2.9177      0.00000
    140       2.9587      0.00000
    141       3.0628      0.00000
    142       3.0725      0.00000
    143       3.0789      0.00000
    144       3.1023      0.00000
    145       3.2238      0.00000
    146       3.2314      0.00000
    147       3.2693      0.00000
    148       3.2957      0.00000
    149       3.3040      0.00000
    150       3.3252      0.00000
    151       3.3611      0.00000
    152       4.4166      0.00000
    153       4.5377      0.00000
    154       4.6824      0.00000
    155       4.7528      0.00000
    156       4.8147      0.00000
    157       5.2564      0.00000
    158       5.2661      0.00000
    159       5.2757      0.00000
    160       5.2960      0.00000
    161       5.2975      0.00000
    162       5.3013      0.00000
    163       5.3019      0.00000
    164       5.3078      0.00000
    165       5.3620      0.00000
    166       5.5100      0.00000
    167       5.5296      0.00000
    168       5.6222      0.00000


--------------------------------------------------------------------------------------------------------


 soft charge-density along one line, spin component           1
         0         1         2         3         4         5         6         7         8         9
 total charge-density along one line
 
 pseudopotential strength for first ion, spin component:           1
 12.630  21.251  -0.000   0.000   0.000  -0.000   0.000   0.000
 21.251  35.755  -0.000   0.000   0.000  -0.000   0.000   0.000
 -0.000  -0.000  -3.234   0.000   0.000  -5.794   0.000   0.000
  0.000   0.000   0.000  -3.238   0.000   0.000  -5.800   0.000
  0.000   0.000   0.000   0.000  -3.234   0.000   0.000  -5.794
 -0.000  -0.000  -5.794   0.000   0.000 -10.358   0.000   0.000
  0.000   0.000   0.000  -5.800   0.000   0.000 -10.368   0.000
  0.000   0.000   0.000   0.000  -5.794   0.000   0.000 -10.358
 total augmentation occupancy for first ion, spin component:           1
  9.643  -3.599   0.000  -0.002  -0.000  -0.000   0.001   0.000
 -3.599   1.374  -0.000   0.001   0.000   0.000  -0.000  -0.000
  0.000  -0.000   8.197  -0.009   0.001  -2.896   0.004  -0.000
 -0.002   0.001  -0.009   3.782  -0.000   0.004  -1.106   0.000
 -0.000   0.000   0.001  -0.000   8.196  -0.000   0.000  -2.895
 -0.000   0.000  -2.896   0.004  -0.000   1.036  -0.001   0.000
  0.001  -0.000   0.004  -1.106   0.000  -0.001   0.329   0.000
  0.000  -0.000  -0.000   0.000  -2.895   0.000   0.000   1.035


------------------------ aborting loop because EDIFF is reached ----------------------------------------


    FORLOC:  cpu time    0.1051: real time    0.1059
    FORNL :  cpu time    2.9113: real time    2.9339
    FORCOR:  cpu time    6.1938: real time    6.2315
    OFIELD:  cpu time    0.0025: real time    0.0025

 VOLUME and BASIS-vectors are now :
 -----------------------------------------------------------------------------
  energy-cutoff  :     1000.00
  volume of cell :     2631.08
      direct lattice vectors                 reciprocal lattice vectors
    12.325000000  0.000000000  0.000000000     0.081135903  0.046843835  0.000000000
    -6.162500000 10.673763102  0.000000000     0.000000000  0.093687670  0.000000000
     0.000000000  0.000000000 20.000000000     0.000000000  0.000000000  0.050000000

  length of vectors
    12.325000000 12.325000000 20.000000000     0.093687670  0.093687670  0.050000000


 FORCES acting on ions:
    Electron-Ion                     Ewald-Force                    Non-Local-Force
 -----------------------------------------------------------------------------------------------
   0.593E+01 0.515E+01 0.211E+02   -.593E+01 -.515E+01 -.211E+02   0.158E-02 0.466E-02 0.833E-02
   0.894E+01 0.434E+01 0.256E+02   -.895E+01 -.435E+01 -.256E+02   0.635E-02 0.865E-02 -.676E-02
   0.399E+01 0.106E+02 0.294E+02   -.400E+01 -.106E+02 -.294E+02   0.871E-02 0.305E-01 0.101E-01
   0.555E+01 0.805E+01 0.401E+02   -.557E+01 -.806E+01 -.401E+02   0.301E-01 0.206E-01 0.163E-01
   0.635E+01 0.149E+01 0.213E+02   -.635E+01 -.149E+01 -.213E+02   -.775E-02 0.375E-02 -.433E-03
   0.655E+01 -.124E+01 0.216E+02   -.655E+01 0.123E+01 -.216E+02   -.128E-01 0.117E-01 -.104E-01
   0.102E+02 0.380E+01 0.365E+02   -.103E+02 -.380E+01 -.365E+02   0.288E-01 -.127E-01 0.422E-02
   0.990E+01 -.352E+01 0.380E+02   -.993E+01 0.353E+01 -.380E+02   0.773E-02 -.166E-02 -.110E-01
   -.468E+01 0.952E+01 0.296E+02   0.469E+01 -.954E+01 -.296E+02   0.725E-02 0.320E-03 -.108E-01
   -.745E+01 0.626E+01 0.388E+02   0.747E+01 -.629E+01 -.388E+02   -.320E-01 0.358E-01 0.115E-01
   0.163E+01 -.154E+01 0.181E+02   -.162E+01 0.154E+01 -.181E+02   -.114E-02 -.280E-02 -.259E-02
   0.135E+01 -.112E+01 0.171E+02   -.136E+01 0.113E+01 -.171E+02   -.370E-02 -.528E-02 0.475E-02
   0.396E+01 -.863E+01 0.416E+02   -.399E+01 0.864E+01 -.416E+02   0.485E-01 -.113E-01 0.674E-02
   0.212E+01 -.106E+02 0.303E+02   -.213E+01 0.106E+02 -.303E+02   0.118E-01 -.129E-02 -.191E-01
   -.569E+01 0.353E+01 0.207E+02   0.569E+01 -.353E+01 -.207E+02   0.765E-02 -.124E-02 0.135E-02
   -.798E+01 0.234E+01 0.230E+02   0.799E+01 -.234E+01 -.230E+02   -.687E-02 0.114E-01 -.169E-01
   -.962E+00 -.370E+00 0.165E+02   0.966E+00 0.379E+00 -.165E+02   0.192E-02 -.164E-01 0.243E-02
   0.465E+00 0.341E+01 0.173E+02   -.468E+00 -.340E+01 -.173E+02   0.324E-02 -.102E-01 0.102E-01
   -.157E+01 -.957E+01 0.250E+02   0.156E+01 0.958E+01 -.250E+02   0.592E-02 -.154E-01 0.215E-02
   -.768E+00 -.514E+01 0.189E+02   0.772E+00 0.515E+01 -.189E+02   -.114E-01 -.134E-01 0.532E-03
   0.899E+01 -.396E+01 0.271E+02   -.899E+01 0.396E+01 -.271E+02   0.629E-03 0.264E-02 -.323E-01
   0.579E+01 -.488E+01 0.228E+02   -.579E+01 0.488E+01 -.228E+02   -.474E-02 0.794E-02 -.779E-02
   -.192E+01 0.377E+01 0.467E+02   0.192E+01 -.379E+01 -.467E+02   -.902E-02 0.307E-01 0.487E-01
   -.274E+01 -.594E+01 0.455E+02   0.273E+01 0.595E+01 -.455E+02   0.221E-01 -.188E-01 0.303E-01
   0.293E+01 -.121E+01 0.182E+02   -.292E+01 0.121E+01 -.182E+02   0.629E-02 -.870E-02 -.883E-02
   0.604E+00 0.260E+01 0.183E+02   -.611E+00 -.259E+01 -.183E+02   0.624E-02 -.256E-02 0.405E-02
   -.108E+02 0.144E+01 0.317E+02   0.108E+02 -.145E+01 -.317E+02   0.606E-02 0.190E-01 -.225E-02
   -.102E+02 -.413E+01 0.298E+02   0.102E+02 0.413E+01 -.298E+02   -.215E-01 0.135E-01 0.471E-02
   0.347E+01 -.699E+01 0.237E+02   -.348E+01 0.699E+01 -.236E+02   0.105E-01 0.699E-03 -.184E-01
   0.313E+00 -.283E+01 0.192E+02   -.318E+00 0.283E+01 -.192E+02   -.289E-02 0.641E-04 -.282E-02
   -.775E+01 -.818E+01 0.347E+02   0.777E+01 0.819E+01 -.347E+02   -.235E-01 -.170E-01 0.888E-02
   -.500E+01 -.920E+01 0.261E+02   0.501E+01 0.922E+01 -.261E+02   -.697E-02 -.226E-01 0.109E-01
   0.386E+00 0.148E+01 0.170E+02   -.378E+00 -.148E+01 -.170E+02   -.938E-02 -.186E-02 0.678E-02
   0.999E+00 0.147E+01 0.180E+02   -.995E+00 -.147E+01 -.180E+02   -.137E-01 0.111E-01 -.447E-02
   -.399E+01 0.578E+00 0.193E+02   0.400E+01 -.585E+00 -.193E+02   -.395E-02 0.417E-02 0.574E-02
   -.350E+01 -.145E+01 0.189E+02   0.351E+01 0.144E+01 -.189E+02   -.938E-02 0.431E-02 -.101E-02
   -.691E+01 -.358E+01 0.214E+02   0.692E+01 0.358E+01 -.214E+02   -.962E-02 -.839E-02 0.739E-02
   -.425E+01 -.340E+01 0.186E+02   0.425E+01 0.341E+01 -.186E+02   -.805E-02 -.142E-01 0.112E-01
   -.391E+01 -.506E+01 0.197E+02   0.392E+01 0.508E+01 -.197E+02   -.129E-01 -.212E-01 0.916E-02
   -.584E+00 -.126E+01 0.174E+02   0.590E+00 0.127E+01 -.174E+02   -.545E-02 -.149E-01 0.934E-02
   0.147E+01 0.362E+01 0.179E+02   -.147E+01 -.362E+01 -.180E+02   -.385E-02 -.506E-02 0.839E-02
   0.465E+01 0.729E+01 0.221E+02   -.466E+01 -.730E+01 -.221E+02   0.512E-02 0.478E-02 0.115E-01
   0.386E+00 0.621E+01 0.194E+02   -.388E+00 -.621E+01 -.194E+02   0.109E-01 -.205E-02 0.816E-03
   -.907E-01 0.103E+02 0.263E+02   0.917E-01 -.103E+02 -.263E+02   -.328E-03 0.944E-02 0.647E-02
   -.118E+01 0.229E+01 0.191E+02   0.118E+01 -.229E+01 -.191E+02   0.124E-01 -.462E-02 -.460E-02
   -.469E+01 0.584E+01 0.224E+02   0.469E+01 -.584E+01 -.224E+02   0.241E-03 0.164E-02 -.105E-01
   -.935E+00 -.252E+01 0.180E+02   0.938E+00 0.253E+01 -.180E+02   -.317E-03 -.447E-02 0.325E-02
   -.230E+01 0.899E+00 0.173E+02   0.230E+01 -.895E+00 -.173E+02   -.127E-01 0.112E-02 -.661E-02
   0.228E+00 -.157E+01 0.171E+02   -.222E+00 0.158E+01 -.171E+02   -.797E-02 -.123E-01 0.731E-02
   0.250E+01 0.180E+01 0.173E+02   -.250E+01 -.180E+01 -.173E+02   -.119E-01 0.171E-02 0.367E-02
   0.466E-01 -.319E-01 -.304E+03   -.428E-01 0.234E-01 0.304E+03   -.184E-01 0.188E-01 -.217E-01
   -.228E+03 0.155E+03 -.468E+03   0.279E+03 -.190E+03 0.472E+03   -.527E+02 0.358E+02 -.353E+01
   0.228E+03 -.155E+03 -.449E+03   -.279E+03 0.190E+03 0.446E+03   0.527E+02 -.358E+02 0.317E+01
 -----------------------------------------------------------------------------------------------
   -.957E-02 0.961E-02 0.340E+00   0.000E+00 0.568E-13 0.000E+00   -.124E-01 -.538E-03 -.288E+00
 
 
 POSITION                                       TOTAL-FORCE (eV/Angst)
 -----------------------------------------------------------------------------------
     11.98348      0.00342      0.01417        -0.006854      0.007281     -0.003806
     -0.34154      1.42665      0.01100        -0.015087      0.018205     -0.003902
      2.12355      0.00315      0.01249         0.010837      0.013422     -0.007713
      2.12326      1.42653      0.00641         0.022149      0.017021     -0.002812
     10.75099      2.13819      0.01213        -0.007369      0.017791     -0.000235
     -1.57382      3.56123      0.01110        -0.024128      0.014562     -0.001073
      0.89078      2.13854      0.00548         0.006437      0.013365      0.006051
      0.89099      3.56147      0.00181        -0.012492      0.011357      0.016101
      4.58864      0.00346      0.01135         0.027316     -0.018802     -0.002616
      4.58894      1.42623      0.00646         0.009442      0.024268      0.019102
      9.51854      4.27281      0.01369         0.017309      0.000653      0.000805
     -2.80632      5.69591      0.01434        -0.005572     -0.017728      0.000989
      2.12300      4.27302      0.00000         0.016302      0.018825      0.026372
      2.12335      5.69594      0.00581         0.003046      0.006556      0.001504
      7.05344      0.00333      0.01399         0.007491     -0.014580      0.000418
      7.05353      1.42635      0.01368        -0.002863      0.013512     -0.004412
      8.28610      6.40752      0.01601         0.019573     -0.021851     -0.001389
     -4.03885      7.83070      0.01636         0.008036     -0.019111     -0.001923
      3.35586      6.40753      0.01007        -0.016498     -0.011177     -0.001195
      3.35599      7.83072      0.01320        -0.018456     -0.007382     -0.000465
     -0.34146      4.27290      0.00723         0.001000      0.020119     -0.003207
     -0.34138      5.69591      0.00946        -0.011435      0.002608      0.002065
      3.35624      2.13791      0.00222        -0.001910      0.027591      0.027102
      3.35573      3.56155      0.00139         0.028811     -0.004014      0.018179
     -1.57395      6.40758      0.01311         0.026996     -0.015067     -0.000816
     -1.57385      7.83068      0.01438         0.010972     -0.002711      0.000045
      5.82093      2.13784      0.01033         0.021455      0.006127      0.001288
      5.82114      3.56097      0.01156         0.003582     -0.000457     -0.003989
      0.89092      6.40755      0.00907         0.003821     -0.000364     -0.002544
      0.89106      7.83068      0.01235        -0.007659      0.007884      0.003031
      4.58871      4.27293      0.00850        -0.018566     -0.000701     -0.006692
      4.58852      5.69606      0.01149         0.001177     -0.021031     -0.003306
      9.51845      0.00337      0.01490        -0.018190     -0.005927     -0.000585
      9.51855      1.42644      0.01438        -0.030794      0.021686     -0.000308
      8.28593      2.13803      0.01453         0.000955      0.000043      0.002526
      8.28613      3.56115      0.01464        -0.012317     -0.004042     -0.000995
      7.05356      4.27269      0.01457         0.005136     -0.008277      0.001463
      7.05362      5.69588      0.01553        -0.001615     -0.030132     -0.000569
      5.82112      6.40755      0.01489        -0.015163     -0.018150     -0.000894
      5.82102      7.83073      0.01579        -0.004986     -0.020151     -0.002011
      7.05363      8.54227      0.01631        -0.002847     -0.011516     -0.001172
     -5.27149      9.96549      0.01495         0.000565     -0.001631     -0.005084
     -2.80638      8.54234      0.01558         0.030035     -0.015965     -0.001866
     -2.80627      9.96553      0.01362         0.019701      0.004655     -0.005315
     -0.34149      8.54239      0.01378         0.023706     -0.015772     -0.000112
     -0.34138      9.96550      0.01354         0.011868      0.011655     -0.000796
      2.12343      8.54232      0.01336        -0.013323     -0.013797      0.000607
      2.12354      9.96544      0.01469        -0.025436      0.014805     -0.001787
      4.58846      8.54235      0.01505        -0.020630     -0.016653      0.000023
      4.58853      9.96550      0.01517        -0.025606      0.007678     -0.001211
      3.04930      2.68154      4.45449        -0.030905      0.019340      0.004601
      4.02070      2.02068      4.51892        -1.635815      1.092820     -0.128177
      2.07767      3.34267      4.39504         1.648800     -1.096840      0.070703
 -----------------------------------------------------------------------------------
    total drift:                               -0.021982      0.009072      0.052223


--------------------------------------------------------------------------------------------------------



  FREE ENERGIE OF THE ION-ELECTRON SYSTEM (eV)
  ---------------------------------------------------
  free  energy   TOTEN  =      -525.91620655 eV

  energy  without entropy=     -525.91620655  energy(sigma->0) =     -525.91620655
 


--------------------------------------------------------------------------------------------------------


    POTLOK:  cpu time    6.3430: real time    6.3832


--------------------------------------------------------------------------------------------------------


 writing wavefunctions
     LOOP+:  cpu time  857.0418: real time  864.6845
    4ORBIT:  cpu time    0.0000: real time    0.0000

 total amount of memory used by VASP MPI-rank0   556209. kBytes
=======================================================================

   base      :      30000. kBytes
   nonl-proj :     184518. kBytes
   fftplans  :      31725. kBytes
   grid      :     282516. kBytes
   one-center:        162. kBytes
   wavefun   :      27288. kBytes
 
  
  
 General timing and accounting informations for this job:
 ========================================================
  
                  Total CPU time used (sec):      892.585
                            User time (sec):      861.284
                          System time (sec):       31.300
                         Elapsed time (sec):      901.867
  
                   Maximum memory used (kb):     1194772.
                   Average memory used (kb):          N/A
  
                          Minor page faults:       413794
                          Major page faults:           96
                 Voluntary context switches:         3508
