 vasp.6.2.1 16May21 (build Nov 06 2021 14:46:37) complex                        
  
 executed on             LinuxIFC date 2025.03.03  17:54:36
 running on  112 total cores
 distrk:  each k-point on   56 cores,    2 groups
 distr:  one band on NCORE=   1 cores,   56 groups


--------------------------------------------------------------------------------------------------------


 INCAR:
   ALGO = Conjugate
   KPAR = 2
   NCORE = 32
   ISMEAR = 0
   SIGMA = 0.01
   PREC = Accurate
   EDIFF = 1E-7
   ENCUT = 1000
   ISIF = 0
   METAGGA = SCAN
   LUSE_VDW = .TRUE.
   BPARAM = 15.7
   LASPH = .TRUE.
   SYMPREC = 1E-7
   NELM = 200

 POTCAR:    PAW_PBE C_h 06Feb2004                 
 POTCAR:    PAW_PBE O_h 06Feb2004                 
 -----------------------------------------------------------------------------
|                                                                             |
|           W    W    AA    RRRRR   N    N  II  N    N   GGGG   !!!           |
|           W    W   A  A   R    R  NN   N  II  NN   N  G    G  !!!           |
|           W    W  A    A  R    R  N N  N  II  N N  N  G       !!!           |
|           W WW W  AAAAAA  RRRRR   N  N N  II  N  N N  G  GGG   !            |
|           WW  WW  A    A  R   R   N   NN  II  N   NN  G    G                |
|           W    W  A    A  R    R  N    N  II  N    N   GGGG   !!!           |
|                                                                             |
|     The value NCORE = 32 specified in the INCAR file was overwritten,       |
|     because it was not compatible with the 56 processes available:          |
|     NCORE = 1                                                               |
|     was used instead, please check that this makes sense for your           |
|     machine.                                                                |
|                                                                             |
 -----------------------------------------------------------------------------

 -----------------------------------------------------------------------------
|                                                                             |
|           W    W    AA    RRRRR   N    N  II  N    N   GGGG   !!!           |
|           W    W   A  A   R    R  NN   N  II  NN   N  G    G  !!!           |
|           W    W  A    A  R    R  N N  N  II  N N  N  G       !!!           |
|           W WW W  AAAAAA  RRRRR   N  N N  II  N  N N  G  GGG   !            |
|           WW  WW  A    A  R   R   N   NN  II  N   NN  G    G                |
|           W    W  A    A  R    R  N    N  II  N    N   GGGG   !!!           |
|                                                                             |
|     For optimal performance we recommend to set                             |
|       NCORE = 2 up to number-of-cores-per-socket                            |
|     NCORE specifies how many cores store one orbital (NPAR=cpu/NCORE).      |
|     This setting can greatly improve the performance of VASP for DFT.       |
|     The default, NCORE=1 might be grossly inefficient on modern             |
|     multi-core architectures or massively parallel machines. Do your        |
|     own testing! More info at https://www.vasp.at/wiki/index.php/NCORE      |
|     Unfortunately you need to use the default for GW and RPA                |
|     calculations (for HF NCORE is supported but not extensively tested      |
|     yet).                                                                   |
|                                                                             |
 -----------------------------------------------------------------------------

 -----------------------------------------------------------------------------
|                                                                             |
|               ----> ADVICE to this user running VASP <----                  |
|                                                                             |
|     You have switched on vdW-DFT.                                           |
|     This routine was written and supplied by Jiri Klimes. We recommend      |
|     that you carefully read and cite the following publications:            |
|       J. Klimes, D.R. Bowler, A. Michelides                                 |
|          J. Phys.: Cond Matt. 22 022201 (2010)                              |
|       J. Klimes, D.R. Bowler, A. Michelides                                 |
|          Phys. Rev. B. 83, 195131 (2011)                                    |
|     and references therein.                                                 |
|                                                                             |
 -----------------------------------------------------------------------------

 POTCAR:    PAW_PBE C_h 06Feb2004                 
   VRHFIN =C: s2p2                                                                                  
   LEXCH  = PE                                                                                      
   EATOM  =   147.1560 eV,   10.8157 Ry                                                             
                                                                                                    
   TITEL  = PAW_PBE C_h 06Feb2004                                                                   
   LULTRA =        F    use ultrasoft PP ?                                                          
   IUNSCR =        1    unscreen: 0-lin 1-nonlin 2-no                                               
   RPACOR =    0.800    partial core radius                                                         
   POMASS =   12.011; ZVAL   =    4.000    mass and valenz                                          
   RCORE  =    1.100    outmost cutoff radius                                                       
   RWIGS  =    1.630; RWIGS  =    0.863    wigner-seitz radius (au A)                               
   ENMAX  =  700.000; ENMIN  =  500.000 eV                                                          
   ICORE  =        2    local potential                                                             
   LCOR   =        T    correct aug charges                                                         
   LPAW   =        T    paw PP                                                                      
   EAUG   =  946.768                                                                                
   DEXC   =    0.000                                                                                
   RMAX   =    1.128    core radius for proj-oper                                                   
   RAUG   =    1.300    factor for augmentation sphere                                              
   RDEP   =    1.162    radius for radial grids                                                     
   RDEPT  =    1.088    core radius for aug-charge                                                  
                                                                                                    
   Atomic configuration                                                                             
    4 entries                                                                                       
     n  l   j            E        occ.                                                              
     1  0  0.50      -273.3789   2.0000                                                             
     2  0  0.50       -13.7508   2.0000                                                             
     2  1  0.50        -5.2854   2.0000                                                             
     3  2  1.50        -5.4423   0.0000                                                             
   Description                                                                                      
     l       E           TYP  RCUT    TYP  RCUT                                                     
     0    -13.7508458     23  1.100                                                                 
     0     -8.2022199     23  1.100                                                                 
     1     -5.2854383     23  1.100                                                                 
     1      1.1560700     23  1.100                                                                 
     2     -5.4423304      7  1.100                                                                 
  local pseudopotential read in
  partial core-charges read in
  partial kinetic energy density read in
  atomic valenz-charges read in
  non local Contribution for L=           0  read in
    real space projection operators read in
  non local Contribution for L=           0  read in
    real space projection operators read in
  non local Contribution for L=           1  read in
    real space projection operators read in
  non local Contribution for L=           1  read in
    real space projection operators read in
    PAW grid and wavefunctions read in
 
   number of l-projection  operators is LMAX  =           4
   number of lm-projection operators is LMMAX =           8
 
 POTCAR:    PAW_PBE O_h 06Feb2004                 
   VRHFIN =O: s2p4                                                                                  
   LEXCH  = PE                                                                                      
   EATOM  =   432.3788 eV,   31.7789 Ry                                                             
                                                                                                    
   TITEL  = PAW_PBE O_h 06Feb2004                                                                   
   LULTRA =        F    use ultrasoft PP ?                                                          
   IUNSCR =        1    unscreen: 0-lin 1-nonlin 2-no                                               
   RPACOR =    0.800    partial core radius                                                         
   POMASS =   16.000; ZVAL   =    6.000    mass and valenz                                          
   RCORE  =    1.100    outmost cutoff radius                                                       
   RWIGS  =    1.400; RWIGS  =    0.741    wigner-seitz radius (au A)                               
   ENMAX  =  700.000; ENMIN  =  500.000 eV                                                          
   ICORE  =        2    local potential                                                             
   LCOR   =        T    correct aug charges                                                         
   LPAW   =        T    paw PP                                                                      
   EAUG   =  888.804                                                                                
   DEXC   =    0.000                                                                                
   RMAX   =    1.128    core radius for proj-oper                                                   
   RAUG   =    1.300    factor for augmentation sphere                                              
   RDEP   =    1.125    radius for radial grids                                                     
   RDEPT  =    1.088    core radius for aug-charge                                                  
                                                                                                    
   Atomic configuration                                                                             
    4 entries                                                                                       
     n  l   j            E        occ.                                                              
     1  0  0.50      -514.6923   2.0000                                                             
     2  0  0.50       -23.9615   2.0000                                                             
     2  1  0.50        -9.0305   4.0000                                                             
     3  2  1.50        -9.5241   0.0000                                                             
   Description                                                                                      
     l       E           TYP  RCUT    TYP  RCUT                                                     
     0    -23.9615319     23  1.100                                                                 
     0    -25.3221145     23  1.100                                                                 
     1     -9.0304911     23  1.100                                                                 
     1     -5.4802209     23  1.100                                                                 
     2     -9.5240782      7  1.100                                                                 
  local pseudopotential read in
  partial core-charges read in
  partial kinetic energy density read in
  atomic valenz-charges read in
  non local Contribution for L=           0  read in
    real space projection operators read in
  non local Contribution for L=           0  read in
    real space projection operators read in
  non local Contribution for L=           1  read in
    real space projection operators read in
  non local Contribution for L=           1  read in
    real space projection operators read in
    PAW grid and wavefunctions read in
 
   number of l-projection  operators is LMAX  =           4
   number of lm-projection operators is LMMAX =           8
 
 -----------------------------------------------------------------------------
|                                                                             |
|               ----> ADVICE to this user running VASP <----                  |
|                                                                             |
|     You have a (more or less) 'large supercell' and for larger cells it     |
|     might be more efficient to use real-space projection operators.         |
|     Therefore, try LREAL= Auto in the INCAR file.                           |
|     Mind: For very accurate calculation, you might also keep the            |
|     reciprocal projection scheme (i.e. LREAL=.FALSE.).                      |
|                                                                             |
 -----------------------------------------------------------------------------

  PAW_PBE C_h 06Feb2004                 :
 energy of atom  1       EATOM= -147.1560
 kinetic energy error for atom=    0.0031 (will be added to EATOM!!)
  PAW_PBE O_h 06Feb2004                 :
 energy of atom  2       EATOM= -432.3788
 kinetic energy error for atom=    0.0171 (will be added to EATOM!!)
 
 
 POSCAR:  C  O
  positions in cartesian coordinates
  No initial velocities read in

 METAGGA = SCAN     LMAXTAU =  6    LMIXTAU =  F

 exchange correlation table for  LEXCH =        8
   RHO(1)=    0.500       N(1)  =     2000
   RHO(2)=  100.500       N(2)  =     4000
 


--------------------------------------------------------------------------------------------------------


 ion  position               nearest neighbor table
   1  0.972  0.000  0.001-  50 1.42   2 1.42  42 1.42
   2  0.039  0.134  0.001-   5 1.42   7 1.42   1 1.42
   3  0.172  0.000  0.001-  42 1.42  44 1.42   4 1.42
   4  0.239  0.134  0.000-   7 1.42   3 1.42  23 1.42
   5  0.972  0.200  0.001-   6 1.42   2 1.42  34 1.42
   6  0.039  0.334  0.001-   5 1.42  21 1.42  11 1.42
   7  0.172  0.200  0.000-   8 1.42   2 1.42   4 1.42
   8  0.239  0.334  0.000-  13 1.42   7 1.42  21 1.42
   9  0.372  0.000  0.001-  10 1.42  44 1.42  46 1.42
  10  0.439  0.134  0.000-  27 1.42   9 1.42  23 1.42
  11  0.972  0.400  0.001-  12 1.42  36 1.42   6 1.42
  12  0.039  0.534  0.001-  25 1.42  11 1.42  17 1.42
  13  0.372  0.400  0.000-   8 1.42  14 1.42  24 1.42
  14  0.439  0.534  0.000-  13 1.42  29 1.42  19 1.42
  15  0.572  0.000  0.001-  46 1.42  16 1.42  48 1.42
  16  0.639  0.134  0.001-  15 1.42  35 1.42  27 1.42
  17  0.972  0.600  0.001-  38 1.42  18 1.42  12 1.42
  18  0.039  0.734  0.001-  43 1.42  41 1.42  17 1.42
  19  0.572  0.600  0.001-  14 1.42  20 1.42  32 1.42
  20  0.639  0.734  0.001-  49 1.42  19 1.42  47 1.42
  21  0.172  0.400  0.000-  22 1.42   8 1.42   6 1.42
  22  0.239  0.534  0.000-  21 1.42  29 1.42  25 1.42
  23  0.372  0.200  0.000-  10 1.42   4 1.42  24 1.42
  24  0.439  0.334  0.000-  13 1.42  31 1.42  23 1.42
  25  0.172  0.600  0.001-  26 1.42  12 1.42  22 1.42
  26  0.239  0.734  0.001-  25 1.42  45 1.42  43 1.42
  27  0.572  0.200  0.001-  10 1.42  28 1.42  16 1.42
  28  0.639  0.334  0.001-  27 1.42  37 1.42  31 1.42
  29  0.372  0.600  0.000-  22 1.42  14 1.42  30 1.42
  30  0.439  0.734  0.001-  47 1.42  29 1.42  45 1.42
  31  0.572  0.400  0.000-  32 1.42  28 1.42  24 1.42
  32  0.639  0.534  0.001-  31 1.42  39 1.42  19 1.42
  33  0.772  0.000  0.001-  34 1.42  48 1.42  50 1.42
  34  0.839  0.134  0.001-  33 1.42   5 1.42  35 1.42
  35  0.772  0.200  0.001-  36 1.42  16 1.42  34 1.42
  36  0.839  0.334  0.001-  35 1.42  11 1.42  37 1.42
  37  0.772  0.400  0.001-  28 1.42  38 1.42  36 1.42
  38  0.839  0.534  0.001-  17 1.42  37 1.42  39 1.42
  39  0.772  0.600  0.001-  40 1.42  38 1.42  32 1.42
  40  0.839  0.734  0.001-  39 1.42  49 1.42  41 1.42
  41  0.972  0.800  0.001-  18 1.42  42 1.42  40 1.42
  42  0.039  0.934  0.001-   3 1.42  41 1.42   1 1.42
  43  0.172  0.800  0.001-  18 1.42  44 1.42  26 1.42
  44  0.239  0.934  0.001-   9 1.42  43 1.42   3 1.42
  45  0.372  0.800  0.001-  26 1.42  46 1.42  30 1.42
  46  0.439  0.934  0.001-  15 1.42  45 1.42   9 1.42
  47  0.572  0.800  0.001-  30 1.42  48 1.42  20 1.42
  48  0.639  0.934  0.001-  47 1.42  33 1.42  15 1.42
  49  0.772  0.800  0.001-  50 1.42  20 1.42  40 1.42
  50  0.839  0.934  0.001-  49 1.42   1 1.42  33 1.42
  51  0.373  0.251  0.140-  52 1.18  53 1.18
  52  0.421  0.189  0.144-  51 1.18
  53  0.325  0.313  0.137-  51 1.18
 
  LATTYP: Found a hexagonal cell.
 ALAT       =    12.3250000000
 C/A-ratio  =     1.6227180527
  
  Lattice vectors:
  
 A1 = (  12.3250000000,   0.0000000000,   0.0000000000)
 A2 = (  -6.1625000000,  10.6737631016,   0.0000000000)
 A3 = (   0.0000000000,   0.0000000000,  20.0000000000)


Analysis of symmetry for initial positions (statically):
=====================================================================
 Subroutine PRICEL returns:
 Original cell was already a primitive cell.
 

 Routine SETGRP: Setting up the symmetry group for a 
 hexagonal supercell.


 Subroutine GETGRP returns: Found  1 space group operations
 (whereof  1 operations were pure point group operations)
 out of a pool of 24 trial point group operations.


The static configuration has the point symmetry C_1 .


Analysis of symmetry for dynamics (positions and initial velocities):
=====================================================================
 Subroutine PRICEL returns:
 Original cell was already a primitive cell.
 

 Routine SETGRP: Setting up the symmetry group for a 
 hexagonal supercell.


 Subroutine GETGRP returns: Found  1 space group operations
 (whereof  1 operations were pure point group operations)
 out of a pool of 24 trial point group operations.


The dynamic configuration has the point symmetry C_1 .


 Subroutine INISYM returns: Found  1 space group operations
 (whereof  1 operations are pure point group operations),
 and found     1 'primitive' translations


----------------------------------------------------------------------------------------

                                     Primitive cell                                     

  volume of cell :    2631.0826

  direct lattice vectors                    reciprocal lattice vectors
    12.325000000  0.000000000  0.000000000     0.081135903  0.046843835  0.000000000
    -6.162500000 10.673763102  0.000000000     0.000000000  0.093687670  0.000000000
     0.000000000  0.000000000 20.000000000     0.000000000  0.000000000  0.050000000

  length of vectors
    12.325000000 12.325000000 20.000000000     0.093687670  0.093687670  0.050000000

  position of ions in fractional coordinates (direct lattice)
     0.972450841  0.000320818  0.000708389
     0.039118382  0.133659505  0.000550216
     0.172443627  0.000295449  0.000624535
     0.239096278  0.133647917  0.000320585
     0.972452058  0.200322012  0.000606523
     0.039128360  0.333643771  0.000555187
     0.172451764  0.200354552  0.000273959
     0.239124359  0.333665720  0.000090325
     0.372465565  0.000324403  0.000567391
     0.439137473  0.133619939  0.000322923
     0.972449824  0.400309362  0.000684513
     0.039124981  0.533636789  0.000716763
     0.372416176  0.400329481  0.000000000
     0.439099602  0.533638981  0.000290518
     0.572443676  0.000312125  0.000699475
     0.639110207  0.133631751  0.000684093
     0.972452703  0.600305653  0.000800361
     0.039124495  0.733640359  0.000818141
     0.572433471  0.600306242  0.000503618
     0.639111888  0.733641879  0.000659881
     0.172454630  0.400318228  0.000361306
     0.239120185  0.533636548  0.000473136
     0.372459750  0.200295993  0.000111246
     0.439107096  0.333673419  0.000069702
     0.172452155  0.600311506  0.000655425
     0.239123371  0.733638574  0.000718912
     0.572431082  0.200289171  0.000516621
     0.639112773  0.333618630  0.000577970
     0.372439808  0.600308022  0.000453556
     0.439116090  0.733637858  0.000617737
     0.572469358  0.400320504  0.000424897
     0.639119408  0.533650873  0.000574513
     0.772445723  0.000315427  0.000745201
     0.839116277  0.133640203  0.000719132
     0.772440513  0.200307432  0.000726291
     0.839120241  0.333635728  0.000731834
     0.772446320  0.400298367  0.000728722
     0.839118980  0.533633964  0.000776376
     0.772456143  0.600308173  0.000744639
     0.839115033  0.733643180  0.000789390
     0.972455313  0.800305582  0.000815291
     0.039114714  0.933643289  0.000747563
     0.172457971  0.800312211  0.000779216
     0.239134551  0.933647193  0.000681063
     0.372451396  0.800316674  0.000689249
     0.439124489  0.933644769  0.000676788
     0.572441101  0.800310054  0.000668168
     0.639115067  0.933638985  0.000734556
     0.772445098  0.800313187  0.000752577
     0.839116614  0.933644338  0.000758538
     0.373021009  0.251226878  0.140307756
     0.420879805  0.189313152  0.143528849
     0.325156981  0.313167186  0.137335013

  ion indices of the primitive-cell ions
   primitive index   ion index
                 1           1
                 2           2
                 3           3
                 4           4
                 5           5
                 6           6
                 7           7
                 8           8
                 9           9
                10          10
                11          11
                12          12
                13          13
                14          14
                15          15
                16          16
                17          17
                18          18
                19          19
                20          20
                21          21
                22          22
                23          23
                24          24
                25          25
                26          26
                27          27
                28          28
                29          29
                30          30
                31          31
                32          32
                33          33
                34          34
                35          35
                36          36
                37          37
                38          38
                39          39
                40          40
                41          41
                42          42
                43          43
                44          44
                45          45
                46          46
                47          47
                48          48
                49          49
                50          50
                51          51
                52          52
                53          53

----------------------------------------------------------------------------------------

 
 
 KPOINTS: auto                                    

Automatic generation of k-mesh.
 Grid dimensions read from file:
 generate k-points for:    1    1    1

 Generating k-lattice:

  Cartesian coordinates                     Fractional coordinates (reciprocal lattice)
     0.081135903  0.046843835  0.000000000     1.000000000 -0.000000000  0.000000000
     0.000000000  0.093687670  0.000000000     0.000000000  1.000000000  0.000000000
     0.000000000  0.000000000  0.050000000     0.000000000  0.000000000  1.000000000

  Length of vectors
     0.093687670  0.093687670  0.050000000

  Shift w.r.t. Gamma in fractional coordinates (k-lattice)
     0.000000000  0.000000000  0.000000000

 
 Subroutine IBZKPT returns following result:
 ===========================================
 
 Found      1 irreducible k-points:
 
 Following reciprocal coordinates:
            Coordinates               Weight
  0.000000  0.000000  0.000000      1.000000
 
 Following cartesian coordinates:
            Coordinates               Weight
  0.000000  0.000000  0.000000      1.000000
 


--------------------------------------------------------------------------------------------------------




 Dimension of arrays:
   k-points           NKPTS =      1   k-points in BZ     NKDIM =      1   number of bands    NBANDS=    168
   number of dos      NEDOS =    301   number of ions     NIONS =     53
   non local maximal  LDIM  =      4   non local SUM 2l+1 LMDIM =      8
   total plane-waves  NPLWV = ******
   max r-space proj   IRMAX =      1   max aug-charges    IRDMAX=   9736
   dimension x,y,z NGX =   128 NGY =  128 NGZ =  210
   dimension x,y,z NGXF=   256 NGYF=  256 NGZF=  420
   support grid    NGXF=   256 NGYF=  256 NGZF=  420
   ions per type =              51   2
   NGX,Y,Z   is equivalent  to a cutoff of  17.27, 17.27, 17.46 a.u.
   NGXF,Y,Z  is equivalent  to a cutoff of  34.53, 34.53, 34.91 a.u.

 SYSTEM =  unknown system                          
 POSCAR =   C  O                                   

 Startparameter for this run:
   NWRITE =      2    write-flag & timer
   PREC   = accura    normal or accurate (medium, high low for compatibility)
   ISTART =      0    job   : 0-new  1-cont  2-samecut
   ICHARG =      2    charge: 1-file 2-atom 10-const
   ISPIN  =      1    spin polarized calculation?
   LNONCOLLINEAR =      F non collinear calculations
   LSORBIT =      F    spin-orbit coupling
   INIWAV =      1    electr: 0-lowe 1-rand  2-diag
   LASPH  =      T    aspherical Exc in radial PAW
 Electronic Relaxation 1
   ENCUT  = 1000.0 eV  73.50 Ry    8.57 a.u.  31.78 31.78 51.57*2*pi/ulx,y,z
   ENINI  = 1000.0     initial cutoff
   ENAUG  =  946.8 eV  augmentation charge cutoff
   NELM   =    200;   NELMIN=  2; NELMDL= -5     # of ELM steps 
   EDIFF  = 0.1E-06   stopping-criterion for ELM
   LREAL  =      F    real-space projection
   NLSPLINE    = F    spline interpolate recip. space projectors
   LCOMPAT=      F    compatible to vasp.4.4
   GGA_COMPAT  = T    GGA compatible to vasp.4.4-vasp.4.6
   LMAXPAW     = -100 max onsite density
   LMAXMIX     =    2 max onsite mixed and CHGCAR
   VOSKOWN=      0    Vosko Wilk Nusair interpolation
   ROPT   =    0.00000   0.00000
 Ionic relaxation
   EDIFFG = 0.1E-05   stopping-criterion for IOM
   NSW    =      0    number of steps for IOM
   NBLOCK =      1;   KBLOCK =      1    inner block; outer block 
   IBRION =     -1    ionic relax: 0-MD 1-quasi-New 2-CG
   NFREE  =      0    steps in history (QN), initial steepest desc. (CG)
   ISIF   =      0    stress and relaxation
   IWAVPR =     10    prediction:  0-non 1-charg 2-wave 3-comb
   ISYM   =      2    0-nonsym 1-usesym 2-fastsym
   LCORR  =      T    Harris-Foulkes like correction to forces

   POTIM  = 0.5000    time-step for ionic-motion
   TEIN   =    0.0    initial temperature
   TEBEG  =    0.0;   TEEND  =   0.0 temperature during run
   SMASS  =  -3.00    Nose mass-parameter (am)
   estimated Nose-frequenzy (Omega)   =  0.10E-29 period in steps = 0.13E+47 mass=  -0.347E-26a.u.
   SCALEE = 1.0000    scale energy and forces
   NPACO  =    256;   APACO  = 16.0  distance and # of slots for P.C.
   PSTRESS=    0.0 pullay stress

  Mass of Ions in am
   POMASS =  12.01 16.00
  Ionic Valenz
   ZVAL   =   4.00  6.00
  Atomic Wigner-Seitz radii
   RWIGS  =  -1.00 -1.00
  virtual crystal weights 
   VCA    =   1.00  1.00
   NELECT =     216.0000    total number of electrons
   NUPDOWN=      -1.0000    fix difference up-down

 DOS related values:
   EMIN   =  10.00;   EMAX   =-10.00  energy-range for DOS
   EFERMI =   0.00
   ISMEAR =     0;   SIGMA  =   0.01  broadening in eV -4-tet -1-fermi 0-gaus

 Electronic relaxation 2 (details)
   IALGO  =     58    algorithm
   LDIAG  =      T    sub-space diagonalisation (order eigenvalues)
   LSUBROT=      F    optimize rotation matrix (better conditioning)
   TURBO    =      0    0=normal 1=particle mesh
   IRESTART =      0    0=no restart 2=restart with 2 vectors
   NREBOOT  =      0    no. of reboots
   NMIN     =      0    reboot dimension
   EREF     =   0.00    reference energy to select bands
   IMIX   =      4    mixing-type and parameters
     AMIX     =   0.40;   BMIX     =  1.00
     AMIX_MAG =   1.60;   BMIX_MAG =  1.00
     AMIN     =   0.10
     WC   =   100.;   INIMIX=   1;  MIXPRE=   1;  MAXMIX= -45

 Intra band minimization:
   WEIMIN = 0.0000     energy-eigenvalue tresh-hold
   EBREAK =  0.15E-09  absolut break condition
   DEPER  =   0.30     relativ break condition  

   TIME   =   0.40     timestep for ELM

  volume/ion in A,a.u.               =      49.64       335.01
  Fermi-wavevector in a.u.,A,eV,Ry     =   0.711510  1.344560  6.887909  0.506247
  Thomas-Fermi vector in A             =   1.798641
 
 Write flags
   LWAVE        =      T    write WAVECAR
   LDOWNSAMPLE  =      F    k-point downsampling of WAVECAR
   LCHARG       =      T    write CHGCAR
   LVTOT        =      F    write LOCPOT, total local potential
   LVHAR        =      F    write LOCPOT, Hartree potential only
   LELF         =      F    write electronic localiz. function (ELF)
   LORBIT       =      0    0 simple, 1 ext, 2 COOP (PROOUT), +10 PAW based schemes


 Dipole corrections
   LMONO  =      F    monopole corrections only (constant potential shift)
   LDIPOL =      F    correct potential (dipole corrections)
   IDIPOL =      0    1-x, 2-y, 3-z, 4-all directions 
   EPSILON=  1.0000000 bulk dielectric constant

 Exchange correlation treatment:
   GGA     =    --    GGA type
   LEXCH   =     8    internal setting for exchange type
   VOSKOWN=      0    Vosko Wilk Nusair interpolation
   LHFCALC =     F    Hartree Fock is set to
   LHFONE  =     F    Hartree Fock one center treatment
   AEXX    =    0.0000 exact exchange contribution

 vdW DFT:
   LUSE_VDW   =     T    switch on vdW DFT
   Zab_VDW    =-.8491    correlation parameter
   PARAM1     =0.1234
   PARAM2     =1.0000
   PARAM3     =0.0000
   -- rVV10 --
   BPARAM     =15.7000
   CPARAM     = 0.0093

 Linear response parameters
   LEPSILON=     F    determine dielectric tensor
   LRPA    =     F    only Hartree local field effects (RPA)
   LNABLA  =     F    use nabla operator in PAW spheres
   LVEL    =     F    velocity operator in full k-point grid
   LINTERFAST=   F  fast interpolation
   KINTER  =     0    interpolate to denser k-point grid
   CSHIFT  =0.1000    complex shift for real part using Kramers Kronig
   OMEGAMAX=  -1.0    maximum frequency
   DEG_THRESHOLD= 0.2000000E-02 threshold for treating states as degnerate
   RTIME   =   -0.100 relaxation time in fs
  (WPLASMAI=    0.000 imaginary part of plasma frequency in eV, 0.658/RTIME)
   DFIELD  = 0.0000000 0.0000000 0.0000000 field for delta impulse in time
 
 Orbital magnetization related:
   ORBITALMAG=     F  switch on orbital magnetization
   LCHIMAG   =     F  perturbation theory with respect to B field
   DQ        =  0.001000  dq finite difference perturbation B field
   LLRAUG    =     F  two centre corrections for induced B field



--------------------------------------------------------------------------------------------------------


 Static calculation
 charge density and potential will be updated during run
 non-spin polarized calculation
 Conjugate gradient for all bands (Freysoldt, et al. PRB 79, 241103 (2009))
 preconditioned conjugated gradient                                        
 perform sub-space diagonalisation
    before iterative eigenvector-optimisation
 modified Broyden-mixing scheme, WC =      100.0
 initial mixing is a Kerker type mixing with AMIX =  0.4000 and BMIX =      1.0000
 Hartree-type preconditioning will be used
 using additional bands           60
 reciprocal scheme for non local part
 use partial core corrections
 no Harris-corrections to forces 
 use gradient corrections 
 use of overlap-Matrix (Vanderbilt PP)
 Gauss-broadening in eV      SIGMA  =   0.01


--------------------------------------------------------------------------------------------------------


  energy-cutoff  :     1000.00
  volume of cell :     2631.08
      direct lattice vectors                 reciprocal lattice vectors
    12.325000000  0.000000000  0.000000000     0.081135903  0.046843835  0.000000000
    -6.162500000 10.673763102  0.000000000     0.000000000  0.093687670  0.000000000
     0.000000000  0.000000000 20.000000000     0.000000000  0.000000000  0.050000000

  length of vectors
    12.325000000 12.325000000 20.000000000     0.093687670  0.093687670  0.050000000


 
 k-points in units of 2pi/SCALE and weight: auto                                    
   0.00000000  0.00000000  0.00000000       1.000
 
 k-points in reciprocal lattice and weights: auto                                    
   0.00000000  0.00000000  0.00000000       1.000
 
 position of ions in fractional coordinates (direct lattice) 
   0.97245084  0.00032082  0.00070839
   0.03911838  0.13365950  0.00055022
   0.17244363  0.00029545  0.00062454
   0.23909628  0.13364792  0.00032058
   0.97245206  0.20032201  0.00060652
   0.03912836  0.33364377  0.00055519
   0.17245176  0.20035455  0.00027396
   0.23912436  0.33366572  0.00009033
   0.37246557  0.00032440  0.00056739
   0.43913747  0.13361994  0.00032292
   0.97244982  0.40030936  0.00068451
   0.03912498  0.53363679  0.00071676
   0.37241618  0.40032948  0.00000000
   0.43909960  0.53363898  0.00029052
   0.57244368  0.00031213  0.00069947
   0.63911021  0.13363175  0.00068409
   0.97245270  0.60030565  0.00080036
   0.03912449  0.73364036  0.00081814
   0.57243347  0.60030624  0.00050362
   0.63911189  0.73364188  0.00065988
   0.17245463  0.40031823  0.00036131
   0.23912018  0.53363655  0.00047314
   0.37245975  0.20029599  0.00011125
   0.43910710  0.33367342  0.00006970
   0.17245216  0.60031151  0.00065542
   0.23912337  0.73363857  0.00071891
   0.57243108  0.20028917  0.00051662
   0.63911277  0.33361863  0.00057797
   0.37243981  0.60030802  0.00045356
   0.43911609  0.73363786  0.00061774
   0.57246936  0.40032050  0.00042490
   0.63911941  0.53365087  0.00057451
   0.77244572  0.00031543  0.00074520
   0.83911628  0.13364020  0.00071913
   0.77244051  0.20030743  0.00072629
   0.83912024  0.33363573  0.00073183
   0.77244632  0.40029837  0.00072872
   0.83911898  0.53363396  0.00077638
   0.77245614  0.60030817  0.00074464
   0.83911503  0.73364318  0.00078939
   0.97245531  0.80030558  0.00081529
   0.03911471  0.93364329  0.00074756
   0.17245797  0.80031221  0.00077922
   0.23913455  0.93364719  0.00068106
   0.37245140  0.80031667  0.00068925
   0.43912449  0.93364477  0.00067679
   0.57244110  0.80031005  0.00066817
   0.63911507  0.93363899  0.00073456
   0.77244510  0.80031319  0.00075258
   0.83911661  0.93364434  0.00075854
   0.37302101  0.25122688  0.14030776
   0.42087980  0.18931315  0.14352885
   0.32515698  0.31316719  0.13733501
 
 position of ions in cartesian coordinates  (Angst):
  11.98347958  0.00342433  0.01416777
  -0.34154264  1.42664989  0.01100432
   2.12354700  0.00315355  0.01249070
   2.12325634  1.42652621  0.00641170
  10.75098721  2.13818970  0.01213047
  -1.57382270  3.56123457  0.01110375
   0.89078307  2.13853702  0.00547917
   0.89099273  3.56146885  0.00180651
   4.58863896  0.00346260  0.01134782
   4.58893648  1.42622757  0.00645846
   9.51853763  4.27280730  0.01369027
  -2.80632132  5.69591267  0.01433526
   2.12299894  4.27302204  0.00000000
   2.12335237  5.69593607  0.00581036
   7.05344483  0.00333155  0.01398950
   7.05352764  1.42635365  0.01368187
   8.28609598  6.40752033  0.01600723
  -4.03884931  7.83070339  0.01636283
   3.35585531  6.40752662  0.01007237
   3.35598594  7.83071962  0.01319763
  -0.34145776  4.27290193  0.00722612
  -0.34137895  5.69591010  0.00946273
   3.35624236  2.13791198  0.00222492
   3.35573251  3.56155103  0.00139405
  -1.57394684  6.40758280  0.01310850
  -1.57385216  7.83068434  0.01437823
   5.82093107  2.13783916  0.01033241
   5.82114012  3.56096622  0.01155939
   0.89092245  6.40754561  0.00907111
   0.89106251  7.83067670  0.01235474
   4.58870974  4.27292622  0.00849795
   4.58852320  5.69606300  0.01149026
   9.51844972  0.00336679  0.01490402
   9.51855036  1.42644387  0.01438264
   8.28593477  2.13803408  0.01452582
   8.28612680  3.56114872  0.01463668
   7.05356221  4.27268994  0.01457444
   7.05362213  5.69588251  0.01552751
   5.82112285  6.40754723  0.01489279
   5.82101669  7.83073350  0.01578780
   7.05362858  8.54227219  0.01630582
  -5.27148792  9.96548729  0.01495127
  -2.80637951  8.54234295  0.01558431
  -2.80626749  9.96552896  0.01362126
  -0.34148805  8.54239058  0.01378498
  -0.34137657  9.96550309  0.01353576
   2.12342586  8.54231992  0.01336337
   2.12354296  9.96544135  0.01469111
   4.58845581  8.54235337  0.01505154
   4.58852904  9.96549848  0.01517076
   3.04929830  2.68153618  2.80615512
   4.02070129  2.02068374  2.87057698
   2.07766701  3.34267235  2.74670025
 


--------------------------------------------------------------------------------------------------------


 k-point   1 :   0.0000 0.0000 0.0000  plane waves:  189031

 maximum and minimum number of plane-waves per node :    189031   189031

 maximum number of plane-waves:    189031
 maximum index in each direction: 
   IXMAX=   31   IYMAX=   31   IZMAX=   51
   IXMIN=  -31   IYMIN=  -31   IZMIN=  -51


 serial   3D FFT for wavefunctions
 parallel 3D FFT for charge:
    minimum data exchange during FFTs selected (reduces bandwidth)


 total amount of memory used by VASP MPI-rank0   556209. kBytes
=======================================================================

   base      :      30000. kBytes
   nonl-proj :     184518. kBytes
   fftplans  :      31725. kBytes
   grid      :     282516. kBytes
   one-center:        162. kBytes
   wavefun   :      27288. kBytes
 
     INWAV:  cpu time    0.0000: real time    0.0000
 Broyden mixing: mesh for mixing (old mesh)
   NGX = 63   NGY = 63   NGZ =103
  (NGX  =256   NGY  =256   NGZ  =420)
  gives a total of 408807 points

 initial charge density was supplied:
 charge density of overlapping atoms calculated
 number of electron     216.0000000 magnetization 
 keeping initial charge density in first step


--------------------------------------------------------------------------------------------------------


 Maximum index for augmentation-charges          459 (set IRDMAX)


--------------------------------------------------------------------------------------------------------


 First call to EWALD:  gamma=   0.128
 Maximum number of real-space cells 3x 3x 2
 Maximum number of reciprocal cells 3x 3x 4

    FEWALD:  cpu time    0.0021: real time    0.0021


--------------------------------------- Iteration      1(   1)  ---------------------------------------


    POTLOK:  cpu time    6.2305: real time    6.2737
    SETDIJ:  cpu time    0.1951: real time    0.1958
    TRIAL :  cpu time   21.7921: real time   21.9905
    CORREC:  cpu time    0.0005: real time    0.0005
    --------------------------------------------
      LOOP:  cpu time   28.2304: real time   28.4864

 eigenvalue-minimisations  :   336
 total energy-change (2. order) : 0.2426389E+04  (-0.1180700E+05)
 number of electron     216.0000000 magnetization 
 augmentation part      216.0000000 magnetization 

 Free energy of the ion-electron system (eV)
  ---------------------------------------------------
  alpha Z        PSCENC =        59.93625244
  Ewald energy   TEWEN  =     34916.46917963
  -Hartree energ DENC   =    -41090.50053102
  -exchange      EXHF   =         0.00000000
  -V(xc)+E(xc)   XCENC  =       604.75708841
  PAW double counting   =      6339.73130699    -6197.22120962
  entropy T*S    EENTRO =        -0.00000000
  eigenvalues    EBANDS =      -576.30702863
  atomic energy  EATOM  =      8369.52358910
  ---------------------------------------------------
  free energy    TOTEN  =      2426.38864730 eV

  energy without entropy =     2426.38864730  energy(sigma->0) =     2426.38864730


--------------------------------------------------------------------------------------------------------




--------------------------------------- Iteration      1(   2)  ---------------------------------------


    TRIAL :  cpu time   35.5934: real time   35.9115
    CORREC:  cpu time    0.0001: real time    0.0001
    --------------------------------------------
      LOOP:  cpu time   35.6493: real time   35.9700

 eigenvalue-minimisations  :   672
 total energy-change (2. order) :-0.2482630E+04  (-0.2368251E+04)
 number of electron     216.0000000 magnetization 
 augmentation part      216.0000000 magnetization 

 Free energy of the ion-electron system (eV)
  ---------------------------------------------------
  alpha Z        PSCENC =        59.93625244
  Ewald energy   TEWEN  =     34916.46917963
  -Hartree energ DENC   =    -41090.50053102
  -exchange      EXHF   =         0.00000000
  -V(xc)+E(xc)   XCENC  =       604.75708841
  PAW double counting   =      6339.73130699    -6197.22120962
  entropy T*S    EENTRO =        -0.00000000
  eigenvalues    EBANDS =     -3058.93691436
  atomic energy  EATOM  =      8369.52358910
  ---------------------------------------------------
  free energy    TOTEN  =       -56.24123842 eV

  energy without entropy =      -56.24123842  energy(sigma->0) =      -56.24123842


--------------------------------------------------------------------------------------------------------




--------------------------------------- Iteration      1(   3)  ---------------------------------------


    TRIAL :  cpu time   24.0436: real time   24.2617
    CORREC:  cpu time    0.0001: real time    0.0001
    --------------------------------------------
      LOOP:  cpu time   24.0470: real time   24.2988

 eigenvalue-minimisations  :   392
 total energy-change (2. order) :-0.5336778E+03  (-0.5307698E+03)
 number of electron     216.0000000 magnetization 
 augmentation part      216.0000000 magnetization 

 Free energy of the ion-electron system (eV)
  ---------------------------------------------------
  alpha Z        PSCENC =        59.93625244
  Ewald energy   TEWEN  =     34916.46917963
  -Hartree energ DENC   =    -41090.50053102
  -exchange      EXHF   =         0.00000000
  -V(xc)+E(xc)   XCENC  =       604.75708841
  PAW double counting   =      6339.73130699    -6197.22120962
  entropy T*S    EENTRO =        -0.00000000
  eigenvalues    EBANDS =     -3592.61470146
  atomic energy  EATOM  =      8369.52358910
  ---------------------------------------------------
  free energy    TOTEN  =      -589.91902552 eV

  energy without entropy =     -589.91902552  energy(sigma->0) =     -589.91902552


--------------------------------------------------------------------------------------------------------




--------------------------------------- Iteration      1(   4)  ---------------------------------------


    TRIAL :  cpu time   26.3489: real time   26.5965
    CORREC:  cpu time    0.0001: real time    0.0001
    --------------------------------------------
      LOOP:  cpu time   26.3604: real time   26.6320

 eigenvalue-minimisations  :   448
 total energy-change (2. order) :-0.2440244E+02  (-0.2425141E+02)
 number of electron     216.0000000 magnetization 
 augmentation part      216.0000000 magnetization 

 Free energy of the ion-electron system (eV)
  ---------------------------------------------------
  alpha Z        PSCENC =        59.93625244
  Ewald energy   TEWEN  =     34916.46917963
  -Hartree energ DENC   =    -41090.50053102
  -exchange      EXHF   =         0.00000000
  -V(xc)+E(xc)   XCENC  =       604.75708841
  PAW double counting   =      6339.73130699    -6197.22120962
  entropy T*S    EENTRO =        -0.00000000
  eigenvalues    EBANDS =     -3617.01714029
  atomic energy  EATOM  =      8369.52358910
  ---------------------------------------------------
  free energy    TOTEN  =      -614.32146436 eV

  energy without entropy =     -614.32146436  energy(sigma->0) =     -614.32146436


--------------------------------------------------------------------------------------------------------




--------------------------------------- Iteration      1(   5)  ---------------------------------------


    TRIAL :  cpu time   26.3703: real time   26.6250
    CORREC:  cpu time    0.0002: real time    0.0002
    CHARGE:  cpu time    2.3016: real time    2.3190
    --------------------------------------------
      LOOP:  cpu time   28.7037: real time   28.9784

 eigenvalue-minimisations  :   448
 total energy-change (2. order) :-0.8609909E+00  (-0.8570334E+00)
 number of electron     216.0000000 magnetization 
 augmentation part       -0.4320653 magnetization 

 Free energy of the ion-electron system (eV)
  ---------------------------------------------------
  alpha Z        PSCENC =        59.93625244
  Ewald energy   TEWEN  =     34916.46917963
  -Hartree energ DENC   =    -41090.50053102
  -exchange      EXHF   =         0.00000000
  -V(xc)+E(xc)   XCENC  =       604.75708841
  PAW double counting   =      6339.73130699    -6197.22120962
  entropy T*S    EENTRO =        -0.00000000
  eigenvalues    EBANDS =     -3617.87813121
  atomic energy  EATOM  =      8369.52358910
  ---------------------------------------------------
  free energy    TOTEN  =      -615.18245527 eV

  energy without entropy =     -615.18245527  energy(sigma->0) =     -615.18245527


--------------------------------------------------------------------------------------------------------




--------------------------------------- Iteration      1(   6)  ---------------------------------------


    POTLOK:  cpu time    6.1229: real time    6.1669
    SETDIJ:  cpu time    0.2193: real time    0.2201
    TRIAL :  cpu time   15.4644: real time   15.5941
    CORREC:  cpu time   11.7354: real time   11.8186
    CHARGE:  cpu time    2.2869: real time    2.3063
    --------------------------------------------
      LOOP:  cpu time   35.8907: real time   36.1766

 eigenvalue-minimisations  :     0
 total energy-change (2. order) : 0.1035615E+03  (-0.1200769E+02)
 number of electron     216.0000000 magnetization 
 augmentation part       -0.4907770 magnetization 

 Free energy of the ion-electron system (eV)
  ---------------------------------------------------
  alpha Z        PSCENC =        59.93625244
  Ewald energy   TEWEN  =     34916.46917963
  -Hartree energ DENC   =    -42420.51522898
  -exchange      EXHF   =         0.00000000
  -V(xc)+E(xc)   XCENC  =       670.93925422
  PAW double counting   =    113870.51130967  -113733.69728964
  entropy T*S    EENTRO =        -0.00000000
  eigenvalues    EBANDS =     -2244.78806361
  atomic energy  EATOM  =      8369.52358910
  ---------------------------------------------------
  free energy    TOTEN  =      -511.62099717 eV

  energy without entropy =     -511.62099717  energy(sigma->0) =     -511.62099717


--------------------------------------------------------------------------------------------------------




--------------------------------------- Iteration      1(   7)  ---------------------------------------


    POTLOK:  cpu time    6.1073: real time    6.1528
    SETDIJ:  cpu time    0.2012: real time    0.2019
    TRIAL :  cpu time   15.4618: real time   15.5869
    CORREC:  cpu time   11.7343: real time   11.8276
    CHARGE:  cpu time    2.2814: real time    2.3013
    --------------------------------------------
      LOOP:  cpu time   35.8190: real time   36.1148

 eigenvalue-minimisations  :     0
 total energy-change (2. order) :-0.1201604E+02  (-0.1510268E+01)
 number of electron     216.0000000 magnetization 
 augmentation part       -0.5203649 magnetization 

 Free energy of the ion-electron system (eV)
  ---------------------------------------------------
  alpha Z        PSCENC =        59.93625244
  Ewald energy   TEWEN  =     34916.46917963
  -Hartree energ DENC   =    -41995.97479155
  -exchange      EXHF   =         0.00000000
  -V(xc)+E(xc)   XCENC  =       651.19928232
  PAW double counting   =    132260.54916621  -132120.98989267
  entropy T*S    EENTRO =        -0.00000000
  eigenvalues    EBANDS =     -2664.34981906
  atomic energy  EATOM  =      8369.52358910
  ---------------------------------------------------
  free energy    TOTEN  =      -523.63703359 eV

  energy without entropy =     -523.63703359  energy(sigma->0) =     -523.63703359


--------------------------------------------------------------------------------------------------------




--------------------------------------- Iteration      1(   8)  ---------------------------------------


    POTLOK:  cpu time    6.1279: real time    6.1654
    SETDIJ:  cpu time    0.1954: real time    0.1960
    TRIAL :  cpu time   15.4554: real time   15.5900
    CORREC:  cpu time   11.7655: real time   11.8483
    CHARGE:  cpu time    2.2782: real time    2.2942
    --------------------------------------------
      LOOP:  cpu time   35.8524: real time   36.1339

 eigenvalue-minimisations  :     0
 total energy-change (2. order) :-0.1511304E+01  (-0.4876701E+00)
 number of electron     216.0000000 magnetization 
 augmentation part       -0.5185859 magnetization 

 Free energy of the ion-electron system (eV)
  ---------------------------------------------------
  alpha Z        PSCENC =        59.93625244
  Ewald energy   TEWEN  =     34916.46917963
  -Hartree energ DENC   =    -41973.28965002
  -exchange      EXHF   =         0.00000000
  -V(xc)+E(xc)   XCENC  =       649.73389059
  PAW double counting   =    140497.38617645  -140357.36007653
  entropy T*S    EENTRO =        -0.00000000
  eigenvalues    EBANDS =     -2687.54769972
  atomic energy  EATOM  =      8369.52358910
  ---------------------------------------------------
  free energy    TOTEN  =      -525.14833806 eV

  energy without entropy =     -525.14833806  energy(sigma->0) =     -525.14833806


--------------------------------------------------------------------------------------------------------




--------------------------------------- Iteration      1(   9)  ---------------------------------------


    POTLOK:  cpu time    6.1291: real time    6.1671
    SETDIJ:  cpu time    0.1882: real time    0.1888
    TRIAL :  cpu time   15.4645: real time   15.6084
    CORREC:  cpu time   11.7457: real time   11.8370
    CHARGE:  cpu time    2.2859: real time    2.3033
    --------------------------------------------
      LOOP:  cpu time   35.8770: real time   36.1700

 eigenvalue-minimisations  :     0
 total energy-change (2. order) :-0.4873148E+00  (-0.1884400E+00)
 number of electron     216.0000000 magnetization 
 augmentation part       -0.5132384 magnetization 

 Free energy of the ion-electron system (eV)
  ---------------------------------------------------
  alpha Z        PSCENC =        59.93625244
  Ewald energy   TEWEN  =     34916.46917963
  -Hartree energ DENC   =    -41979.39630494
  -exchange      EXHF   =         0.00000000
  -V(xc)+E(xc)   XCENC  =       649.47473032
  PAW double counting   =    146536.30910680  -146396.08961159
  entropy T*S    EENTRO =        -0.00000000
  eigenvalues    EBANDS =     -2681.86259458
  atomic energy  EATOM  =      8369.52358910
  ---------------------------------------------------
  free energy    TOTEN  =      -525.63565282 eV

  energy without entropy =     -525.63565282  energy(sigma->0) =     -525.63565282


--------------------------------------------------------------------------------------------------------




--------------------------------------- Iteration      1(  10)  ---------------------------------------


    POTLOK:  cpu time    6.1302: real time    6.1675
    SETDIJ:  cpu time    0.1941: real time    0.1947
    TRIAL :  cpu time   15.4900: real time   15.6014
    CORREC:  cpu time   11.7634: real time   11.8483
    CHARGE:  cpu time    2.2826: real time    2.2985
    --------------------------------------------
      LOOP:  cpu time   35.9258: real time   36.1776

 eigenvalue-minimisations  :     0
 total energy-change (2. order) :-0.1882623E+00  (-0.7970200E-01)
 number of electron     216.0000000 magnetization 
 augmentation part       -0.5075851 magnetization 

 Free energy of the ion-electron system (eV)
  ---------------------------------------------------
  alpha Z        PSCENC =        59.93625244
  Ewald energy   TEWEN  =     34916.46917963
  -Hartree energ DENC   =    -41977.89814787
  -exchange      EXHF   =         0.00000000
  -V(xc)+E(xc)   XCENC  =       649.28161979
  PAW double counting   =    148811.29635840  -148670.98787430
  entropy T*S    EENTRO =        -0.00000000
  eigenvalues    EBANDS =     -2683.44489234
  atomic energy  EATOM  =      8369.52358910
  ---------------------------------------------------
  free energy    TOTEN  =      -525.82391516 eV

  energy without entropy =     -525.82391516  energy(sigma->0) =     -525.82391516


--------------------------------------------------------------------------------------------------------




--------------------------------------- Iteration      1(  11)  ---------------------------------------


    POTLOK:  cpu time    6.1319: real time    6.1722
    SETDIJ:  cpu time    0.2344: real time    0.2353
    TRIAL :  cpu time   15.4625: real time   15.5917
    CORREC:  cpu time   11.7318: real time   11.8358
    CHARGE:  cpu time    2.2791: real time    2.2973
    --------------------------------------------
      LOOP:  cpu time   35.8706: real time   36.1660

 eigenvalue-minimisations  :     0
 total energy-change (2. order) :-0.7944771E-01  (-0.3129966E-01)
 number of electron     216.0000000 magnetization 
 augmentation part       -0.5043961 magnetization 

 Free energy of the ion-electron system (eV)
  ---------------------------------------------------
  alpha Z        PSCENC =        59.93625244
  Ewald energy   TEWEN  =     34916.46917963
  -Hartree energ DENC   =    -41972.44305552
  -exchange      EXHF   =         0.00000000
  -V(xc)+E(xc)   XCENC  =       649.15978341
  PAW double counting   =    148696.49812834  -148556.18984192
  entropy T*S    EENTRO =        -0.00000000
  eigenvalues    EBANDS =     -2688.85739835
  atomic energy  EATOM  =      8369.52358910
  ---------------------------------------------------
  free energy    TOTEN  =      -525.90336286 eV

  energy without entropy =     -525.90336286  energy(sigma->0) =     -525.90336286


--------------------------------------------------------------------------------------------------------




--------------------------------------- Iteration      1(  12)  ---------------------------------------


    POTLOK:  cpu time    6.1484: real time    6.1862
    SETDIJ:  cpu time    0.1940: real time    0.1947
    TRIAL :  cpu time   15.4679: real time   15.5906
    CORREC:  cpu time   11.7340: real time   11.8368
    CHARGE:  cpu time    2.2852: real time    2.3037
    --------------------------------------------
      LOOP:  cpu time   35.8713: real time   36.1576

 eigenvalue-minimisations  :     0
 total energy-change (2. order) :-0.3119205E-01  (-0.1005997E-01)
 number of electron     216.0000000 magnetization 
 augmentation part       -0.5045293 magnetization 

 Free energy of the ion-electron system (eV)
  ---------------------------------------------------
  alpha Z        PSCENC =        59.93625244
  Ewald energy   TEWEN  =     34916.46917963
  -Hartree energ DENC   =    -41967.96909425
  -exchange      EXHF   =         0.00000000
  -V(xc)+E(xc)   XCENC  =       649.06222195
  PAW double counting   =    147991.41004547  -147851.12607217
  entropy T*S    EENTRO =        -0.00000000
  eigenvalues    EBANDS =     -2693.24067708
  atomic energy  EATOM  =      8369.52358910
  ---------------------------------------------------
  free energy    TOTEN  =      -525.93455491 eV

  energy without entropy =     -525.93455491  energy(sigma->0) =     -525.93455491


--------------------------------------------------------------------------------------------------------




--------------------------------------- Iteration      1(  13)  ---------------------------------------


    POTLOK:  cpu time    6.1509: real time    6.1893
    SETDIJ:  cpu time    0.1814: real time    0.1821
    TRIAL :  cpu time   15.4894: real time   15.6076
    CORREC:  cpu time   11.7876: real time   11.8732
    CHARGE:  cpu time    2.2797: real time    2.3035
    --------------------------------------------
      LOOP:  cpu time   35.9167: real time   36.1846

 eigenvalue-minimisations  :     0
 total energy-change (2. order) :-0.1004395E-01  (-0.2774600E-02)
 number of electron     216.0000000 magnetization 
 augmentation part       -0.5051565 magnetization 

 Free energy of the ion-electron system (eV)
  ---------------------------------------------------
  alpha Z        PSCENC =        59.93625244
  Ewald energy   TEWEN  =     34916.46917963
  -Hartree energ DENC   =    -41966.37901788
  -exchange      EXHF   =         0.00000000
  -V(xc)+E(xc)   XCENC  =       649.00891740
  PAW double counting   =    147473.29622828  -147333.02398540
  entropy T*S    EENTRO =        -0.00000000
  eigenvalues    EBANDS =     -2694.77576243
  atomic energy  EATOM  =      8369.52358910
  ---------------------------------------------------
  free energy    TOTEN  =      -525.94459886 eV

  energy without entropy =     -525.94459886  energy(sigma->0) =     -525.94459886


--------------------------------------------------------------------------------------------------------




--------------------------------------- Iteration      1(  14)  ---------------------------------------


    POTLOK:  cpu time    6.1320: real time    6.1747
    SETDIJ:  cpu time    0.1818: real time    0.1824
    TRIAL :  cpu time   15.4646: real time   15.5932
    CORREC:  cpu time   11.7481: real time   11.8402
    CHARGE:  cpu time    2.2857: real time    2.3030
    --------------------------------------------
      LOOP:  cpu time   35.8409: real time   36.1232

 eigenvalue-minimisations  :     0
 total energy-change (2. order) :-0.2777177E-02  (-0.7052700E-03)
 number of electron     216.0000000 magnetization 
 augmentation part       -0.5054050 magnetization 

 Free energy of the ion-electron system (eV)
  ---------------------------------------------------
  alpha Z        PSCENC =        59.93625244
  Ewald energy   TEWEN  =     34916.46917963
  -Hartree energ DENC   =    -41966.37248161
  -exchange      EXHF   =         0.00000000
  -V(xc)+E(xc)   XCENC  =       649.00687763
  PAW double counting   =    147244.51542695  -147104.24890490
  entropy T*S    EENTRO =        -0.00000000
  eigenvalues    EBANDS =     -2694.77731528
  atomic energy  EATOM  =      8369.52358910
  ---------------------------------------------------
  free energy    TOTEN  =      -525.94737604 eV

  energy without entropy =     -525.94737604  energy(sigma->0) =     -525.94737604


--------------------------------------------------------------------------------------------------------




--------------------------------------- Iteration      1(  15)  ---------------------------------------


    POTLOK:  cpu time    6.1469: real time    6.1908
    SETDIJ:  cpu time    0.1797: real time    0.1803
    TRIAL :  cpu time   15.4433: real time   15.5912
    CORREC:  cpu time   11.7377: real time   11.8371
    CHARGE:  cpu time    2.2836: real time    2.2996
    --------------------------------------------
      LOOP:  cpu time   35.7956: real time   36.1496

 eigenvalue-minimisations  :     0
 total energy-change (2. order) :-0.7107719E-03  (-0.1817042E-03)
 number of electron     216.0000000 magnetization 
 augmentation part       -0.5055152 magnetization 

 Free energy of the ion-electron system (eV)
  ---------------------------------------------------
  alpha Z        PSCENC =        59.93625244
  Ewald energy   TEWEN  =     34916.46917963
  -Hartree energ DENC   =    -41966.31430275
  -exchange      EXHF   =         0.00000000
  -V(xc)+E(xc)   XCENC  =       649.00894186
  PAW double counting   =    147154.87488274  -147014.61085198
  entropy T*S    EENTRO =        -0.00000000
  eigenvalues    EBANDS =     -2694.83577784
  atomic energy  EATOM  =      8369.52358910
  ---------------------------------------------------
  free energy    TOTEN  =      -525.94808681 eV

  energy without entropy =     -525.94808681  energy(sigma->0) =     -525.94808681


--------------------------------------------------------------------------------------------------------




--------------------------------------- Iteration      1(  16)  ---------------------------------------


    POTLOK:  cpu time    6.1436: real time    6.1822
    SETDIJ:  cpu time    0.1835: real time    0.1841
    TRIAL :  cpu time   15.4645: real time   15.5898
    CORREC:  cpu time   11.7414: real time   11.8382
    CHARGE:  cpu time    2.2799: real time    2.3065
    --------------------------------------------
      LOOP:  cpu time   35.8329: real time   36.1292

 eigenvalue-minimisations  :     0
 total energy-change (2. order) :-0.1857239E-03  (-0.6027115E-04)
 number of electron     216.0000000 magnetization 
 augmentation part       -0.5055396 magnetization 

 Free energy of the ion-electron system (eV)
  ---------------------------------------------------
  alpha Z        PSCENC =        59.93625244
  Ewald energy   TEWEN  =     34916.46917963
  -Hartree energ DENC   =    -41966.23508648
  -exchange      EXHF   =         0.00000000
  -V(xc)+E(xc)   XCENC  =       649.00796952
  PAW double counting   =    147103.89433773  -146963.63075845
  entropy T*S    EENTRO =        -0.00000000
  eigenvalues    EBANDS =     -2694.91375603
  atomic energy  EATOM  =      8369.52358910
  ---------------------------------------------------
  free energy    TOTEN  =      -525.94827253 eV

  energy without entropy =     -525.94827253  energy(sigma->0) =     -525.94827253


--------------------------------------------------------------------------------------------------------




--------------------------------------- Iteration      1(  17)  ---------------------------------------


    POTLOK:  cpu time    6.1285: real time    6.1701
    SETDIJ:  cpu time    0.2142: real time    0.2149
    TRIAL :  cpu time   15.4903: real time   15.6031
    CORREC:  cpu time   11.7701: real time   11.8485
    CHARGE:  cpu time    2.2837: real time    2.3000
    --------------------------------------------
      LOOP:  cpu time   35.9726: real time   36.2339

 eigenvalue-minimisations  :     0
 total energy-change (2. order) :-0.5996489E-04  (-0.2329466E-04)
 number of electron     216.0000000 magnetization 
 augmentation part       -0.5055492 magnetization 

 Free energy of the ion-electron system (eV)
  ---------------------------------------------------
  alpha Z        PSCENC =        59.93625244
  Ewald energy   TEWEN  =     34916.46917963
  -Hartree energ DENC   =    -41966.35997185
  -exchange      EXHF   =         0.00000000
  -V(xc)+E(xc)   XCENC  =       649.01422165
  PAW double counting   =    147064.40427771  -146924.14135077
  entropy T*S    EENTRO =        -0.00000000
  eigenvalues    EBANDS =     -2694.79453042
  atomic energy  EATOM  =      8369.52358910
  ---------------------------------------------------
  free energy    TOTEN  =      -525.94833250 eV

  energy without entropy =     -525.94833250  energy(sigma->0) =     -525.94833250


--------------------------------------------------------------------------------------------------------




--------------------------------------- Iteration      1(  18)  ---------------------------------------


    POTLOK:  cpu time    6.1333: real time    6.1705
    SETDIJ:  cpu time    0.1970: real time    0.1976
    TRIAL :  cpu time   15.4705: real time   15.5885
    CORREC:  cpu time   11.7767: real time   11.8621
    CHARGE:  cpu time    2.2872: real time    2.3046
    --------------------------------------------
      LOOP:  cpu time   35.9018: real time   36.1648

 eigenvalue-minimisations  :     0
 total energy-change (2. order) :-0.2241079E-04  (-0.7484660E-05)
 number of electron     216.0000000 magnetization 
 augmentation part       -0.5055768 magnetization 

 Free energy of the ion-electron system (eV)
  ---------------------------------------------------
  alpha Z        PSCENC =        59.93625244
  Ewald energy   TEWEN  =     34916.46917963
  -Hartree energ DENC   =    -41966.46155490
  -exchange      EXHF   =         0.00000000
  -V(xc)+E(xc)   XCENC  =       649.01843924
  PAW double counting   =    147043.72616942  -146903.46333941
  entropy T*S    EENTRO =        -0.00000000
  eigenvalues    EBANDS =     -2694.69709044
  atomic energy  EATOM  =      8369.52358910
  ---------------------------------------------------
  free energy    TOTEN  =      -525.94835491 eV

  energy without entropy =     -525.94835491  energy(sigma->0) =     -525.94835491


--------------------------------------------------------------------------------------------------------




--------------------------------------- Iteration      1(  19)  ---------------------------------------


    POTLOK:  cpu time    6.1517: real time    6.1875
    SETDIJ:  cpu time    0.1725: real time    0.1730
    TRIAL :  cpu time   15.4192: real time   15.5897
    CORREC:  cpu time   11.7268: real time   11.8263
    CHARGE:  cpu time    2.2835: real time    2.2994
    --------------------------------------------
      LOOP:  cpu time   35.7619: real time   36.0946

 eigenvalue-minimisations  :     0
 total energy-change (2. order) :-0.7641240E-05  (-0.7338807E-05)
 number of electron     216.0000000 magnetization 
 augmentation part       -0.5056104 magnetization 

 Free energy of the ion-electron system (eV)
  ---------------------------------------------------
  alpha Z        PSCENC =        59.93625244
  Ewald energy   TEWEN  =     34916.46917963
  -Hartree energ DENC   =    -41966.46895346
  -exchange      EXHF   =         0.00000000
  -V(xc)+E(xc)   XCENC  =       649.01820540
  PAW double counting   =    147043.76800395  -146903.50475721
  entropy T*S    EENTRO =        -0.00000000
  eigenvalues    EBANDS =     -2694.68988240
  atomic energy  EATOM  =      8369.52358910
  ---------------------------------------------------
  free energy    TOTEN  =      -525.94836255 eV

  energy without entropy =     -525.94836255  energy(sigma->0) =     -525.94836255


--------------------------------------------------------------------------------------------------------




--------------------------------------- Iteration      1(  20)  ---------------------------------------


    POTLOK:  cpu time    6.1424: real time    6.1809
    SETDIJ:  cpu time    0.1808: real time    0.1815
    TRIAL :  cpu time   15.4669: real time   15.6147
    CORREC:  cpu time   11.7800: real time   11.8636
    CHARGE:  cpu time    2.2798: real time    2.2963
    --------------------------------------------
      LOOP:  cpu time   35.8795: real time   36.1668

 eigenvalue-minimisations  :     0
 total energy-change (2. order) :-0.3901660E-06  (-0.5198842E-05)
 number of electron     216.0000000 magnetization 
 augmentation part       -0.5056063 magnetization 

 Free energy of the ion-electron system (eV)
  ---------------------------------------------------
  alpha Z        PSCENC =        59.93625244
  Ewald energy   TEWEN  =     34916.46917963
  -Hartree energ DENC   =    -41966.50661003
  -exchange      EXHF   =         0.00000000
  -V(xc)+E(xc)   XCENC  =       649.01899599
  PAW double counting   =    147059.57562515  -146919.31194003
  entropy T*S    EENTRO =        -0.00000000
  eigenvalues    EBANDS =     -2694.65345520
  atomic energy  EATOM  =      8369.52358910
  ---------------------------------------------------
  free energy    TOTEN  =      -525.94836294 eV

  energy without entropy =     -525.94836294  energy(sigma->0) =     -525.94836294


--------------------------------------------------------------------------------------------------------




--------------------------------------- Iteration      1(  21)  ---------------------------------------


    POTLOK:  cpu time    6.1563: real time    6.2001
    SETDIJ:  cpu time    0.1674: real time    0.1680
    TRIAL :  cpu time   15.4885: real time   15.6029
    CORREC:  cpu time   11.7601: real time   11.8448
    CHARGE:  cpu time    2.2834: real time    2.3015
    --------------------------------------------
      LOOP:  cpu time   35.8722: real time   36.1626

 eigenvalue-minimisations  :     0
 total energy-change (2. order) :-0.5108508E-05  (-0.8346913E-06)
 number of electron     216.0000000 magnetization 
 augmentation part       -0.5055925 magnetization 

 Free energy of the ion-electron system (eV)
  ---------------------------------------------------
  alpha Z        PSCENC =        59.93625244
  Ewald energy   TEWEN  =     34916.46917963
  -Hartree energ DENC   =    -41966.49852693
  -exchange      EXHF   =         0.00000000
  -V(xc)+E(xc)   XCENC  =       649.01847654
  PAW double counting   =    147057.87812930  -146917.61448123
  entropy T*S    EENTRO =        -0.00000000
  eigenvalues    EBANDS =     -2694.66098691
  atomic energy  EATOM  =      8369.52358910
  ---------------------------------------------------
  free energy    TOTEN  =      -525.94836805 eV

  energy without entropy =     -525.94836805  energy(sigma->0) =     -525.94836805


--------------------------------------------------------------------------------------------------------




--------------------------------------- Iteration      1(  22)  ---------------------------------------


    POTLOK:  cpu time    6.1471: real time    6.1997
    SETDIJ:  cpu time    0.1836: real time    0.1842
    TRIAL :  cpu time   15.4587: real time   15.5878
    CORREC:  cpu time   11.7450: real time   11.8468
    CHARGE:  cpu time    2.2830: real time    2.2990
    --------------------------------------------
      LOOP:  cpu time   35.8666: real time   36.1811

 eigenvalue-minimisations  :     0
 total energy-change (2. order) :-0.8125789E-06  (-0.5228707E-07)
 number of electron     216.0000000 magnetization 
 augmentation part       -0.5055918 magnetization 

 Free energy of the ion-electron system (eV)
  ---------------------------------------------------
  alpha Z        PSCENC =        59.93625244
  Ewald energy   TEWEN  =     34916.46917963
  -Hartree energ DENC   =    -41966.49912457
  -exchange      EXHF   =         0.00000000
  -V(xc)+E(xc)   XCENC  =       649.01866332
  PAW double counting   =    147056.59923790  -146916.33576160
  entropy T*S    EENTRO =        -0.00000000
  eigenvalues    EBANDS =     -2694.66040508
  atomic energy  EATOM  =      8369.52358910
  ---------------------------------------------------
  free energy    TOTEN  =      -525.94836886 eV

  energy without entropy =     -525.94836886  energy(sigma->0) =     -525.94836886


--------------------------------------------------------------------------------------------------------




--------------------------------------- Iteration      1(  23)  ---------------------------------------


    POTLOK:  cpu time    6.1415: real time    6.1832
    SETDIJ:  cpu time    0.1719: real time    0.1725
    TRIAL :  cpu time   15.4502: real time   15.5881
    CORREC:  cpu time   11.7532: real time   11.8400
    EDDIAG:  cpu time    3.2074: real time    3.2322
    CHARGE:  cpu time    2.2818: real time    2.2978
    --------------------------------------------
      LOOP:  cpu time   39.0652: real time   39.3744

 eigenvalue-minimisations  :     0
 total energy-change (2. order) : 0.3029709E-07  (-0.3172901E-07)
 number of electron     216.0000000 magnetization 
 augmentation part       -0.5055920 magnetization 

 Free energy of the ion-electron system (eV)
  ---------------------------------------------------
  alpha Z        PSCENC =        59.93625244
  Ewald energy   TEWEN  =     34916.46917963
  -Hartree energ DENC   =    -41966.49617540
  -exchange      EXHF   =         0.00000000
  -V(xc)+E(xc)   XCENC  =       649.01855579
  PAW double counting   =    147056.66637577  -146916.40290583
  entropy T*S    EENTRO =        -0.00000000
  eigenvalues    EBANDS =     -2694.66324033
  atomic energy  EATOM  =      8369.52358910
  ---------------------------------------------------
  free energy    TOTEN  =      -525.94836883 eV

  energy without entropy =     -525.94836883  energy(sigma->0) =     -525.94836883


--------------------------------------------------------------------------------------------------------


  average scaling for gradient   0.7944


 average (electrostatic) potential at core
  the test charge radii are     0.5770  0.5955
  (the norm of the test charge is              1.0000)
       1 -87.7377       2 -87.7285       3 -87.7451       4 -87.7503       5 -87.7239
       6 -87.7177       7 -87.7329       8 -87.7040       9 -87.7200      10 -87.7191
      11 -87.7211      12 -87.7295      13 -87.7166      14 -87.7132      15 -87.7186
      16 -87.7192      17 -87.7268      18 -87.7304      19 -87.7328      20 -87.7260
      21 -87.7110      22 -87.7121      23 -87.7422      24 -87.7361      25 -87.7223
      26 -87.7240      27 -87.7169      28 -87.7381      29 -87.7188      30 -87.7187
      31 -87.7466      32 -87.7337      33 -87.7334      34 -87.7254      35 -87.7182
      36 -87.7258      37 -87.7238      38 -87.7319      39 -87.7313      40 -87.7301
      41 -87.7326      42 -87.7367      43 -87.7273      44 -87.7360      45 -87.7209
      46 -87.7181      47 -87.7295      48 -87.7241      49 -87.7319      50 -87.7301
      51 -91.7456      52-123.8611      53-123.8720
 
 
 
 E-fermi :  -4.0676     XC(G=0):  -2.3116     alpha+bet : -2.1113

 Fermi energy:        -4.0675632954

 k-point     1 :       0.0000    0.0000    0.0000
  band No.  band energies     occupation 
      1     -28.8132      2.00000
      2     -27.7850      2.00000
      3     -23.2383      2.00000
      4     -22.2661      2.00000
      5     -22.2570      2.00000
      6     -22.2498      2.00000
      7     -22.2490      2.00000
      8     -22.2457      2.00000
      9     -22.2408      2.00000
     10     -20.3292      2.00000
     11     -20.3251      2.00000
     12     -20.3176      2.00000
     13     -20.3159      2.00000
     14     -20.3143      2.00000
     15     -20.3139      2.00000
     16     -19.3906      2.00000
     17     -19.3870      2.00000
     18     -19.3836      2.00000
     19     -19.3813      2.00000
     20     -19.3799      2.00000
     21     -19.3792      2.00000
     22     -17.1691      2.00000
     23     -17.1667      2.00000
     24     -17.1622      2.00000
     25     -17.1612      2.00000
     26     -17.1568      2.00000
     27     -17.1558      2.00000
     28     -16.0098      2.00000
     29     -16.0080      2.00000
     30     -16.0030      2.00000
     31     -16.0025      2.00000
     32     -16.0004      2.00000
     33     -15.9997      2.00000
     34     -14.6145      2.00000
     35     -14.6132      2.00000
     36     -14.6122      2.00000
     37     -14.6092      2.00000
     38     -14.6090      2.00000
     39     -14.6085      2.00000
     40     -12.8012      2.00000
     41     -12.1557      2.00000
     42     -12.1548      2.00000
     43     -12.1502      2.00000
     44     -12.1496      2.00000
     45     -12.1493      2.00000
     46     -12.1481      2.00000
     47     -11.9395      2.00000
     48     -11.9371      2.00000
     49     -11.9350      2.00000
     50     -11.9346      2.00000
     51     -11.9295      2.00000
     52     -11.9294      2.00000
     53     -11.5300      2.00000
     54     -11.4511      2.00000
     55     -11.2657      2.00000
     56     -10.5352      2.00000
     57     -10.4888      2.00000
     58     -10.4883      2.00000
     59     -10.4870      2.00000
     60     -10.4867      2.00000
     61     -10.4858      2.00000
     62     -10.4849      2.00000
     63      -9.4294      2.00000
     64      -9.4286      2.00000
     65      -9.4261      2.00000
     66      -9.4224      2.00000
     67      -9.4206      2.00000
     68      -9.3096      2.00000
     69      -9.1940      2.00000
     70      -9.1901      2.00000
     71      -9.1879      2.00000
     72      -9.1877      2.00000
     73      -9.1859      2.00000
     74      -9.1846      2.00000
     75      -9.1840      2.00000
     76      -9.1827      2.00000
     77      -9.1817      2.00000
     78      -9.1815      2.00000
     79      -9.1804      2.00000
     80      -9.1790      2.00000
     81      -7.7947      2.00000
     82      -7.6847      2.00000
     83      -7.4821      2.00000
     84      -7.4814      2.00000
     85      -7.4805      2.00000
     86      -7.4761      2.00000
     87      -7.4740      2.00000
     88      -7.4737      2.00000
     89      -7.1955      2.00000
     90      -7.1842      2.00000
     91      -7.1794      2.00000
     92      -7.1685      2.00000
     93      -7.1649      2.00000
     94      -7.0487      2.00000
     95      -6.2504      2.00000
     96      -6.2471      2.00000
     97      -6.2362      2.00000
     98      -6.2353      2.00000
     99      -6.2256      2.00000
    100      -6.1724      2.00000
    101      -5.9627      2.00000
    102      -5.9602      2.00000
    103      -4.1574      2.00000
    104      -4.1500      2.00000
    105      -4.1427      2.00000
    106      -4.1384      2.00000
    107      -4.1357      2.00000
    108      -4.1338      2.00000
    109      -1.1940      0.00000
    110      -1.1880      0.00000
    111      -1.1693      0.00000
    112      -1.1652      0.00000
    113      -1.1634      0.00000
    114      -1.1567      0.00000
    115       0.7689      0.00000
    116       0.7866      0.00000
    117       0.7991      0.00000
    118       0.8106      0.00000
    119       0.8148      0.00000
    120       0.8196      0.00000
    121       0.8926      0.00000
    122       1.5935      0.00000
    123       1.6048      0.00000
    124       1.6654      0.00000
    125       1.9799      0.00000
    126       2.0350      0.00000
    127       2.2436      0.00000
    128       2.2824      0.00000
    129       2.2847      0.00000
    130       2.2905      0.00000
    131       2.3937      0.00000
    132       2.6739      0.00000
    133       2.6815      0.00000
    134       2.6946      0.00000
    135       2.6961      0.00000
    136       2.7036      0.00000
    137       2.7278      0.00000
    138       2.8509      0.00000
    139       2.9529      0.00000
    140       3.0039      0.00000
    141       3.0780      0.00000
    142       3.0866      0.00000
    143       3.0870      0.00000
    144       3.1297      0.00000
    145       3.3129      0.00000
    146       3.3545      0.00000
    147       3.3713      0.00000
    148       3.4264      0.00000
    149       3.5293      0.00000
    150       3.5346      0.00000
    151       3.9447      0.00000
    152       4.4963      0.00000
    153       4.6764      0.00000
    154       4.8018      0.00000
    155       4.8936      0.00000
    156       5.0336      0.00000
    157       5.0917      0.00000
    158       5.2835      0.00000
    159       5.2909      0.00000
    160       5.2930      0.00000
    161       5.2980      0.00000
    162       5.2984      0.00000
    163       5.3006      0.00000
    164       5.4085      0.00000
    165       5.4821      0.00000
    166       5.5858      0.00000
    167       5.6550      0.00000
    168       5.7254      0.00000


--------------------------------------------------------------------------------------------------------


 soft charge-density along one line, spin component           1
         0         1         2         3         4         5         6         7         8         9
 total charge-density along one line
 
 pseudopotential strength for first ion, spin component:           1
 12.630  21.251  -0.000   0.000   0.000  -0.000   0.000   0.000
 21.251  35.756  -0.000   0.000   0.000  -0.000   0.000   0.000
 -0.000  -0.000  -3.234   0.000   0.000  -5.794   0.000   0.000
  0.000   0.000   0.000  -3.238   0.000   0.000  -5.801   0.000
  0.000   0.000   0.000   0.000  -3.234   0.000   0.000  -5.794
 -0.000  -0.000  -5.794   0.000   0.000 -10.358   0.000   0.000
  0.000   0.000   0.000  -5.801   0.000   0.000 -10.368   0.000
  0.000   0.000   0.000   0.000  -5.794   0.000   0.000 -10.358
 total augmentation occupancy for first ion, spin component:           1
  9.641  -3.598  -0.000  -0.002  -0.000   0.000   0.001  -0.000
 -3.598   1.374  -0.000   0.001   0.000   0.000  -0.000  -0.000
 -0.000  -0.000   8.196  -0.009   0.001  -2.895   0.004  -0.000
 -0.002   0.001  -0.009   3.780  -0.000   0.004  -1.106  -0.000
 -0.000   0.000   0.001  -0.000   8.195  -0.000  -0.000  -2.895
  0.000   0.000  -2.895   0.004  -0.000   1.035  -0.001   0.000
  0.001  -0.000   0.004  -1.106  -0.000  -0.001   0.329   0.000
 -0.000  -0.000  -0.000  -0.000  -2.895   0.000   0.000   1.035


------------------------ aborting loop because EDIFF is reached ----------------------------------------


    FORLOC:  cpu time    0.1031: real time    0.1039
    FORNL :  cpu time    2.9096: real time    2.9332
    FORCOR:  cpu time    6.1741: real time    6.2278
    OFIELD:  cpu time    0.0024: real time    0.0025

 VOLUME and BASIS-vectors are now :
 -----------------------------------------------------------------------------
  energy-cutoff  :     1000.00
  volume of cell :     2631.08
      direct lattice vectors                 reciprocal lattice vectors
    12.325000000  0.000000000  0.000000000     0.081135903  0.046843835  0.000000000
    -6.162500000 10.673763102  0.000000000     0.000000000  0.093687670  0.000000000
     0.000000000  0.000000000 20.000000000     0.000000000  0.000000000  0.050000000

  length of vectors
    12.325000000 12.325000000 20.000000000     0.093687670  0.093687670  0.050000000


 FORCES acting on ions:
    Electron-Ion                     Ewald-Force                    Non-Local-Force
 -----------------------------------------------------------------------------------------------
   0.130E+02 0.114E+02 0.224E+02   -.130E+02 -.114E+02 -.224E+02   0.541E-02 -.276E-02 0.140E-01
   0.221E+02 0.110E+02 0.311E+02   -.221E+02 -.110E+02 -.310E+02   0.175E-01 -.179E-02 -.753E-02
   0.114E+02 0.286E+02 0.404E+02   -.114E+02 -.287E+02 -.405E+02   0.933E-02 0.631E-01 0.516E-01
   0.192E+02 0.283E+02 0.717E+02   -.193E+02 -.283E+02 -.719E+02   0.927E-01 0.511E-01 0.118E+00
   0.143E+02 0.338E+01 0.224E+02   -.143E+02 -.337E+01 -.224E+02   -.104E-01 -.688E-02 -.458E-02
   0.150E+02 -.250E+01 0.231E+02   -.150E+02 0.251E+01 -.230E+02   -.347E-01 0.376E-02 -.131E-01
   0.319E+02 0.135E+02 0.597E+02   -.320E+02 -.134E+02 -.597E+02   0.607E-01 -.789E-01 -.391E-01
   0.321E+02 -.106E+02 0.649E+02   -.320E+02 0.106E+02 -.648E+02   -.207E-01 -.213E-01 -.225E+00
   -.124E+02 0.269E+02 0.423E+02   0.124E+02 -.268E+02 -.423E+02   -.829E-02 -.491E-02 -.557E-01
   -.241E+02 0.208E+02 0.707E+02   0.242E+02 -.209E+02 -.706E+02   -.577E-01 0.404E-01 -.229E+00
   0.344E+01 -.299E+01 0.172E+02   -.342E+01 0.297E+01 -.172E+02   -.104E-01 0.593E-02 -.424E-02
   0.269E+01 -.217E+01 0.157E+02   -.270E+01 0.218E+01 -.157E+02   -.100E-01 -.296E-02 0.377E-02
   0.119E+02 -.302E+02 0.762E+02   -.121E+02 0.302E+02 -.761E+02   0.120E+00 0.162E-01 -.252E+00
   0.518E+01 -.292E+02 0.413E+02   -.522E+01 0.291E+02 -.413E+02   0.316E-01 -.362E-02 -.458E-01
   -.128E+02 0.805E+01 0.220E+02   0.127E+02 -.805E+01 -.220E+02   0.196E-01 -.861E-02 -.578E-02
   -.194E+02 0.538E+01 0.268E+02   0.194E+02 -.538E+01 -.268E+02   0.239E-02 0.103E-01 -.298E-01
   -.183E+01 -.741E+00 0.150E+02   0.184E+01 0.752E+00 -.150E+02   0.333E-02 -.217E-01 0.280E-02
   0.103E+01 0.682E+01 0.163E+02   -.104E+01 -.681E+01 -.163E+02   -.854E-03 -.944E-02 0.941E-02
   -.404E+01 -.230E+02 0.293E+02   0.402E+01 0.230E+02 -.293E+02   0.313E-01 -.981E-02 0.179E-01
   -.162E+01 -.106E+02 0.184E+02   0.163E+01 0.106E+02 -.184E+02   -.123E-01 -.146E-01 0.682E-03
   0.234E+02 -.101E+02 0.344E+02   -.233E+02 0.101E+02 -.343E+02   -.136E-01 0.462E-02 -.557E-01
   0.134E+02 -.116E+02 0.252E+02   -.134E+02 0.116E+02 -.252E+02   -.158E-01 0.271E-01 -.106E-01
   -.589E+01 0.143E+02 0.981E+02   0.602E+01 -.144E+02 -.983E+02   -.121E+00 0.101E+00 -.511E-01
   -.117E+02 -.228E+02 0.908E+02   0.116E+02 0.229E+02 -.909E+02   0.955E-01 -.936E-01 -.947E-02
   0.596E+01 -.267E+01 0.174E+02   -.593E+01 0.267E+01 -.173E+02   -.103E-01 -.417E-02 -.103E-01
   0.105E+01 0.537E+01 0.176E+02   -.105E+01 -.537E+01 -.176E+02   0.149E-02 -.225E-02 0.989E-03
   -.313E+02 0.334E+01 0.481E+02   0.313E+02 -.341E+01 -.480E+02   0.936E-02 0.423E-01 -.669E-01
   -.279E+02 -.122E+02 0.417E+02   0.280E+02 0.122E+02 -.417E+02   -.476E-01 0.443E-01 0.270E-01
   0.816E+01 -.168E+02 0.267E+02   -.817E+01 0.168E+02 -.266E+02   0.785E-02 0.166E-01 -.230E-01
   0.757E+00 -.598E+01 0.188E+02   -.775E+00 0.597E+01 -.187E+02   0.538E-02 0.106E-01 -.492E-02
   -.234E+02 -.254E+02 0.540E+02   0.234E+02 0.255E+02 -.541E+02   -.622E-01 -.457E-01 0.104E+00
   -.125E+02 -.227E+02 0.319E+02   0.125E+02 0.227E+02 -.319E+02   -.960E-02 -.467E-01 0.289E-01
   0.689E+00 0.281E+01 0.156E+02   -.679E+00 -.281E+01 -.156E+02   -.632E-02 -.538E-02 0.596E-02
   0.198E+01 0.286E+01 0.171E+02   -.198E+01 -.285E+01 -.171E+02   -.119E-01 -.123E-02 -.600E-02
   -.884E+01 0.104E+01 0.193E+02   0.883E+01 -.105E+01 -.193E+02   0.573E-02 0.795E-02 0.157E-02
   -.754E+01 -.298E+01 0.186E+02   0.754E+01 0.298E+01 -.186E+02   -.126E-01 0.948E-02 -.559E-02
   -.156E+02 -.814E+01 0.231E+02   0.156E+02 0.814E+01 -.231E+02   -.199E-01 -.684E-02 0.391E-02
   -.875E+01 -.712E+01 0.182E+02   0.876E+01 0.713E+01 -.182E+02   -.115E-01 -.122E-01 0.113E-01
   -.828E+01 -.108E+02 0.199E+02   0.829E+01 0.109E+02 -.199E+02   -.174E-01 -.297E-01 0.765E-02
   -.120E+01 -.252E+01 0.162E+02   0.120E+01 0.254E+01 -.162E+02   -.802E-02 -.159E-01 0.873E-02
   0.310E+01 0.737E+01 0.172E+02   -.310E+01 -.738E+01 -.172E+02   -.197E-02 0.154E-02 0.732E-02
   0.106E+02 0.165E+02 0.242E+02   -.106E+02 -.165E+02 -.243E+02   0.150E-01 0.190E-01 0.129E-01
   0.820E+00 0.134E+02 0.197E+02   -.821E+00 -.134E+02 -.197E+02   0.758E-02 0.354E-02 -.152E-02
   0.290E+00 0.264E+02 0.334E+02   -.264E+00 -.264E+02 -.335E+02   -.313E-01 0.120E-01 0.208E-01
   -.254E+01 0.508E+01 0.188E+02   0.254E+01 -.507E+01 -.188E+02   0.109E-01 -.115E-01 -.773E-02
   -.110E+02 0.141E+02 0.253E+02   0.110E+02 -.141E+02 -.253E+02   0.633E-02 -.569E-02 -.209E-01
   -.175E+01 -.501E+01 0.169E+02   0.175E+01 0.501E+01 -.169E+02   0.519E-02 -.160E-02 0.159E-02
   -.467E+01 0.193E+01 0.161E+02   0.466E+01 -.192E+01 -.161E+02   0.841E-03 -.337E-02 -.791E-02
   0.356E+00 -.310E+01 0.158E+02   -.344E+00 0.310E+01 -.158E+02   -.687E-02 -.111E-01 0.652E-02
   0.491E+01 0.361E+01 0.161E+02   -.490E+01 -.361E+01 -.161E+02   -.130E-01 0.761E-02 0.430E-02
   0.307E+00 -.186E+00 -.395E+03   -.279E+00 0.160E+00 0.395E+03   -.433E-01 0.285E-01 -.769E-01
   -.228E+03 0.155E+03 -.605E+03   0.279E+03 -.190E+03 0.608E+03   -.524E+02 0.357E+02 -.280E+01
   0.228E+03 -.155E+03 -.584E+03   -.279E+03 0.190E+03 0.580E+03   0.524E+02 -.357E+02 0.386E+01
 -----------------------------------------------------------------------------------------------
   0.553E-01 0.704E-02 -.264E+00   0.000E+00 0.568E-13 -.227E-12   -.809E-01 0.370E-02 0.263E+00
 
 
 POSITION                                       TOTAL-FORCE (eV/Angst)
 -----------------------------------------------------------------------------------
     11.98348      0.00342      0.01417        -0.008807      0.005893     -0.002627
     -0.34154      1.42665      0.01100        -0.002877      0.025985      0.000807
      2.12355      0.00315      0.01249         0.017495     -0.011345      0.008827
      2.12326      1.42653      0.00641         0.009125      0.027857     -0.013328
     10.75099      2.13819      0.01213        -0.008421      0.019491      0.003083
     -1.57382      3.56123      0.01110        -0.023821      0.016675      0.002612
      0.89078      2.13854      0.00548        -0.018010      0.042146     -0.020076
      0.89099      3.56147      0.00181        -0.012855      0.034363     -0.072358
      4.58864      0.00346      0.01135         0.033433      0.034259     -0.002116
      4.58894      1.42623      0.00646         0.049155     -0.005000     -0.101715
      9.51854      4.27281      0.01369         0.019265     -0.008956      0.001674
     -2.80632      5.69591      0.01434        -0.013378     -0.013009      0.002126
      2.12300      4.27302      0.00000        -0.024900      0.064342     -0.130482
      2.12335      5.69594      0.00581        -0.001991     -0.049377      0.000967
      7.05344      0.00333      0.01399         0.002581     -0.011233      0.004207
      7.05353      1.42635      0.01368        -0.007563      0.014793      0.001103
      8.28610      6.40752      0.01601         0.021413     -0.025842     -0.000038
     -4.03885      7.83070      0.01636         0.003494     -0.012897     -0.000885
      3.35586      6.40753      0.01007        -0.009855     -0.007537      0.004721
      3.35599      7.83072      0.01320        -0.017498     -0.012831      0.001133
     -0.34146      4.27290      0.00723         0.031847      0.003101      0.001448
     -0.34138      5.69591      0.00946        -0.009770      0.004041      0.008803
      3.35624      2.13791      0.00222         0.015875      0.007056     -0.187405
      3.35573      3.56155      0.00139         0.019276      0.029370     -0.120185
     -1.57395      6.40758      0.01311         0.035842     -0.012969     -0.000268
     -1.57385      7.83068      0.01438         0.010302     -0.002631      0.001050
      5.82093      2.13784      0.01033        -0.017094     -0.021638     -0.006575
      5.82114      3.56097      0.01156         0.009445     -0.007140      0.009558
      0.89092      6.40755      0.00907        -0.000691     -0.001316      0.004695
      0.89106      7.83068      0.01235        -0.012338      0.001030      0.003595
      4.58871      4.27293      0.00850        -0.008145     -0.007581      0.013352
      4.58852      5.69606      0.01149        -0.001023     -0.004023      0.004382
      9.51845      0.00337      0.01490        -0.013961     -0.009646      0.000525
      9.51855      1.42644      0.01438        -0.030109      0.029568      0.000354
      8.28593      2.13803      0.01453        -0.002377     -0.004516      0.003867
      8.28613      3.56115      0.01464        -0.012748     -0.003737      0.000113
      7.05356      4.27269      0.01457         0.001462     -0.009305      0.003935
      7.05362      5.69588      0.01553        -0.002553     -0.029790      0.000044
      5.82112      6.40755      0.01489        -0.014320     -0.021566     -0.000762
      5.82102      7.83073      0.01579        -0.012006     -0.015897     -0.001112
      7.05363      8.54227      0.01631         0.004185     -0.015342     -0.000525
     -5.27149      9.96549      0.01495         0.000313      0.000150     -0.004411
     -2.80638      8.54234      0.01558         0.028059     -0.011835     -0.000287
     -2.80627      9.96553      0.01362         0.013958      0.002770      0.005549
     -0.34149      8.54239      0.01378         0.025220     -0.011072      0.000983
     -0.34138      9.96550      0.01354         0.010846      0.014771      0.004197
      2.12343      8.54232      0.01336        -0.010880     -0.012235      0.001519
      2.12354      9.96544      0.01469        -0.028703      0.013056     -0.001132
      4.58846      8.54235      0.01505        -0.013155     -0.022086      0.001192
      4.58853      9.96550      0.01517        -0.024044      0.011248      0.000250
      3.04930      2.68154      2.80616        -0.030646      0.010796      0.077170
      4.02070      2.02068      2.87058        -1.583069      1.082949      0.111233
      2.07767      3.34267      2.74670         1.615015     -1.113358      0.377211
 -----------------------------------------------------------------------------------
    total drift:                               -0.025613      0.010738     -0.000437


--------------------------------------------------------------------------------------------------------



  FREE ENERGIE OF THE ION-ELECTRON SYSTEM (eV)
  ---------------------------------------------------
  free  energy   TOTEN  =      -525.94836883 eV

  energy  without entropy=     -525.94836883  energy(sigma->0) =     -525.94836883
 


--------------------------------------------------------------------------------------------------------


    POTLOK:  cpu time    6.2967: real time    6.3546


--------------------------------------------------------------------------------------------------------


 writing wavefunctions
     LOOP+:  cpu time  829.8342: real time  837.2761
    4ORBIT:  cpu time    0.0000: real time    0.0000

 total amount of memory used by VASP MPI-rank0   556209. kBytes
=======================================================================

   base      :      30000. kBytes
   nonl-proj :     184518. kBytes
   fftplans  :      31725. kBytes
   grid      :     282516. kBytes
   one-center:        162. kBytes
   wavefun   :      27288. kBytes
 
  
  
 General timing and accounting informations for this job:
 ========================================================
  
                  Total CPU time used (sec):      864.844
                            User time (sec):      834.647
                          System time (sec):       30.197
                         Elapsed time (sec):      874.506
  
                   Maximum memory used (kb):     1189204.
                   Average memory used (kb):          N/A
  
                          Minor page faults:       460948
                          Major page faults:           83
                 Voluntary context switches:         3613
