 vasp.6.2.1 16May21 (build Nov 06 2021 14:46:37) complex                        
  
 executed on             LinuxIFC date 2025.03.03  22:54:23
 running on  112 total cores
 distrk:  each k-point on   56 cores,    2 groups
 distr:  one band on NCORE=   1 cores,   56 groups


--------------------------------------------------------------------------------------------------------


 INCAR:
   ALGO = Conjugate
   KPAR = 2
   NCORE = 32
   ISMEAR = 0
   SIGMA = 0.01
   PREC = Accurate
   EDIFF = 1E-7
   ENCUT = 1000
   ISIF = 0
   METAGGA = SCAN
   LUSE_VDW = .TRUE.
   BPARAM = 15.7
   LASPH = .TRUE.
   SYMPREC = 1E-7
   NELM = 200

 POTCAR:    PAW_PBE C_h 06Feb2004                 
 POTCAR:    PAW_PBE O_h 06Feb2004                 
 -----------------------------------------------------------------------------
|                                                                             |
|           W    W    AA    RRRRR   N    N  II  N    N   GGGG   !!!           |
|           W    W   A  A   R    R  NN   N  II  NN   N  G    G  !!!           |
|           W    W  A    A  R    R  N N  N  II  N N  N  G       !!!           |
|           W WW W  AAAAAA  RRRRR   N  N N  II  N  N N  G  GGG   !            |
|           WW  WW  A    A  R   R   N   NN  II  N   NN  G    G                |
|           W    W  A    A  R    R  N    N  II  N    N   GGGG   !!!           |
|                                                                             |
|     The value NCORE = 32 specified in the INCAR file was overwritten,       |
|     because it was not compatible with the 56 processes available:          |
|     NCORE = 1                                                               |
|     was used instead, please check that this makes sense for your           |
|     machine.                                                                |
|                                                                             |
 -----------------------------------------------------------------------------

 -----------------------------------------------------------------------------
|                                                                             |
|           W    W    AA    RRRRR   N    N  II  N    N   GGGG   !!!           |
|           W    W   A  A   R    R  NN   N  II  NN   N  G    G  !!!           |
|           W    W  A    A  R    R  N N  N  II  N N  N  G       !!!           |
|           W WW W  AAAAAA  RRRRR   N  N N  II  N  N N  G  GGG   !            |
|           WW  WW  A    A  R   R   N   NN  II  N   NN  G    G                |
|           W    W  A    A  R    R  N    N  II  N    N   GGGG   !!!           |
|                                                                             |
|     For optimal performance we recommend to set                             |
|       NCORE = 2 up to number-of-cores-per-socket                            |
|     NCORE specifies how many cores store one orbital (NPAR=cpu/NCORE).      |
|     This setting can greatly improve the performance of VASP for DFT.       |
|     The default, NCORE=1 might be grossly inefficient on modern             |
|     multi-core architectures or massively parallel machines. Do your        |
|     own testing! More info at https://www.vasp.at/wiki/index.php/NCORE      |
|     Unfortunately you need to use the default for GW and RPA                |
|     calculations (for HF NCORE is supported but not extensively tested      |
|     yet).                                                                   |
|                                                                             |
 -----------------------------------------------------------------------------

 -----------------------------------------------------------------------------
|                                                                             |
|               ----> ADVICE to this user running VASP <----                  |
|                                                                             |
|     You have switched on vdW-DFT.                                           |
|     This routine was written and supplied by Jiri Klimes. We recommend      |
|     that you carefully read and cite the following publications:            |
|       J. Klimes, D.R. Bowler, A. Michelides                                 |
|          J. Phys.: Cond Matt. 22 022201 (2010)                              |
|       J. Klimes, D.R. Bowler, A. Michelides                                 |
|          Phys. Rev. B. 83, 195131 (2011)                                    |
|     and references therein.                                                 |
|                                                                             |
 -----------------------------------------------------------------------------

 POTCAR:    PAW_PBE C_h 06Feb2004                 
   VRHFIN =C: s2p2                                                                                  
   LEXCH  = PE                                                                                      
   EATOM  =   147.1560 eV,   10.8157 Ry                                                             
                                                                                                    
   TITEL  = PAW_PBE C_h 06Feb2004                                                                   
   LULTRA =        F    use ultrasoft PP ?                                                          
   IUNSCR =        1    unscreen: 0-lin 1-nonlin 2-no                                               
   RPACOR =    0.800    partial core radius                                                         
   POMASS =   12.011; ZVAL   =    4.000    mass and valenz                                          
   RCORE  =    1.100    outmost cutoff radius                                                       
   RWIGS  =    1.630; RWIGS  =    0.863    wigner-seitz radius (au A)                               
   ENMAX  =  700.000; ENMIN  =  500.000 eV                                                          
   ICORE  =        2    local potential                                                             
   LCOR   =        T    correct aug charges                                                         
   LPAW   =        T    paw PP                                                                      
   EAUG   =  946.768                                                                                
   DEXC   =    0.000                                                                                
   RMAX   =    1.128    core radius for proj-oper                                                   
   RAUG   =    1.300    factor for augmentation sphere                                              
   RDEP   =    1.162    radius for radial grids                                                     
   RDEPT  =    1.088    core radius for aug-charge                                                  
                                                                                                    
   Atomic configuration                                                                             
    4 entries                                                                                       
     n  l   j            E        occ.                                                              
     1  0  0.50      -273.3789   2.0000                                                             
     2  0  0.50       -13.7508   2.0000                                                             
     2  1  0.50        -5.2854   2.0000                                                             
     3  2  1.50        -5.4423   0.0000                                                             
   Description                                                                                      
     l       E           TYP  RCUT    TYP  RCUT                                                     
     0    -13.7508458     23  1.100                                                                 
     0     -8.2022199     23  1.100                                                                 
     1     -5.2854383     23  1.100                                                                 
     1      1.1560700     23  1.100                                                                 
     2     -5.4423304      7  1.100                                                                 
  local pseudopotential read in
  partial core-charges read in
  partial kinetic energy density read in
  atomic valenz-charges read in
  non local Contribution for L=           0  read in
    real space projection operators read in
  non local Contribution for L=           0  read in
    real space projection operators read in
  non local Contribution for L=           1  read in
    real space projection operators read in
  non local Contribution for L=           1  read in
    real space projection operators read in
    PAW grid and wavefunctions read in
 
   number of l-projection  operators is LMAX  =           4
   number of lm-projection operators is LMMAX =           8
 
 POTCAR:    PAW_PBE O_h 06Feb2004                 
   VRHFIN =O: s2p4                                                                                  
   LEXCH  = PE                                                                                      
   EATOM  =   432.3788 eV,   31.7789 Ry                                                             
                                                                                                    
   TITEL  = PAW_PBE O_h 06Feb2004                                                                   
   LULTRA =        F    use ultrasoft PP ?                                                          
   IUNSCR =        1    unscreen: 0-lin 1-nonlin 2-no                                               
   RPACOR =    0.800    partial core radius                                                         
   POMASS =   16.000; ZVAL   =    6.000    mass and valenz                                          
   RCORE  =    1.100    outmost cutoff radius                                                       
   RWIGS  =    1.400; RWIGS  =    0.741    wigner-seitz radius (au A)                               
   ENMAX  =  700.000; ENMIN  =  500.000 eV                                                          
   ICORE  =        2    local potential                                                             
   LCOR   =        T    correct aug charges                                                         
   LPAW   =        T    paw PP                                                                      
   EAUG   =  888.804                                                                                
   DEXC   =    0.000                                                                                
   RMAX   =    1.128    core radius for proj-oper                                                   
   RAUG   =    1.300    factor for augmentation sphere                                              
   RDEP   =    1.125    radius for radial grids                                                     
   RDEPT  =    1.088    core radius for aug-charge                                                  
                                                                                                    
   Atomic configuration                                                                             
    4 entries                                                                                       
     n  l   j            E        occ.                                                              
     1  0  0.50      -514.6923   2.0000                                                             
     2  0  0.50       -23.9615   2.0000                                                             
     2  1  0.50        -9.0305   4.0000                                                             
     3  2  1.50        -9.5241   0.0000                                                             
   Description                                                                                      
     l       E           TYP  RCUT    TYP  RCUT                                                     
     0    -23.9615319     23  1.100                                                                 
     0    -25.3221145     23  1.100                                                                 
     1     -9.0304911     23  1.100                                                                 
     1     -5.4802209     23  1.100                                                                 
     2     -9.5240782      7  1.100                                                                 
  local pseudopotential read in
  partial core-charges read in
  partial kinetic energy density read in
  atomic valenz-charges read in
  non local Contribution for L=           0  read in
    real space projection operators read in
  non local Contribution for L=           0  read in
    real space projection operators read in
  non local Contribution for L=           1  read in
    real space projection operators read in
  non local Contribution for L=           1  read in
    real space projection operators read in
    PAW grid and wavefunctions read in
 
   number of l-projection  operators is LMAX  =           4
   number of lm-projection operators is LMMAX =           8
 
 -----------------------------------------------------------------------------
|                                                                             |
|               ----> ADVICE to this user running VASP <----                  |
|                                                                             |
|     You have a (more or less) 'large supercell' and for larger cells it     |
|     might be more efficient to use real-space projection operators.         |
|     Therefore, try LREAL= Auto in the INCAR file.                           |
|     Mind: For very accurate calculation, you might also keep the            |
|     reciprocal projection scheme (i.e. LREAL=.FALSE.).                      |
|                                                                             |
 -----------------------------------------------------------------------------

  PAW_PBE C_h 06Feb2004                 :
 energy of atom  1       EATOM= -147.1560
 kinetic energy error for atom=    0.0031 (will be added to EATOM!!)
  PAW_PBE O_h 06Feb2004                 :
 energy of atom  2       EATOM= -432.3788
 kinetic energy error for atom=    0.0171 (will be added to EATOM!!)
 
 
 POSCAR:  C  O
  positions in cartesian coordinates
  No initial velocities read in

 METAGGA = SCAN     LMAXTAU =  6    LMIXTAU =  F

 exchange correlation table for  LEXCH =        8
   RHO(1)=    0.500       N(1)  =     2000
   RHO(2)=  100.500       N(2)  =     4000
 


--------------------------------------------------------------------------------------------------------


 ion  position               nearest neighbor table
   1  0.972  0.000  0.001-  50 1.42   2 1.42  42 1.42
   2  0.039  0.134  0.001-   5 1.42   7 1.42   1 1.42
   3  0.172  0.000  0.001-  42 1.42  44 1.42   4 1.42
   4  0.239  0.134  0.000-   7 1.42   3 1.42  23 1.42
   5  0.972  0.200  0.001-   6 1.42   2 1.42  34 1.42
   6  0.039  0.334  0.001-   5 1.42  21 1.42  11 1.42
   7  0.172  0.200  0.000-   8 1.42   2 1.42   4 1.42
   8  0.239  0.334  0.000-  13 1.42   7 1.42  21 1.42
   9  0.372  0.000  0.001-  10 1.42  44 1.42  46 1.42
  10  0.439  0.134  0.000-  27 1.42   9 1.42  23 1.42
  11  0.972  0.400  0.001-  12 1.42  36 1.42   6 1.42
  12  0.039  0.534  0.001-  25 1.42  11 1.42  17 1.42
  13  0.372  0.400  0.000-   8 1.42  14 1.42  24 1.42
  14  0.439  0.534  0.000-  13 1.42  29 1.42  19 1.42
  15  0.572  0.000  0.001-  46 1.42  16 1.42  48 1.42
  16  0.639  0.134  0.001-  15 1.42  35 1.42  27 1.42
  17  0.972  0.600  0.001-  38 1.42  18 1.42  12 1.42
  18  0.039  0.734  0.001-  43 1.42  41 1.42  17 1.42
  19  0.572  0.600  0.001-  14 1.42  20 1.42  32 1.42
  20  0.639  0.734  0.001-  49 1.42  19 1.42  47 1.42
  21  0.172  0.400  0.000-  22 1.42   8 1.42   6 1.42
  22  0.239  0.534  0.000-  21 1.42  29 1.42  25 1.42
  23  0.372  0.200  0.000-  10 1.42   4 1.42  24 1.42
  24  0.439  0.334  0.000-  13 1.42  31 1.42  23 1.42
  25  0.172  0.600  0.001-  26 1.42  12 1.42  22 1.42
  26  0.239  0.734  0.001-  25 1.42  45 1.42  43 1.42
  27  0.572  0.200  0.001-  10 1.42  28 1.42  16 1.42
  28  0.639  0.334  0.001-  27 1.42  37 1.42  31 1.42
  29  0.372  0.600  0.000-  22 1.42  14 1.42  30 1.42
  30  0.439  0.734  0.001-  47 1.42  29 1.42  45 1.42
  31  0.572  0.400  0.000-  32 1.42  28 1.42  24 1.42
  32  0.639  0.534  0.001-  31 1.42  39 1.42  19 1.42
  33  0.772  0.000  0.001-  34 1.42  48 1.42  50 1.42
  34  0.839  0.134  0.001-  33 1.42   5 1.42  35 1.42
  35  0.772  0.200  0.001-  36 1.42  16 1.42  34 1.42
  36  0.839  0.334  0.001-  35 1.42  11 1.42  37 1.42
  37  0.772  0.400  0.001-  28 1.42  38 1.42  36 1.42
  38  0.839  0.534  0.001-  17 1.42  37 1.42  39 1.42
  39  0.772  0.600  0.001-  40 1.42  38 1.42  32 1.42
  40  0.839  0.734  0.001-  39 1.42  49 1.42  41 1.42
  41  0.972  0.800  0.001-  18 1.42  42 1.42  40 1.42
  42  0.039  0.934  0.001-   3 1.42  41 1.42   1 1.42
  43  0.172  0.800  0.001-  18 1.42  44 1.42  26 1.42
  44  0.239  0.934  0.001-   9 1.42  43 1.42   3 1.42
  45  0.372  0.800  0.001-  26 1.42  46 1.42  30 1.42
  46  0.439  0.934  0.001-  15 1.42  45 1.42   9 1.42
  47  0.572  0.800  0.001-  30 1.42  48 1.42  20 1.42
  48  0.639  0.934  0.001-  47 1.42  33 1.42  15 1.42
  49  0.772  0.800  0.001-  50 1.42  20 1.42  40 1.42
  50  0.839  0.934  0.001-  49 1.42   1 1.42  33 1.42
  51  0.373  0.251  0.445-  52 1.18  53 1.18
  52  0.421  0.189  0.449-  51 1.18
  53  0.325  0.313  0.442-  51 1.18
 
  LATTYP: Found a hexagonal cell.
 ALAT       =    12.3250000000
 C/A-ratio  =     1.6227180527
  
  Lattice vectors:
  
 A1 = (  12.3250000000,   0.0000000000,   0.0000000000)
 A2 = (  -6.1625000000,  10.6737631016,   0.0000000000)
 A3 = (   0.0000000000,   0.0000000000,  20.0000000000)


Analysis of symmetry for initial positions (statically):
=====================================================================
 Subroutine PRICEL returns:
 Original cell was already a primitive cell.
 

 Routine SETGRP: Setting up the symmetry group for a 
 hexagonal supercell.


 Subroutine GETGRP returns: Found  1 space group operations
 (whereof  1 operations were pure point group operations)
 out of a pool of 24 trial point group operations.


The static configuration has the point symmetry C_1 .


Analysis of symmetry for dynamics (positions and initial velocities):
=====================================================================
 Subroutine PRICEL returns:
 Original cell was already a primitive cell.
 

 Routine SETGRP: Setting up the symmetry group for a 
 hexagonal supercell.


 Subroutine GETGRP returns: Found  1 space group operations
 (whereof  1 operations were pure point group operations)
 out of a pool of 24 trial point group operations.


The dynamic configuration has the point symmetry C_1 .


 Subroutine INISYM returns: Found  1 space group operations
 (whereof  1 operations are pure point group operations),
 and found     1 'primitive' translations


----------------------------------------------------------------------------------------

                                     Primitive cell                                     

  volume of cell :    2631.0826

  direct lattice vectors                    reciprocal lattice vectors
    12.325000000  0.000000000  0.000000000     0.081135903  0.046843835  0.000000000
    -6.162500000 10.673763102  0.000000000     0.000000000  0.093687670  0.000000000
     0.000000000  0.000000000 20.000000000     0.000000000  0.000000000  0.050000000

  length of vectors
    12.325000000 12.325000000 20.000000000     0.093687670  0.093687670  0.050000000

  position of ions in fractional coordinates (direct lattice)
     0.972450841  0.000320818  0.000708389
     0.039118382  0.133659505  0.000550216
     0.172443627  0.000295449  0.000624535
     0.239096278  0.133647917  0.000320585
     0.972452058  0.200322012  0.000606523
     0.039128360  0.333643771  0.000555187
     0.172451764  0.200354552  0.000273959
     0.239124359  0.333665720  0.000090325
     0.372465565  0.000324403  0.000567391
     0.439137473  0.133619939  0.000322923
     0.972449824  0.400309362  0.000684513
     0.039124981  0.533636789  0.000716763
     0.372416176  0.400329481  0.000000000
     0.439099602  0.533638981  0.000290518
     0.572443676  0.000312125  0.000699475
     0.639110207  0.133631751  0.000684093
     0.972452703  0.600305653  0.000800361
     0.039124495  0.733640359  0.000818141
     0.572433471  0.600306242  0.000503618
     0.639111888  0.733641879  0.000659881
     0.172454630  0.400318228  0.000361306
     0.239120185  0.533636548  0.000473136
     0.372459750  0.200295993  0.000111246
     0.439107096  0.333673419  0.000069702
     0.172452155  0.600311506  0.000655425
     0.239123371  0.733638574  0.000718912
     0.572431082  0.200289171  0.000516621
     0.639112773  0.333618630  0.000577970
     0.372439808  0.600308022  0.000453556
     0.439116090  0.733637858  0.000617737
     0.572469358  0.400320504  0.000424897
     0.639119408  0.533650873  0.000574513
     0.772445723  0.000315427  0.000745201
     0.839116277  0.133640203  0.000719132
     0.772440513  0.200307432  0.000726291
     0.839120241  0.333635728  0.000731834
     0.772446320  0.400298367  0.000728722
     0.839118980  0.533633964  0.000776376
     0.772456143  0.600308173  0.000744639
     0.839115033  0.733643180  0.000789390
     0.972455313  0.800305582  0.000815291
     0.039114714  0.933643289  0.000747563
     0.172457971  0.800312211  0.000779216
     0.239134551  0.933647193  0.000681063
     0.372451396  0.800316674  0.000689249
     0.439124489  0.933644769  0.000676788
     0.572441101  0.800310054  0.000668168
     0.639115067  0.933638985  0.000734556
     0.772445098  0.800313187  0.000752577
     0.839116614  0.933644338  0.000758538
     0.373021009  0.251226878  0.445449359
     0.420879805  0.189313152  0.448670452
     0.325156981  0.313167186  0.442476615

  ion indices of the primitive-cell ions
   primitive index   ion index
                 1           1
                 2           2
                 3           3
                 4           4
                 5           5
                 6           6
                 7           7
                 8           8
                 9           9
                10          10
                11          11
                12          12
                13          13
                14          14
                15          15
                16          16
                17          17
                18          18
                19          19
                20          20
                21          21
                22          22
                23          23
                24          24
                25          25
                26          26
                27          27
                28          28
                29          29
                30          30
                31          31
                32          32
                33          33
                34          34
                35          35
                36          36
                37          37
                38          38
                39          39
                40          40
                41          41
                42          42
                43          43
                44          44
                45          45
                46          46
                47          47
                48          48
                49          49
                50          50
                51          51
                52          52
                53          53

----------------------------------------------------------------------------------------

 
 
 KPOINTS: auto                                    

Automatic generation of k-mesh.
 Grid dimensions read from file:
 generate k-points for:    1    1    1

 Generating k-lattice:

  Cartesian coordinates                     Fractional coordinates (reciprocal lattice)
     0.081135903  0.046843835  0.000000000     1.000000000 -0.000000000  0.000000000
     0.000000000  0.093687670  0.000000000     0.000000000  1.000000000  0.000000000
     0.000000000  0.000000000  0.050000000     0.000000000  0.000000000  1.000000000

  Length of vectors
     0.093687670  0.093687670  0.050000000

  Shift w.r.t. Gamma in fractional coordinates (k-lattice)
     0.000000000  0.000000000  0.000000000

 
 Subroutine IBZKPT returns following result:
 ===========================================
 
 Found      1 irreducible k-points:
 
 Following reciprocal coordinates:
            Coordinates               Weight
  0.000000  0.000000  0.000000      1.000000
 
 Following cartesian coordinates:
            Coordinates               Weight
  0.000000  0.000000  0.000000      1.000000
 


--------------------------------------------------------------------------------------------------------




 Dimension of arrays:
   k-points           NKPTS =      1   k-points in BZ     NKDIM =      1   number of bands    NBANDS=    168
   number of dos      NEDOS =    301   number of ions     NIONS =     53
   non local maximal  LDIM  =      4   non local SUM 2l+1 LMDIM =      8
   total plane-waves  NPLWV = ******
   max r-space proj   IRMAX =      1   max aug-charges    IRDMAX=   9736
   dimension x,y,z NGX =   128 NGY =  128 NGZ =  210
   dimension x,y,z NGXF=   256 NGYF=  256 NGZF=  420
   support grid    NGXF=   256 NGYF=  256 NGZF=  420
   ions per type =              51   2
   NGX,Y,Z   is equivalent  to a cutoff of  17.27, 17.27, 17.46 a.u.
   NGXF,Y,Z  is equivalent  to a cutoff of  34.53, 34.53, 34.91 a.u.

 SYSTEM =  unknown system                          
 POSCAR =   C  O                                   

 Startparameter for this run:
   NWRITE =      2    write-flag & timer
   PREC   = accura    normal or accurate (medium, high low for compatibility)
   ISTART =      0    job   : 0-new  1-cont  2-samecut
   ICHARG =      2    charge: 1-file 2-atom 10-const
   ISPIN  =      1    spin polarized calculation?
   LNONCOLLINEAR =      F non collinear calculations
   LSORBIT =      F    spin-orbit coupling
   INIWAV =      1    electr: 0-lowe 1-rand  2-diag
   LASPH  =      T    aspherical Exc in radial PAW
 Electronic Relaxation 1
   ENCUT  = 1000.0 eV  73.50 Ry    8.57 a.u.  31.78 31.78 51.57*2*pi/ulx,y,z
   ENINI  = 1000.0     initial cutoff
   ENAUG  =  946.8 eV  augmentation charge cutoff
   NELM   =    200;   NELMIN=  2; NELMDL= -5     # of ELM steps 
   EDIFF  = 0.1E-06   stopping-criterion for ELM
   LREAL  =      F    real-space projection
   NLSPLINE    = F    spline interpolate recip. space projectors
   LCOMPAT=      F    compatible to vasp.4.4
   GGA_COMPAT  = T    GGA compatible to vasp.4.4-vasp.4.6
   LMAXPAW     = -100 max onsite density
   LMAXMIX     =    2 max onsite mixed and CHGCAR
   VOSKOWN=      0    Vosko Wilk Nusair interpolation
   ROPT   =    0.00000   0.00000
 Ionic relaxation
   EDIFFG = 0.1E-05   stopping-criterion for IOM
   NSW    =      0    number of steps for IOM
   NBLOCK =      1;   KBLOCK =      1    inner block; outer block 
   IBRION =     -1    ionic relax: 0-MD 1-quasi-New 2-CG
   NFREE  =      0    steps in history (QN), initial steepest desc. (CG)
   ISIF   =      0    stress and relaxation
   IWAVPR =     10    prediction:  0-non 1-charg 2-wave 3-comb
   ISYM   =      2    0-nonsym 1-usesym 2-fastsym
   LCORR  =      T    Harris-Foulkes like correction to forces

   POTIM  = 0.5000    time-step for ionic-motion
   TEIN   =    0.0    initial temperature
   TEBEG  =    0.0;   TEEND  =   0.0 temperature during run
   SMASS  =  -3.00    Nose mass-parameter (am)
   estimated Nose-frequenzy (Omega)   =  0.10E-29 period in steps = 0.13E+47 mass=  -0.347E-26a.u.
   SCALEE = 1.0000    scale energy and forces
   NPACO  =    256;   APACO  = 16.0  distance and # of slots for P.C.
   PSTRESS=    0.0 pullay stress

  Mass of Ions in am
   POMASS =  12.01 16.00
  Ionic Valenz
   ZVAL   =   4.00  6.00
  Atomic Wigner-Seitz radii
   RWIGS  =  -1.00 -1.00
  virtual crystal weights 
   VCA    =   1.00  1.00
   NELECT =     216.0000    total number of electrons
   NUPDOWN=      -1.0000    fix difference up-down

 DOS related values:
   EMIN   =  10.00;   EMAX   =-10.00  energy-range for DOS
   EFERMI =   0.00
   ISMEAR =     0;   SIGMA  =   0.01  broadening in eV -4-tet -1-fermi 0-gaus

 Electronic relaxation 2 (details)
   IALGO  =     58    algorithm
   LDIAG  =      T    sub-space diagonalisation (order eigenvalues)
   LSUBROT=      F    optimize rotation matrix (better conditioning)
   TURBO    =      0    0=normal 1=particle mesh
   IRESTART =      0    0=no restart 2=restart with 2 vectors
   NREBOOT  =      0    no. of reboots
   NMIN     =      0    reboot dimension
   EREF     =   0.00    reference energy to select bands
   IMIX   =      4    mixing-type and parameters
     AMIX     =   0.40;   BMIX     =  1.00
     AMIX_MAG =   1.60;   BMIX_MAG =  1.00
     AMIN     =   0.10
     WC   =   100.;   INIMIX=   1;  MIXPRE=   1;  MAXMIX= -45

 Intra band minimization:
   WEIMIN = 0.0000     energy-eigenvalue tresh-hold
   EBREAK =  0.15E-09  absolut break condition
   DEPER  =   0.30     relativ break condition  

   TIME   =   0.40     timestep for ELM

  volume/ion in A,a.u.               =      49.64       335.01
  Fermi-wavevector in a.u.,A,eV,Ry     =   0.711510  1.344560  6.887909  0.506247
  Thomas-Fermi vector in A             =   1.798641
 
 Write flags
   LWAVE        =      T    write WAVECAR
   LDOWNSAMPLE  =      F    k-point downsampling of WAVECAR
   LCHARG       =      T    write CHGCAR
   LVTOT        =      F    write LOCPOT, total local potential
   LVHAR        =      F    write LOCPOT, Hartree potential only
   LELF         =      F    write electronic localiz. function (ELF)
   LORBIT       =      0    0 simple, 1 ext, 2 COOP (PROOUT), +10 PAW based schemes


 Dipole corrections
   LMONO  =      F    monopole corrections only (constant potential shift)
   LDIPOL =      F    correct potential (dipole corrections)
   IDIPOL =      0    1-x, 2-y, 3-z, 4-all directions 
   EPSILON=  1.0000000 bulk dielectric constant

 Exchange correlation treatment:
   GGA     =    --    GGA type
   LEXCH   =     8    internal setting for exchange type
   VOSKOWN=      0    Vosko Wilk Nusair interpolation
   LHFCALC =     F    Hartree Fock is set to
   LHFONE  =     F    Hartree Fock one center treatment
   AEXX    =    0.0000 exact exchange contribution

 vdW DFT:
   LUSE_VDW   =     T    switch on vdW DFT
   Zab_VDW    =-.8491    correlation parameter
   PARAM1     =0.1234
   PARAM2     =1.0000
   PARAM3     =0.0000
   -- rVV10 --
   BPARAM     =15.7000
   CPARAM     = 0.0093

 Linear response parameters
   LEPSILON=     F    determine dielectric tensor
   LRPA    =     F    only Hartree local field effects (RPA)
   LNABLA  =     F    use nabla operator in PAW spheres
   LVEL    =     F    velocity operator in full k-point grid
   LINTERFAST=   F  fast interpolation
   KINTER  =     0    interpolate to denser k-point grid
   CSHIFT  =0.1000    complex shift for real part using Kramers Kronig
   OMEGAMAX=  -1.0    maximum frequency
   DEG_THRESHOLD= 0.2000000E-02 threshold for treating states as degnerate
   RTIME   =   -0.100 relaxation time in fs
  (WPLASMAI=    0.000 imaginary part of plasma frequency in eV, 0.658/RTIME)
   DFIELD  = 0.0000000 0.0000000 0.0000000 field for delta impulse in time
 
 Orbital magnetization related:
   ORBITALMAG=     F  switch on orbital magnetization
   LCHIMAG   =     F  perturbation theory with respect to B field
   DQ        =  0.001000  dq finite difference perturbation B field
   LLRAUG    =     F  two centre corrections for induced B field



--------------------------------------------------------------------------------------------------------


 Static calculation
 charge density and potential will be updated during run
 non-spin polarized calculation
 Conjugate gradient for all bands (Freysoldt, et al. PRB 79, 241103 (2009))
 preconditioned conjugated gradient                                        
 perform sub-space diagonalisation
    before iterative eigenvector-optimisation
 modified Broyden-mixing scheme, WC =      100.0
 initial mixing is a Kerker type mixing with AMIX =  0.4000 and BMIX =      1.0000
 Hartree-type preconditioning will be used
 using additional bands           60
 reciprocal scheme for non local part
 use partial core corrections
 no Harris-corrections to forces 
 use gradient corrections 
 use of overlap-Matrix (Vanderbilt PP)
 Gauss-broadening in eV      SIGMA  =   0.01


--------------------------------------------------------------------------------------------------------


  energy-cutoff  :     1000.00
  volume of cell :     2631.08
      direct lattice vectors                 reciprocal lattice vectors
    12.325000000  0.000000000  0.000000000     0.081135903  0.046843835  0.000000000
    -6.162500000 10.673763102  0.000000000     0.000000000  0.093687670  0.000000000
     0.000000000  0.000000000 20.000000000     0.000000000  0.000000000  0.050000000

  length of vectors
    12.325000000 12.325000000 20.000000000     0.093687670  0.093687670  0.050000000


 
 k-points in units of 2pi/SCALE and weight: auto                                    
   0.00000000  0.00000000  0.00000000       1.000
 
 k-points in reciprocal lattice and weights: auto                                    
   0.00000000  0.00000000  0.00000000       1.000
 
 position of ions in fractional coordinates (direct lattice) 
   0.97245084  0.00032082  0.00070839
   0.03911838  0.13365950  0.00055022
   0.17244363  0.00029545  0.00062454
   0.23909628  0.13364792  0.00032058
   0.97245206  0.20032201  0.00060652
   0.03912836  0.33364377  0.00055519
   0.17245176  0.20035455  0.00027396
   0.23912436  0.33366572  0.00009033
   0.37246557  0.00032440  0.00056739
   0.43913747  0.13361994  0.00032292
   0.97244982  0.40030936  0.00068451
   0.03912498  0.53363679  0.00071676
   0.37241618  0.40032948  0.00000000
   0.43909960  0.53363898  0.00029052
   0.57244368  0.00031213  0.00069947
   0.63911021  0.13363175  0.00068409
   0.97245270  0.60030565  0.00080036
   0.03912449  0.73364036  0.00081814
   0.57243347  0.60030624  0.00050362
   0.63911189  0.73364188  0.00065988
   0.17245463  0.40031823  0.00036131
   0.23912018  0.53363655  0.00047314
   0.37245975  0.20029599  0.00011125
   0.43910710  0.33367342  0.00006970
   0.17245216  0.60031151  0.00065542
   0.23912337  0.73363857  0.00071891
   0.57243108  0.20028917  0.00051662
   0.63911277  0.33361863  0.00057797
   0.37243981  0.60030802  0.00045356
   0.43911609  0.73363786  0.00061774
   0.57246936  0.40032050  0.00042490
   0.63911941  0.53365087  0.00057451
   0.77244572  0.00031543  0.00074520
   0.83911628  0.13364020  0.00071913
   0.77244051  0.20030743  0.00072629
   0.83912024  0.33363573  0.00073183
   0.77244632  0.40029837  0.00072872
   0.83911898  0.53363396  0.00077638
   0.77245614  0.60030817  0.00074464
   0.83911503  0.73364318  0.00078939
   0.97245531  0.80030558  0.00081529
   0.03911471  0.93364329  0.00074756
   0.17245797  0.80031221  0.00077922
   0.23913455  0.93364719  0.00068106
   0.37245140  0.80031667  0.00068925
   0.43912449  0.93364477  0.00067679
   0.57244110  0.80031005  0.00066817
   0.63911507  0.93363899  0.00073456
   0.77244510  0.80031319  0.00075258
   0.83911661  0.93364434  0.00075854
   0.37302101  0.25122688  0.44544936
   0.42087980  0.18931315  0.44867045
   0.32515698  0.31316719  0.44247662
 
 position of ions in cartesian coordinates  (Angst):
  11.98347958  0.00342433  0.01416777
  -0.34154264  1.42664989  0.01100432
   2.12354700  0.00315355  0.01249070
   2.12325634  1.42652621  0.00641170
  10.75098721  2.13818970  0.01213047
  -1.57382270  3.56123457  0.01110375
   0.89078307  2.13853702  0.00547917
   0.89099273  3.56146885  0.00180651
   4.58863896  0.00346260  0.01134782
   4.58893648  1.42622757  0.00645846
   9.51853763  4.27280730  0.01369027
  -2.80632132  5.69591267  0.01433526
   2.12299894  4.27302204  0.00000000
   2.12335237  5.69593607  0.00581036
   7.05344483  0.00333155  0.01398950
   7.05352764  1.42635365  0.01368187
   8.28609598  6.40752033  0.01600723
  -4.03884931  7.83070339  0.01636283
   3.35585531  6.40752662  0.01007237
   3.35598594  7.83071962  0.01319763
  -0.34145776  4.27290193  0.00722612
  -0.34137895  5.69591010  0.00946273
   3.35624236  2.13791198  0.00222492
   3.35573251  3.56155103  0.00139405
  -1.57394684  6.40758280  0.01310850
  -1.57385216  7.83068434  0.01437823
   5.82093107  2.13783916  0.01033241
   5.82114012  3.56096622  0.01155939
   0.89092245  6.40754561  0.00907111
   0.89106251  7.83067670  0.01235474
   4.58870974  4.27292622  0.00849795
   4.58852320  5.69606300  0.01149026
   9.51844972  0.00336679  0.01490402
   9.51855036  1.42644387  0.01438264
   8.28593477  2.13803408  0.01452582
   8.28612680  3.56114872  0.01463668
   7.05356221  4.27268994  0.01457444
   7.05362213  5.69588251  0.01552751
   5.82112285  6.40754723  0.01489279
   5.82101669  7.83073350  0.01578780
   7.05362858  8.54227219  0.01630582
  -5.27148792  9.96548729  0.01495127
  -2.80637951  8.54234295  0.01558431
  -2.80626749  9.96552896  0.01362126
  -0.34148805  8.54239058  0.01378498
  -0.34137657  9.96550309  0.01353576
   2.12342586  8.54231992  0.01336337
   2.12354296  9.96544135  0.01469111
   4.58845581  8.54235337  0.01505154
   4.58852904  9.96549848  0.01517076
   3.04929830  2.68153618  8.90898718
   4.02070129  2.02068374  8.97340904
   2.07766701  3.34267235  8.84953231
 


--------------------------------------------------------------------------------------------------------


 k-point   1 :   0.0000 0.0000 0.0000  plane waves:  189031

 maximum and minimum number of plane-waves per node :    189031   189031

 maximum number of plane-waves:    189031
 maximum index in each direction: 
   IXMAX=   31   IYMAX=   31   IZMAX=   51
   IXMIN=  -31   IYMIN=  -31   IZMIN=  -51


 serial   3D FFT for wavefunctions
 parallel 3D FFT for charge:
    minimum data exchange during FFTs selected (reduces bandwidth)


 total amount of memory used by VASP MPI-rank0   556209. kBytes
=======================================================================

   base      :      30000. kBytes
   nonl-proj :     184518. kBytes
   fftplans  :      31725. kBytes
   grid      :     282516. kBytes
   one-center:        162. kBytes
   wavefun   :      27288. kBytes
 
     INWAV:  cpu time    0.0000: real time    0.0000
 Broyden mixing: mesh for mixing (old mesh)
   NGX = 63   NGY = 63   NGZ =103
  (NGX  =256   NGY  =256   NGZ  =420)
  gives a total of 408807 points

 initial charge density was supplied:
 charge density of overlapping atoms calculated
 number of electron     216.0000000 magnetization 
 keeping initial charge density in first step


--------------------------------------------------------------------------------------------------------


 Maximum index for augmentation-charges          459 (set IRDMAX)


--------------------------------------------------------------------------------------------------------


 First call to EWALD:  gamma=   0.128
 Maximum number of real-space cells 3x 3x 2
 Maximum number of reciprocal cells 3x 3x 4

    FEWALD:  cpu time    0.0031: real time    0.0031


--------------------------------------- Iteration      1(   1)  ---------------------------------------


    POTLOK:  cpu time    6.2680: real time    6.3167
    SETDIJ:  cpu time    0.1411: real time    0.1417
    TRIAL :  cpu time   21.7649: real time   21.9706
    CORREC:  cpu time    0.0004: real time    0.0006
    --------------------------------------------
      LOOP:  cpu time   28.1832: real time   28.4623

 eigenvalue-minimisations  :   336
 total energy-change (2. order) : 0.2403792E+04  (-0.1180050E+05)
 number of electron     216.0000000 magnetization 
 augmentation part      216.0000000 magnetization 

 Free energy of the ion-electron system (eV)
  ---------------------------------------------------
  alpha Z        PSCENC =        59.93625244
  Ewald energy   TEWEN  =     29343.19250866
  -Hartree energ DENC   =    -35518.65041254
  -exchange      EXHF   =         0.00000000
  -V(xc)+E(xc)   XCENC  =       604.24064117
  PAW double counting   =      6339.73130699    -6197.22120962
  entropy T*S    EENTRO =        -0.00000000
  eigenvalues    EBANDS =      -596.96111074
  atomic energy  EATOM  =      8369.52358910
  ---------------------------------------------------
  free energy    TOTEN  =      2403.79156546 eV

  energy without entropy =     2403.79156546  energy(sigma->0) =     2403.79156546


--------------------------------------------------------------------------------------------------------




--------------------------------------- Iteration      1(   2)  ---------------------------------------


    TRIAL :  cpu time   30.9596: real time   31.2043
    CORREC:  cpu time    0.0001: real time    0.0001
    --------------------------------------------
      LOOP:  cpu time   30.9665: real time   31.2397

 eigenvalue-minimisations  :   560
 total energy-change (2. order) :-0.2430847E+04  (-0.2302603E+04)
 number of electron     216.0000000 magnetization 
 augmentation part      216.0000000 magnetization 

 Free energy of the ion-electron system (eV)
  ---------------------------------------------------
  alpha Z        PSCENC =        59.93625244
  Ewald energy   TEWEN  =     29343.19250866
  -Hartree energ DENC   =    -35518.65041254
  -exchange      EXHF   =         0.00000000
  -V(xc)+E(xc)   XCENC  =       604.24064117
  PAW double counting   =      6339.73130699    -6197.22120962
  entropy T*S    EENTRO =        -0.00000000
  eigenvalues    EBANDS =     -3027.80763794
  atomic energy  EATOM  =      8369.52358910
  ---------------------------------------------------
  free energy    TOTEN  =       -27.05496174 eV

  energy without entropy =      -27.05496174  energy(sigma->0) =      -27.05496174


--------------------------------------------------------------------------------------------------------




--------------------------------------- Iteration      1(   3)  ---------------------------------------


    TRIAL :  cpu time   26.3008: real time   26.5694
    CORREC:  cpu time    0.0001: real time    0.0001
    --------------------------------------------
      LOOP:  cpu time   26.3269: real time   26.5975

 eigenvalue-minimisations  :   448
 total energy-change (2. order) :-0.5613942E+03  (-0.5580051E+03)
 number of electron     216.0000000 magnetization 
 augmentation part      216.0000000 magnetization 

 Free energy of the ion-electron system (eV)
  ---------------------------------------------------
  alpha Z        PSCENC =        59.93625244
  Ewald energy   TEWEN  =     29343.19250866
  -Hartree energ DENC   =    -35518.65041254
  -exchange      EXHF   =         0.00000000
  -V(xc)+E(xc)   XCENC  =       604.24064117
  PAW double counting   =      6339.73130699    -6197.22120962
  entropy T*S    EENTRO =        -0.00000000
  eigenvalues    EBANDS =     -3589.20185416
  atomic energy  EATOM  =      8369.52358910
  ---------------------------------------------------
  free energy    TOTEN  =      -588.44917796 eV

  energy without entropy =     -588.44917796  energy(sigma->0) =     -588.44917796


--------------------------------------------------------------------------------------------------------




--------------------------------------- Iteration      1(   4)  ---------------------------------------


    TRIAL :  cpu time   26.3031: real time   26.5830
    CORREC:  cpu time    0.0001: real time    0.0001
    --------------------------------------------
      LOOP:  cpu time   26.3392: real time   26.6194

 eigenvalue-minimisations  :   448
 total energy-change (2. order) :-0.2599900E+02  (-0.2588870E+02)
 number of electron     216.0000000 magnetization 
 augmentation part      216.0000000 magnetization 

 Free energy of the ion-electron system (eV)
  ---------------------------------------------------
  alpha Z        PSCENC =        59.93625244
  Ewald energy   TEWEN  =     29343.19250866
  -Hartree energ DENC   =    -35518.65041254
  -exchange      EXHF   =         0.00000000
  -V(xc)+E(xc)   XCENC  =       604.24064117
  PAW double counting   =      6339.73130699    -6197.22120962
  entropy T*S    EENTRO =        -0.00000000
  eigenvalues    EBANDS =     -3615.20085301
  atomic energy  EATOM  =      8369.52358910
  ---------------------------------------------------
  free energy    TOTEN  =      -614.44817681 eV

  energy without entropy =     -614.44817681  energy(sigma->0) =     -614.44817681


--------------------------------------------------------------------------------------------------------




--------------------------------------- Iteration      1(   5)  ---------------------------------------


    TRIAL :  cpu time   24.0469: real time   24.2488
    CORREC:  cpu time    0.0001: real time    0.0003
    CHARGE:  cpu time    2.2893: real time    2.3052
    --------------------------------------------
      LOOP:  cpu time   26.3938: real time   26.6173

 eigenvalue-minimisations  :   392
 total energy-change (2. order) :-0.8952265E+00  (-0.8950284E+00)
 number of electron     216.0000000 magnetization 
 augmentation part       -0.4234406 magnetization 

 Free energy of the ion-electron system (eV)
  ---------------------------------------------------
  alpha Z        PSCENC =        59.93625244
  Ewald energy   TEWEN  =     29343.19250866
  -Hartree energ DENC   =    -35518.65041254
  -exchange      EXHF   =         0.00000000
  -V(xc)+E(xc)   XCENC  =       604.24064117
  PAW double counting   =      6339.73130699    -6197.22120962
  entropy T*S    EENTRO =        -0.00000000
  eigenvalues    EBANDS =     -3616.09607952
  atomic energy  EATOM  =      8369.52358910
  ---------------------------------------------------
  free energy    TOTEN  =      -615.34340332 eV

  energy without entropy =     -615.34340332  energy(sigma->0) =     -615.34340332


--------------------------------------------------------------------------------------------------------




--------------------------------------- Iteration      1(   6)  ---------------------------------------


    POTLOK:  cpu time    6.1228: real time    6.1717
    SETDIJ:  cpu time    0.1812: real time    0.1817
    TRIAL :  cpu time   15.4682: real time   15.6069
    CORREC:  cpu time   11.7633: real time   11.8566
    CHARGE:  cpu time    2.2808: real time    2.2981
    --------------------------------------------
      LOOP:  cpu time   35.8573: real time   36.1563

 eigenvalue-minimisations  :     0
 total energy-change (2. order) : 0.1041223E+03  (-0.1212894E+02)
 number of electron     216.0000000 magnetization 
 augmentation part       -0.4880226 magnetization 

 Free energy of the ion-electron system (eV)
  ---------------------------------------------------
  alpha Z        PSCENC =        59.93625244
  Ewald energy   TEWEN  =     29343.19250866
  -Hartree energ DENC   =    -36848.95268550
  -exchange      EXHF   =         0.00000000
  -V(xc)+E(xc)   XCENC  =       671.11782996
  PAW double counting   =    113230.02732218  -113093.29120065
  entropy T*S    EENTRO =        -0.00000000
  eigenvalues    EBANDS =     -2242.77469883
  atomic energy  EATOM  =      8369.52358910
  ---------------------------------------------------
  free energy    TOTEN  =      -511.22108263 eV

  energy without entropy =     -511.22108263  energy(sigma->0) =     -511.22108263


--------------------------------------------------------------------------------------------------------




--------------------------------------- Iteration      1(   7)  ---------------------------------------


    POTLOK:  cpu time    6.1321: real time    6.1833
    SETDIJ:  cpu time    0.1424: real time    0.1555
    TRIAL :  cpu time   15.4451: real time   15.5927
    CORREC:  cpu time   11.7464: real time   11.8330
    CHARGE:  cpu time    2.2805: real time    2.2997
    --------------------------------------------
      LOOP:  cpu time   35.7795: real time   36.1010

 eigenvalue-minimisations  :     0
 total energy-change (2. order) :-0.1214372E+02  (-0.1613575E+01)
 number of electron     216.0000000 magnetization 
 augmentation part       -0.5206837 magnetization 

 Free energy of the ion-electron system (eV)
  ---------------------------------------------------
  alpha Z        PSCENC =        59.93625244
  Ewald energy   TEWEN  =     29343.19250866
  -Hartree energ DENC   =    -36430.47237510
  -exchange      EXHF   =         0.00000000
  -V(xc)+E(xc)   XCENC  =       651.22922865
  PAW double counting   =    131640.17916296  -131500.67471786
  entropy T*S    EENTRO =        -0.00000000
  eigenvalues    EBANDS =     -2656.27845025
  atomic energy  EATOM  =      8369.52358910
  ---------------------------------------------------
  free energy    TOTEN  =      -523.36480140 eV

  energy without entropy =     -523.36480140  energy(sigma->0) =     -523.36480140


--------------------------------------------------------------------------------------------------------




--------------------------------------- Iteration      1(   8)  ---------------------------------------


    POTLOK:  cpu time    6.1332: real time    6.1714
    SETDIJ:  cpu time    0.1727: real time    0.1732
    TRIAL :  cpu time   15.4733: real time   15.6027
    CORREC:  cpu time   11.7422: real time   11.8267
    CHARGE:  cpu time    2.2862: real time    2.3029
    --------------------------------------------
      LOOP:  cpu time   35.8497: real time   36.1195

 eigenvalue-minimisations  :     0
 total energy-change (2. order) :-0.1613379E+01  (-0.5382534E+00)
 number of electron     216.0000000 magnetization 
 augmentation part       -0.5197526 magnetization 

 Free energy of the ion-electron system (eV)
  ---------------------------------------------------
  alpha Z        PSCENC =        59.93625244
  Ewald energy   TEWEN  =     29343.19250866
  -Hartree energ DENC   =    -36398.67791568
  -exchange      EXHF   =         0.00000000
  -V(xc)+E(xc)   XCENC  =       649.58361370
  PAW double counting   =    139848.24768346  -139708.24606145
  entropy T*S    EENTRO =        -0.00000000
  eigenvalues    EBANDS =     -2688.53785061
  atomic energy  EATOM  =      8369.52358910
  ---------------------------------------------------
  free energy    TOTEN  =      -524.97818037 eV

  energy without entropy =     -524.97818037  energy(sigma->0) =     -524.97818037


--------------------------------------------------------------------------------------------------------




--------------------------------------- Iteration      1(   9)  ---------------------------------------


    POTLOK:  cpu time    6.1272: real time    6.1681
    SETDIJ:  cpu time    0.1720: real time    0.1726
    TRIAL :  cpu time   15.4815: real time   15.5966
    CORREC:  cpu time   11.7238: real time   11.8170
    CHARGE:  cpu time    2.2768: real time    2.2979
    --------------------------------------------
      LOOP:  cpu time   35.8074: real time   36.0902

 eigenvalue-minimisations  :     0
 total energy-change (2. order) :-0.5378701E+00  (-0.2128257E+00)
 number of electron     216.0000000 magnetization 
 augmentation part       -0.5149211 magnetization 

 Free energy of the ion-electron system (eV)
  ---------------------------------------------------
  alpha Z        PSCENC =        59.93625244
  Ewald energy   TEWEN  =     29343.19250866
  -Hartree energ DENC   =    -36405.79709449
  -exchange      EXHF   =         0.00000000
  -V(xc)+E(xc)   XCENC  =       649.30279515
  PAW double counting   =    146369.47496723  -146229.26138299
  entropy T*S    EENTRO =        -0.00000000
  eigenvalues    EBANDS =     -2681.88768557
  atomic energy  EATOM  =      8369.52358910
  ---------------------------------------------------
  free energy    TOTEN  =      -525.51605048 eV

  energy without entropy =     -525.51605048  energy(sigma->0) =     -525.51605048


--------------------------------------------------------------------------------------------------------




--------------------------------------- Iteration      1(  10)  ---------------------------------------


    POTLOK:  cpu time    6.1273: real time    6.1694
    SETDIJ:  cpu time    0.1945: real time    0.1952
    TRIAL :  cpu time   15.4668: real time   15.6000
    CORREC:  cpu time   11.7342: real time   11.8315
    CHARGE:  cpu time    2.2791: real time    2.2954
    --------------------------------------------
      LOOP:  cpu time   35.8651: real time   36.1604

 eigenvalue-minimisations  :     0
 total energy-change (2. order) :-0.2125432E+00  (-0.8983545E-01)
 number of electron     216.0000000 magnetization 
 augmentation part       -0.5083988 magnetization 

 Free energy of the ion-electron system (eV)
  ---------------------------------------------------
  alpha Z        PSCENC =        59.93625244
  Ewald energy   TEWEN  =     29343.19250866
  -Hartree energ DENC   =    -36405.59882756
  -exchange      EXHF   =         0.00000000
  -V(xc)+E(xc)   XCENC  =       649.09044192
  PAW double counting   =    148931.38168034  -148791.06233135
  entropy T*S    EENTRO =        -0.00000000
  eigenvalues    EBANDS =     -2682.19190721
  atomic energy  EATOM  =      8369.52358910
  ---------------------------------------------------
  free energy    TOTEN  =      -525.72859365 eV

  energy without entropy =     -525.72859365  energy(sigma->0) =     -525.72859365


--------------------------------------------------------------------------------------------------------




--------------------------------------- Iteration      1(  11)  ---------------------------------------


    POTLOK:  cpu time    6.1444: real time    6.1807
    SETDIJ:  cpu time    0.1679: real time    0.1684
    TRIAL :  cpu time   15.3771: real time   15.5911
    CORREC:  cpu time   11.7466: real time   11.8352
    CHARGE:  cpu time    2.2691: real time    2.3011
    --------------------------------------------
      LOOP:  cpu time   35.7481: real time   36.1256

 eigenvalue-minimisations  :     0
 total energy-change (2. order) :-0.8955783E-01  (-0.3494416E-01)
 number of electron     216.0000000 magnetization 
 augmentation part       -0.5043486 magnetization 

 Free energy of the ion-electron system (eV)
  ---------------------------------------------------
  alpha Z        PSCENC =        59.93625244
  Ewald energy   TEWEN  =     29343.19250866
  -Hartree energ DENC   =    -36399.90082903
  -exchange      EXHF   =         0.00000000
  -V(xc)+E(xc)   XCENC  =       648.96183271
  PAW double counting   =    148747.72278704  -148607.40354896
  entropy T*S    EENTRO =        -0.00000000
  eigenvalues    EBANDS =     -2687.85074346
  atomic energy  EATOM  =      8369.52358910
  ---------------------------------------------------
  free energy    TOTEN  =      -525.81815149 eV

  energy without entropy =     -525.81815149  energy(sigma->0) =     -525.81815149


--------------------------------------------------------------------------------------------------------




--------------------------------------- Iteration      1(  12)  ---------------------------------------


    POTLOK:  cpu time    6.1739: real time    6.2183
    SETDIJ:  cpu time    0.1417: real time    0.1422
    TRIAL :  cpu time   15.4876: real time   15.6111
    CORREC:  cpu time   11.7405: real time   11.8325
    CHARGE:  cpu time    2.2841: real time    2.3094
    --------------------------------------------
      LOOP:  cpu time   35.8625: real time   36.1533

 eigenvalue-minimisations  :     0
 total energy-change (2. order) :-0.3485472E-01  (-0.1115683E-01)
 number of electron     216.0000000 magnetization 
 augmentation part       -0.5042126 magnetization 

 Free energy of the ion-electron system (eV)
  ---------------------------------------------------
  alpha Z        PSCENC =        59.93625244
  Ewald energy   TEWEN  =     29343.19250866
  -Hartree energ DENC   =    -36395.20660376
  -exchange      EXHF   =         0.00000000
  -V(xc)+E(xc)   XCENC  =       648.86570003
  PAW double counting   =    147962.76738959  -147822.47643464
  entropy T*S    EENTRO =        -0.00000000
  eigenvalues    EBANDS =     -2692.45540763
  atomic energy  EATOM  =      8369.52358910
  ---------------------------------------------------
  free energy    TOTEN  =      -525.85300621 eV

  energy without entropy =     -525.85300621  energy(sigma->0) =     -525.85300621


--------------------------------------------------------------------------------------------------------




--------------------------------------- Iteration      1(  13)  ---------------------------------------


    POTLOK:  cpu time    6.1558: real time    6.2100
    SETDIJ:  cpu time    0.1455: real time    0.1460
    TRIAL :  cpu time   15.4791: real time   15.6042
    CORREC:  cpu time   11.7131: real time   11.8162
    CHARGE:  cpu time    2.2792: real time    2.3022
    --------------------------------------------
      LOOP:  cpu time   35.7918: real time   36.1249

 eigenvalue-minimisations  :     0
 total energy-change (2. order) :-0.1114465E-01  (-0.3049025E-02)
 number of electron     216.0000000 magnetization 
 augmentation part       -0.5048462 magnetization 

 Free energy of the ion-electron system (eV)
  ---------------------------------------------------
  alpha Z        PSCENC =        59.93625244
  Ewald energy   TEWEN  =     29343.19250866
  -Hartree energ DENC   =    -36393.80113150
  -exchange      EXHF   =         0.00000000
  -V(xc)+E(xc)   XCENC  =       648.81945008
  PAW double counting   =    147374.79050471  -147234.51426623
  entropy T*S    EENTRO =        -0.00000000
  eigenvalues    EBANDS =     -2693.81105812
  atomic energy  EATOM  =      8369.52358910
  ---------------------------------------------------
  free energy    TOTEN  =      -525.86415086 eV

  energy without entropy =     -525.86415086  energy(sigma->0) =     -525.86415086


--------------------------------------------------------------------------------------------------------




--------------------------------------- Iteration      1(  14)  ---------------------------------------


    POTLOK:  cpu time    6.1391: real time    6.1821
    SETDIJ:  cpu time    0.2003: real time    0.2010
    TRIAL :  cpu time   15.4684: real time   15.5934
    CORREC:  cpu time   11.7431: real time   11.8383
    CHARGE:  cpu time    2.2965: real time    2.3207
    --------------------------------------------
      LOOP:  cpu time   35.8823: real time   36.1732

 eigenvalue-minimisations  :     0
 total energy-change (2. order) :-0.3053909E-02  (-0.7632075E-03)
 number of electron     216.0000000 magnetization 
 augmentation part       -0.5051138 magnetization 

 Free energy of the ion-electron system (eV)
  ---------------------------------------------------
  alpha Z        PSCENC =        59.93625244
  Ewald energy   TEWEN  =     29343.19250866
  -Hartree energ DENC   =    -36393.83535042
  -exchange      EXHF   =         0.00000000
  -V(xc)+E(xc)   XCENC  =       648.81600949
  PAW double counting   =    147118.47187688  -146978.20169997
  entropy T*S    EENTRO =        -0.00000000
  eigenvalues    EBANDS =     -2693.77039095
  atomic energy  EATOM  =      8369.52358910
  ---------------------------------------------------
  free energy    TOTEN  =      -525.86720476 eV

  energy without entropy =     -525.86720476  energy(sigma->0) =     -525.86720476


--------------------------------------------------------------------------------------------------------




--------------------------------------- Iteration      1(  15)  ---------------------------------------


    POTLOK:  cpu time    6.1420: real time    6.1823
    SETDIJ:  cpu time    0.1856: real time    0.1862
    TRIAL :  cpu time   15.4472: real time   15.5910
    CORREC:  cpu time   11.7304: real time   11.8232
    CHARGE:  cpu time    2.2831: real time    2.2998
    --------------------------------------------
      LOOP:  cpu time   35.8234: real time   36.1320

 eigenvalue-minimisations  :     0
 total energy-change (2. order) :-0.7692939E-03  (-0.2090428E-03)
 number of electron     216.0000000 magnetization 
 augmentation part       -0.5052513 magnetization 

 Free energy of the ion-electron system (eV)
  ---------------------------------------------------
  alpha Z        PSCENC =        59.93625244
  Ewald energy   TEWEN  =     29343.19250866
  -Hartree energ DENC   =    -36393.75900718
  -exchange      EXHF   =         0.00000000
  -V(xc)+E(xc)   XCENC  =       648.81708092
  PAW double counting   =    147027.55223482  -146887.28454093
  entropy T*S    EENTRO =        -0.00000000
  eigenvalues    EBANDS =     -2693.84609189
  atomic energy  EATOM  =      8369.52358910
  ---------------------------------------------------
  free energy    TOTEN  =      -525.86797406 eV

  energy without entropy =     -525.86797406  energy(sigma->0) =     -525.86797406


--------------------------------------------------------------------------------------------------------




--------------------------------------- Iteration      1(  16)  ---------------------------------------


    POTLOK:  cpu time    6.1418: real time    6.1810
    SETDIJ:  cpu time    0.1641: real time    0.1648
    TRIAL :  cpu time   15.4734: real time   15.6309
    CORREC:  cpu time   11.7459: real time   11.8418
    CHARGE:  cpu time    2.2728: real time    2.2926
    --------------------------------------------
      LOOP:  cpu time   35.8656: real time   36.1886

 eigenvalue-minimisations  :     0
 total energy-change (2. order) :-0.2118294E-03  (-0.7219292E-04)
 number of electron     216.0000000 magnetization 
 augmentation part       -0.5053204 magnetization 

 Free energy of the ion-electron system (eV)
  ---------------------------------------------------
  alpha Z        PSCENC =        59.93625244
  Ewald energy   TEWEN  =     29343.19250866
  -Hartree energ DENC   =    -36393.68598686
  -exchange      EXHF   =         0.00000000
  -V(xc)+E(xc)   XCENC  =       648.81668459
  PAW double counting   =    146975.55871943  -146835.29165339
  entropy T*S    EENTRO =        -0.00000000
  eigenvalues    EBANDS =     -2693.91829986
  atomic energy  EATOM  =      8369.52358910
  ---------------------------------------------------
  free energy    TOTEN  =      -525.86818589 eV

  energy without entropy =     -525.86818589  energy(sigma->0) =     -525.86818589


--------------------------------------------------------------------------------------------------------




--------------------------------------- Iteration      1(  17)  ---------------------------------------


    POTLOK:  cpu time    6.1373: real time    6.1813
    SETDIJ:  cpu time    0.1673: real time    0.1679
    TRIAL :  cpu time   15.4753: real time   15.5879
    CORREC:  cpu time   11.7420: real time   11.8346
    CHARGE:  cpu time    2.2817: real time    2.3025
    --------------------------------------------
      LOOP:  cpu time   35.8347: real time   36.1291

 eigenvalue-minimisations  :     0
 total energy-change (2. order) :-0.7027882E-04  (-0.2661901E-04)
 number of electron     216.0000000 magnetization 
 augmentation part       -0.5053489 magnetization 

 Free energy of the ion-electron system (eV)
  ---------------------------------------------------
  alpha Z        PSCENC =        59.93625244
  Ewald energy   TEWEN  =     29343.19250866
  -Hartree energ DENC   =    -36393.80930043
  -exchange      EXHF   =         0.00000000
  -V(xc)+E(xc)   XCENC  =       648.82377890
  PAW double counting   =    146932.82254889  -146792.55619516
  entropy T*S    EENTRO =        -0.00000000
  eigenvalues    EBANDS =     -2693.80143857
  atomic energy  EATOM  =      8369.52358910
  ---------------------------------------------------
  free energy    TOTEN  =      -525.86825617 eV

  energy without entropy =     -525.86825617  energy(sigma->0) =     -525.86825617


--------------------------------------------------------------------------------------------------------




--------------------------------------- Iteration      1(  18)  ---------------------------------------


    POTLOK:  cpu time    6.1349: real time    6.1728
    SETDIJ:  cpu time    0.1857: real time    0.1864
    TRIAL :  cpu time   15.4545: real time   15.5818
    CORREC:  cpu time   11.7482: real time   11.8296
    CHARGE:  cpu time    2.2810: real time    2.2976
    --------------------------------------------
      LOOP:  cpu time   35.8625: real time   36.1330

 eigenvalue-minimisations  :     0
 total energy-change (2. order) :-0.2524682E-04  (-0.1036512E-04)
 number of electron     216.0000000 magnetization 
 augmentation part       -0.5053890 magnetization 

 Free energy of the ion-electron system (eV)
  ---------------------------------------------------
  alpha Z        PSCENC =        59.93625244
  Ewald energy   TEWEN  =     29343.19250866
  -Hartree energ DENC   =    -36393.89256543
  -exchange      EXHF   =         0.00000000
  -V(xc)+E(xc)   XCENC  =       648.82788949
  PAW double counting   =    146913.81186954  -146773.54556498
  entropy T*S    EENTRO =        -0.00000000
  eigenvalues    EBANDS =     -2693.72226024
  atomic energy  EATOM  =      8369.52358910
  ---------------------------------------------------
  free energy    TOTEN  =      -525.86828141 eV

  energy without entropy =     -525.86828141  energy(sigma->0) =     -525.86828141


--------------------------------------------------------------------------------------------------------




--------------------------------------- Iteration      1(  19)  ---------------------------------------


    POTLOK:  cpu time    6.1412: real time    6.1768
    SETDIJ:  cpu time    0.1676: real time    0.1681
    TRIAL :  cpu time   15.4891: real time   15.6045
    CORREC:  cpu time   11.7105: real time   11.8265
    CHARGE:  cpu time    2.2741: real time    2.3012
    --------------------------------------------
      LOOP:  cpu time   35.8069: real time   36.1179

 eigenvalue-minimisations  :     0
 total energy-change (2. order) :-0.9956799E-05  (-0.1136398E-04)
 number of electron     216.0000000 magnetization 
 augmentation part       -0.5054422 magnetization 

 Free energy of the ion-electron system (eV)
  ---------------------------------------------------
  alpha Z        PSCENC =        59.93625244
  Ewald energy   TEWEN  =     29343.19250866
  -Hartree energ DENC   =    -36393.89888362
  -exchange      EXHF   =         0.00000000
  -V(xc)+E(xc)   XCENC  =       648.82747495
  PAW double counting   =    146916.47805476  -146776.21120939
  entropy T*S    EENTRO =        -0.00000000
  eigenvalues    EBANDS =     -2693.71607828
  atomic energy  EATOM  =      8369.52358910
  ---------------------------------------------------
  free energy    TOTEN  =      -525.86829137 eV

  energy without entropy =     -525.86829137  energy(sigma->0) =     -525.86829137


--------------------------------------------------------------------------------------------------------




--------------------------------------- Iteration      1(  20)  ---------------------------------------


    POTLOK:  cpu time    6.1359: real time    6.1776
    SETDIJ:  cpu time    0.1877: real time    0.1883
    TRIAL :  cpu time   15.4861: real time   15.5964
    CORREC:  cpu time   11.7287: real time   11.8185
    CHARGE:  cpu time    2.3021: real time    2.3195
    --------------------------------------------
      LOOP:  cpu time   35.9017: real time   36.1644

 eigenvalue-minimisations  :     0
 total energy-change (2. order) : 0.5170237E-05  (-0.1129390E-04)
 number of electron     216.0000000 magnetization 
 augmentation part       -0.5054354 magnetization 

 Free energy of the ion-electron system (eV)
  ---------------------------------------------------
  alpha Z        PSCENC =        59.93625244
  Ewald energy   TEWEN  =     29343.19250866
  -Hartree energ DENC   =    -36393.96524784
  -exchange      EXHF   =         0.00000000
  -V(xc)+E(xc)   XCENC  =       648.82975856
  PAW double counting   =    146942.10343204  -146801.83610084
  entropy T*S    EENTRO =        -0.00000000
  eigenvalues    EBANDS =     -2693.65247832
  atomic energy  EATOM  =      8369.52358910
  ---------------------------------------------------
  free energy    TOTEN  =      -525.86828620 eV

  energy without entropy =     -525.86828620  energy(sigma->0) =     -525.86828620


--------------------------------------------------------------------------------------------------------




--------------------------------------- Iteration      1(  21)  ---------------------------------------


    POTLOK:  cpu time    6.1316: real time    6.1735
    SETDIJ:  cpu time    0.1744: real time    0.1750
    TRIAL :  cpu time   15.4804: real time   15.5985
    CORREC:  cpu time   11.7636: real time   11.8506
    CHARGE:  cpu time    2.2780: real time    2.2963
    --------------------------------------------
      LOOP:  cpu time   35.8667: real time   36.1396

 eigenvalue-minimisations  :     0
 total energy-change (2. order) :-0.1093847E-04  (-0.1545921E-05)
 number of electron     216.0000000 magnetization 
 augmentation part       -0.5054159 magnetization 

 Free energy of the ion-electron system (eV)
  ---------------------------------------------------
  alpha Z        PSCENC =        59.93625244
  Ewald energy   TEWEN  =     29343.19250866
  -Hartree energ DENC   =    -36393.93143441
  -exchange      EXHF   =         0.00000000
  -V(xc)+E(xc)   XCENC  =       648.82780690
  PAW double counting   =    146939.24155720  -146798.97416332
  entropy T*S    EENTRO =        -0.00000000
  eigenvalues    EBANDS =     -2693.68441371
  atomic energy  EATOM  =      8369.52358910
  ---------------------------------------------------
  free energy    TOTEN  =      -525.86829714 eV

  energy without entropy =     -525.86829714  energy(sigma->0) =     -525.86829714


--------------------------------------------------------------------------------------------------------




--------------------------------------- Iteration      1(  22)  ---------------------------------------


    POTLOK:  cpu time    6.1287: real time    6.1785
    SETDIJ:  cpu time    0.1720: real time    0.1726
    TRIAL :  cpu time   15.4649: real time   15.6049
    CORREC:  cpu time   11.7477: real time   11.8329
    CHARGE:  cpu time    2.2845: real time    2.3016
    --------------------------------------------
      LOOP:  cpu time   35.8355: real time   36.1407

 eigenvalue-minimisations  :     0
 total energy-change (2. order) :-0.1538428E-05  (-0.3131199E-06)
 number of electron     216.0000000 magnetization 
 augmentation part       -0.5054097 magnetization 

 Free energy of the ion-electron system (eV)
  ---------------------------------------------------
  alpha Z        PSCENC =        59.93625244
  Ewald energy   TEWEN  =     29343.19250866
  -Hartree energ DENC   =    -36393.93167675
  -exchange      EXHF   =         0.00000000
  -V(xc)+E(xc)   XCENC  =       648.82809682
  PAW double counting   =    146936.45721606  -146796.19004257
  entropy T*S    EENTRO =        -0.00000000
  eigenvalues    EBANDS =     -2693.68424244
  atomic energy  EATOM  =      8369.52358910
  ---------------------------------------------------
  free energy    TOTEN  =      -525.86829868 eV

  energy without entropy =     -525.86829868  energy(sigma->0) =     -525.86829868


--------------------------------------------------------------------------------------------------------




--------------------------------------- Iteration      1(  23)  ---------------------------------------


    POTLOK:  cpu time    6.1544: real time    6.1922
    SETDIJ:  cpu time    0.1519: real time    0.1524
    TRIAL :  cpu time   15.4578: real time   15.5880
    CORREC:  cpu time   11.7412: real time   11.8304
    CHARGE:  cpu time    2.2826: real time    2.2990
    --------------------------------------------
      LOOP:  cpu time   35.8082: real time   36.1243

 eigenvalue-minimisations  :     0
 total energy-change (2. order) :-0.1921726E-06  (-0.8606329E-07)
 number of electron     216.0000000 magnetization 
 augmentation part       -0.5054088 magnetization 

 Free energy of the ion-electron system (eV)
  ---------------------------------------------------
  alpha Z        PSCENC =        59.93625244
  Ewald energy   TEWEN  =     29343.19250866
  -Hartree energ DENC   =    -36393.92772078
  -exchange      EXHF   =         0.00000000
  -V(xc)+E(xc)   XCENC  =       648.82800772
  PAW double counting   =    146935.43219346  -146795.16509131
  entropy T*S    EENTRO =        -0.00000000
  eigenvalues    EBANDS =     -2693.68803816
  atomic energy  EATOM  =      8369.52358910
  ---------------------------------------------------
  free energy    TOTEN  =      -525.86829887 eV

  energy without entropy =     -525.86829887  energy(sigma->0) =     -525.86829887


--------------------------------------------------------------------------------------------------------




--------------------------------------- Iteration      1(  24)  ---------------------------------------


    POTLOK:  cpu time    6.1857: real time    6.2233
    SETDIJ:  cpu time    0.1190: real time    0.1193
    TRIAL :  cpu time   15.4768: real time   15.5940
    CORREC:  cpu time   11.7392: real time   11.8342
    EDDIAG:  cpu time    3.1967: real time    3.2235
    CHARGE:  cpu time    2.2771: real time    2.2928
    --------------------------------------------
      LOOP:  cpu time   39.0456: real time   39.3401

 eigenvalue-minimisations  :     0
 total energy-change (2. order) :-0.5529728E-08  (-0.5675255E-07)
 number of electron     216.0000000 magnetization 
 augmentation part       -0.5054076 magnetization 

 Free energy of the ion-electron system (eV)
  ---------------------------------------------------
  alpha Z        PSCENC =        59.93625244
  Ewald energy   TEWEN  =     29343.19250866
  -Hartree energ DENC   =    -36393.92465178
  -exchange      EXHF   =         0.00000000
  -V(xc)+E(xc)   XCENC  =       648.82788028
  PAW double counting   =    146935.27513573  -146795.00804182
  entropy T*S    EENTRO =        -0.00000000
  eigenvalues    EBANDS =     -2693.69097148
  atomic energy  EATOM  =      8369.52358910
  ---------------------------------------------------
  free energy    TOTEN  =      -525.86829887 eV

  energy without entropy =     -525.86829887  energy(sigma->0) =     -525.86829887


--------------------------------------------------------------------------------------------------------


  average scaling for gradient   0.9371


 average (electrostatic) potential at core
  the test charge radii are     0.5770  0.5955
  (the norm of the test charge is              1.0000)
       1 -87.7253       2 -87.7237       3 -87.7250       4 -87.7243       5 -87.7213
       6 -87.7198       7 -87.7235       8 -87.7201       9 -87.7213      10 -87.7220
      11 -87.7188      12 -87.7198      13 -87.7214      14 -87.7178      15 -87.7185
      16 -87.7211      17 -87.7218      18 -87.7241      19 -87.7217      20 -87.7208
      21 -87.7209      22 -87.7172      23 -87.7225      24 -87.7211      25 -87.7208
      26 -87.7200      27 -87.7178      28 -87.7221      29 -87.7215      30 -87.7174
      31 -87.7196      32 -87.7207      33 -87.7214      34 -87.7217      35 -87.7176
      36 -87.7210      37 -87.7182      38 -87.7224      39 -87.7220      40 -87.7242
      41 -87.7251      42 -87.7256      43 -87.7233      44 -87.7240      45 -87.7206
      46 -87.7199      47 -87.7208      48 -87.7201      49 -87.7238      50 -87.7240
      51 -91.7828      52-123.9091      53-123.9131
 
 
 
 E-fermi :  -4.0440     XC(G=0):  -2.3704     alpha+bet : -2.1113

 Fermi energy:        -4.0439932294

 k-point     1 :       0.0000    0.0000    0.0000
  band No.  band energies     occupation 
      1     -28.8443      2.00000
      2     -27.8177      2.00000
      3     -23.2315      2.00000
      4     -22.2460      2.00000
      5     -22.2451      2.00000
      6     -22.2446      2.00000
      7     -22.2445      2.00000
      8     -22.2441      2.00000
      9     -22.2434      2.00000
     10     -20.3132      2.00000
     11     -20.3131      2.00000
     12     -20.3128      2.00000
     13     -20.3121      2.00000
     14     -20.3116      2.00000
     15     -20.3114      2.00000
     16     -19.3776      2.00000
     17     -19.3774      2.00000
     18     -19.3768      2.00000
     19     -19.3767      2.00000
     20     -19.3758      2.00000
     21     -19.3756      2.00000
     22     -17.1561      2.00000
     23     -17.1556      2.00000
     24     -17.1552      2.00000
     25     -17.1548      2.00000
     26     -17.1539      2.00000
     27     -17.1538      2.00000
     28     -15.9978      2.00000
     29     -15.9978      2.00000
     30     -15.9966      2.00000
     31     -15.9965      2.00000
     32     -15.9961      2.00000
     33     -15.9959      2.00000
     34     -14.6048      2.00000
     35     -14.6047      2.00000
     36     -14.6039      2.00000
     37     -14.6037      2.00000
     38     -14.6035      2.00000
     39     -14.6032      2.00000
     40     -12.7975      2.00000
     41     -12.1456      2.00000
     42     -12.1453      2.00000
     43     -12.1449      2.00000
     44     -12.1448      2.00000
     45     -12.1436      2.00000
     46     -12.1433      2.00000
     47     -11.9281      2.00000
     48     -11.9280      2.00000
     49     -11.9270      2.00000
     50     -11.9267      2.00000
     51     -11.9263      2.00000
     52     -11.9262      2.00000
     53     -11.5202      2.00000
     54     -11.2645      2.00000
     55     -11.2633      2.00000
     56     -10.5970      2.00000
     57     -10.4821      2.00000
     58     -10.4819      2.00000
     59     -10.4802      2.00000
     60     -10.4799      2.00000
     61     -10.4797      2.00000
     62     -10.4796      2.00000
     63      -9.4238      2.00000
     64      -9.4229      2.00000
     65      -9.4226      2.00000
     66      -9.4223      2.00000
     67      -9.4221      2.00000
     68      -9.4218      2.00000
     69      -9.1808      2.00000
     70      -9.1805      2.00000
     71      -9.1803      2.00000
     72      -9.1795      2.00000
     73      -9.1792      2.00000
     74      -9.1790      2.00000
     75      -9.1785      2.00000
     76      -9.1776      2.00000
     77      -9.1774      2.00000
     78      -9.1770      2.00000
     79      -9.1768      2.00000
     80      -9.1762      2.00000
     81      -7.6690      2.00000
     82      -7.6668      2.00000
     83      -7.4743      2.00000
     84      -7.4728      2.00000
     85      -7.4725      2.00000
     86      -7.4720      2.00000
     87      -7.4699      2.00000
     88      -7.4691      2.00000
     89      -7.1810      2.00000
     90      -7.1807      2.00000
     91      -7.1805      2.00000
     92      -7.1801      2.00000
     93      -7.1796      2.00000
     94      -7.1794      2.00000
     95      -6.2356      2.00000
     96      -6.2355      2.00000
     97      -6.2352      2.00000
     98      -6.2349      2.00000
     99      -6.2343      2.00000
    100      -6.2341      2.00000
    101      -5.9564      2.00000
    102      -5.9541      2.00000
    103      -4.1371      2.00000
    104      -4.1366      2.00000
    105      -4.1359      2.00000
    106      -4.1358      2.00000
    107      -4.1354      2.00000
    108      -4.1354      2.00000
    109      -1.1617      0.00000
    110      -1.1616      0.00000
    111      -1.1614      0.00000
    112      -1.1612      0.00000
    113      -1.1604      0.00000
    114      -1.1601      0.00000
    115       0.8171      0.00000
    116       0.8174      0.00000
    117       0.8177      0.00000
    118       0.8181      0.00000
    119       0.8183      0.00000
    120       0.8198      0.00000
    121       0.9657      0.00000
    122       1.3156      0.00000
    123       1.6104      0.00000
    124       1.6117      0.00000
    125       1.7711      0.00000
    126       2.2542      0.00000
    127       2.2724      0.00000
    128       2.2782      0.00000
    129       2.2820      0.00000
    130       2.2850      0.00000
    131       2.2858      0.00000
    132       2.4574      0.00000
    133       2.6979      0.00000
    134       2.6981      0.00000
    135       2.6984      0.00000
    136       2.6988      0.00000
    137       2.6990      0.00000
    138       2.6994      0.00000
    139       2.8931      0.00000
    140       3.0026      0.00000
    141       3.0468      0.00000
    142       3.0643      0.00000
    143       3.0769      0.00000
    144       3.0839      0.00000
    145       3.0890      0.00000
    146       3.0931      0.00000
    147       3.2122      0.00000
    148       3.2467      0.00000
    149       3.2752      0.00000
    150       3.3132      0.00000
    151       3.3201      0.00000
    152       4.3277      0.00000
    153       4.3661      0.00000
    154       4.5162      0.00000
    155       4.7438      0.00000
    156       4.8118      0.00000
    157       5.0591      0.00000
    158       5.2772      0.00000
    159       5.2773      0.00000
    160       5.2924      0.00000
    161       5.3007      0.00000
    162       5.3016      0.00000
    163       5.3021      0.00000
    164       5.3036      0.00000
    165       5.3495      0.00000
    166       5.3620      0.00000
    167       5.4092      0.00000
    168       5.4460      0.00000


--------------------------------------------------------------------------------------------------------


 soft charge-density along one line, spin component           1
         0         1         2         3         4         5         6         7         8         9
 total charge-density along one line
 
 pseudopotential strength for first ion, spin component:           1
 12.630  21.251  -0.000   0.000   0.000  -0.000   0.000   0.000
 21.251  35.754  -0.000   0.000   0.000  -0.000   0.000   0.000
 -0.000  -0.000  -3.234   0.000   0.000  -5.794   0.000   0.000
  0.000   0.000   0.000  -3.238   0.000   0.000  -5.800   0.000
  0.000   0.000   0.000   0.000  -3.234   0.000   0.000  -5.794
 -0.000  -0.000  -5.794   0.000   0.000 -10.358   0.000   0.000
  0.000   0.000   0.000  -5.800   0.000   0.000 -10.368   0.000
  0.000   0.000   0.000   0.000  -5.794   0.000   0.000 -10.358
 total augmentation occupancy for first ion, spin component:           1
  9.644  -3.599   0.000  -0.002  -0.001  -0.000   0.001   0.000
 -3.599   1.374  -0.000   0.001   0.001   0.000  -0.000  -0.000
  0.000  -0.000   8.197  -0.009   0.001  -2.896   0.004  -0.000
 -0.002   0.001  -0.009   3.783  -0.000   0.004  -1.107   0.000
 -0.001   0.001   0.001  -0.000   8.196  -0.000   0.000  -2.895
 -0.000   0.000  -2.896   0.004  -0.000   1.036  -0.001   0.000
  0.001  -0.000   0.004  -1.107   0.000  -0.001   0.329  -0.000
  0.000  -0.000  -0.000   0.000  -2.895   0.000  -0.000   1.035


------------------------ aborting loop because EDIFF is reached ----------------------------------------


    FORLOC:  cpu time    0.1046: real time    0.1054
    FORNL :  cpu time    2.9075: real time    2.9296
    FORCOR:  cpu time    6.2029: real time    6.2434
    OFIELD:  cpu time    0.0025: real time    0.0025

 VOLUME and BASIS-vectors are now :
 -----------------------------------------------------------------------------
  energy-cutoff  :     1000.00
  volume of cell :     2631.08
      direct lattice vectors                 reciprocal lattice vectors
    12.325000000  0.000000000  0.000000000     0.081135903  0.046843835  0.000000000
    -6.162500000 10.673763102  0.000000000     0.000000000  0.093687670  0.000000000
     0.000000000  0.000000000 20.000000000     0.000000000  0.000000000  0.050000000

  length of vectors
    12.325000000 12.325000000 20.000000000     0.093687670  0.093687670  0.050000000


 FORCES acting on ions:
    Electron-Ion                     Ewald-Force                    Non-Local-Force
 -----------------------------------------------------------------------------------------------
   0.600E+00 0.524E+00 0.414E+01   -.595E+00 -.529E+00 -.415E+01   -.444E-02 0.567E-02 0.546E-02
   0.813E+00 0.447E+00 0.493E+01   -.811E+00 -.455E+00 -.493E+01   -.468E-02 0.117E-01 -.613E-02
   0.316E+00 0.873E+00 0.471E+01   -.325E+00 -.876E+00 -.472E+01   0.952E-02 0.170E-01 -.386E-02
   0.400E+00 0.574E+00 0.655E+01   -.401E+00 -.583E+00 -.654E+01   0.182E-01 0.142E-01 -.185E-01
   0.679E+00 0.171E+00 0.459E+01   -.669E+00 -.181E+00 -.460E+01   -.123E-01 0.900E-02 0.610E-02
   0.686E+00 -.167E+00 0.476E+01   -.687E+00 0.160E+00 -.476E+01   -.110E-01 0.145E-01 -.584E-03
   0.762E+00 0.343E+00 0.674E+01   -.764E+00 -.354E+00 -.673E+01   0.117E-01 -.334E-02 -.592E-02
   0.793E+00 -.250E+00 0.789E+01   -.798E+00 0.243E+00 -.788E+01   -.714E-02 0.860E-02 -.392E-02
   -.388E+00 0.876E+00 0.517E+01   0.379E+00 -.883E+00 -.517E+01   0.178E-01 -.905E-02 -.416E-02
   -.468E+00 0.407E+00 0.693E+01   0.460E+00 -.413E+00 -.692E+01   -.128E-01 0.227E-01 0.432E-02
   0.176E+00 -.183E+00 0.410E+01   -.171E+00 0.184E+00 -.410E+01   0.247E-02 -.441E-02 0.328E-02
   0.174E+00 -.142E+00 0.398E+01   -.181E+00 0.149E+00 -.399E+01   0.131E-02 -.710E-02 0.943E-02
   0.197E+00 -.612E+00 0.857E+01   -.200E+00 0.608E+00 -.855E+01   0.292E-01 0.176E-02 -.799E-03
   0.134E+00 -.963E+00 0.633E+01   -.137E+00 0.965E+00 -.632E+01   0.131E-02 0.741E-02 -.134E-01
   -.642E+00 0.380E+00 0.424E+01   0.645E+00 -.384E+00 -.425E+01   0.670E-02 -.134E-02 0.120E-01
   -.795E+00 0.209E+00 0.429E+01   0.795E+00 -.209E+00 -.429E+01   -.198E-02 0.655E-02 -.563E-02
   -.117E+00 -.349E-01 0.359E+01   0.116E+00 0.461E-01 -.360E+01   0.689E-02 -.179E-01 0.366E-02
   0.480E-01 0.402E+00 0.361E+01   -.546E-01 -.394E+00 -.362E+01   0.687E-02 -.125E-01 0.104E-01
   -.165E+00 -.905E+00 0.515E+01   0.169E+00 0.913E+00 -.515E+01   -.158E-02 -.971E-02 0.430E-03
   -.929E-01 -.565E+00 0.422E+01   0.101E+00 0.572E+00 -.422E+01   -.160E-01 -.949E-02 0.185E-02
   0.870E+00 -.368E+00 0.583E+01   -.868E+00 0.362E+00 -.581E+01   -.439E-02 0.770E-02 -.168E-01
   0.631E+00 -.501E+00 0.517E+01   -.635E+00 0.501E+00 -.517E+01   -.433E-02 0.666E-02 0.487E-02
   -.142E+00 0.223E+00 0.822E+01   0.130E+00 -.229E+00 -.821E+01   -.986E-05 0.220E-01 0.156E-02
   -.211E+00 -.383E+00 0.823E+01   0.211E+00 0.374E+00 -.821E+01   0.169E-01 -.636E-02 -.130E-01
   0.335E+00 -.113E+00 0.419E+01   -.338E+00 0.118E+00 -.419E+01   0.109E-01 -.105E-01 -.197E-02
   0.970E-01 0.298E+00 0.400E+01   -.109E+00 -.291E+00 -.401E+01   0.110E-01 -.518E-02 0.994E-02
   -.940E+00 0.648E-01 0.550E+01   0.939E+00 -.702E-01 -.550E+01   0.193E-01 0.117E-01 0.265E-02
   -.847E+00 -.366E+00 0.498E+01   0.849E+00 0.366E+00 -.498E+01   -.799E-02 0.779E-02 -.139E-02
   0.332E+00 -.709E+00 0.525E+01   -.331E+00 0.709E+00 -.525E+01   0.406E-02 0.164E-02 -.718E-02
   0.328E-01 -.307E+00 0.437E+01   -.342E-01 0.311E+00 -.438E+01   -.579E-02 -.112E-02 0.429E-02
   -.602E+00 -.593E+00 0.576E+01   0.600E+00 0.596E+00 -.575E+01   -.118E-01 -.982E-02 -.147E-01
   -.445E+00 -.867E+00 0.483E+01   0.453E+00 0.874E+00 -.484E+01   -.681E-02 -.118E-01 0.185E-02
   0.408E-01 0.201E+00 0.386E+01   -.275E-01 -.205E+00 -.387E+01   -.138E-01 0.139E-03 0.103E-01
   0.115E+00 0.165E+00 0.395E+01   -.109E+00 -.169E+00 -.395E+01   -.155E-01 0.134E-01 0.589E-03
   -.419E+00 0.783E-01 0.402E+01   0.428E+00 -.828E-01 -.403E+01   -.417E-02 0.239E-02 0.128E-01
   -.373E+00 -.181E+00 0.398E+01   0.372E+00 0.181E+00 -.398E+01   -.420E-02 0.142E-02 0.412E-02
   -.688E+00 -.381E+00 0.404E+01   0.691E+00 0.386E+00 -.405E+01   -.459E-03 -.970E-02 0.824E-02
   -.465E+00 -.367E+00 0.381E+01   0.465E+00 0.378E+00 -.382E+01   -.308E-02 -.148E-01 0.101E-01
   -.422E+00 -.522E+00 0.393E+01   0.425E+00 0.537E+00 -.394E+01   -.842E-02 -.178E-01 0.572E-02
   -.542E-01 -.148E+00 0.373E+01   0.612E-01 0.156E+00 -.374E+01   -.632E-02 -.132E-01 0.758E-02
   0.166E+00 0.412E+00 0.364E+01   -.167E+00 -.405E+00 -.364E+01   -.304E-02 -.898E-02 0.645E-02
   0.494E+00 0.725E+00 0.401E+01   -.493E+00 -.727E+00 -.402E+01   -.402E-03 -.553E-03 0.574E-02
   0.534E-01 0.668E+00 0.376E+01   -.609E-01 -.665E+00 -.376E+01   0.162E-01 -.765E-02 0.330E-02
   0.433E-03 0.937E+00 0.446E+01   -.115E-01 -.938E+00 -.447E+01   0.924E-02 0.177E-02 0.512E-02
   -.140E+00 0.242E+00 0.412E+01   0.135E+00 -.244E+00 -.412E+01   0.142E-01 -.444E-02 0.314E-02
   -.456E+00 0.589E+00 0.433E+01   0.448E+00 -.587E+00 -.434E+01   0.572E-02 -.771E-03 0.634E-03
   -.142E+00 -.296E+00 0.421E+01   0.150E+00 0.296E+00 -.421E+01   -.515E-02 -.299E-02 0.802E-02
   -.266E+00 0.950E-01 0.384E+01   0.273E+00 -.927E-01 -.384E+01   -.170E-01 0.243E-02 -.109E-02
   0.308E-01 -.173E+00 0.384E+01   -.212E-01 0.178E+00 -.384E+01   -.111E-01 -.111E-01 0.688E-02
   0.298E+00 0.208E+00 0.379E+01   -.289E+00 -.206E+00 -.380E+01   -.172E-01 0.248E-02 0.398E-02
   -.159E-02 0.252E-01 -.596E+02   0.516E-03 -.264E-01 0.596E+02   -.153E-01 0.140E-01 0.380E-03
   -.228E+03 0.155E+03 -.101E+03   0.279E+03 -.190E+03 0.104E+03   -.527E+02 0.358E+02 -.355E+01
   0.228E+03 -.155E+03 -.813E+02   -.279E+03 0.190E+03 0.782E+02   0.527E+02 -.359E+02 0.318E+01
 -----------------------------------------------------------------------------------------------
   -.166E-01 0.213E-01 0.327E+00   0.568E-13 0.568E-13 -.426E-13   -.832E-02 -.422E-02 -.303E+00
 
 
 POSITION                                       TOTAL-FORCE (eV/Angst)
 -----------------------------------------------------------------------------------
     11.98348      0.00342      0.01417        -0.006400      0.006148     -0.003379
     -0.34154      1.42665      0.01100        -0.013232      0.018190     -0.004510
      2.12355      0.00315      0.01249         0.009895      0.018071     -0.009171
      2.12326      1.42653      0.00641         0.027567      0.018752     -0.008795
     10.75099      2.13819      0.01213        -0.007155      0.016641     -0.000229
     -1.57382      3.56123      0.01110        -0.026177      0.013820     -0.000830
      0.89078      2.13854      0.00548         0.010589      0.008650      0.003296
      0.89099      3.56147      0.00181        -0.010504      0.009200      0.013685
      4.58864      0.00346      0.01135         0.026269     -0.018231     -0.003680
      4.58894      1.42623      0.00646         0.002275      0.028331      0.015724
      9.51854      4.27281      0.01369         0.016903      0.001231      0.001158
     -2.80632      5.69591      0.01434        -0.005804     -0.017738      0.001252
      2.12300      4.27302      0.00000         0.023628      0.015387      0.022694
      2.12335      5.69594      0.00581         0.004355      0.005339      0.000128
      7.05344      0.00333      0.01399         0.008838     -0.015562      0.000599
      7.05353      1.42635      0.01368        -0.002804      0.014089     -0.004590
      8.28610      6.40752      0.01601         0.019084     -0.021809     -0.001121
     -4.03885      7.83070      0.01636         0.007581     -0.019573     -0.001491
      3.35586      6.40753      0.01007        -0.014332     -0.010995     -0.000998
      3.35599      7.83072      0.01320        -0.018043     -0.008153     -0.000345
     -0.34146      4.27290      0.00723         0.000879      0.019522     -0.003932
     -0.34138      5.69591      0.00946        -0.012492      0.004032      0.002111
      3.35624      2.13791      0.00222        -0.006184      0.031266      0.017887
      3.35573      3.56155      0.00139         0.031825     -0.009566      0.009886
     -1.57395      6.40758      0.01311         0.025724     -0.014819     -0.000387
     -1.57385      7.83068      0.01438         0.010693     -0.002935      0.000266
      5.82093      2.13784      0.01033         0.020287      0.007311     -0.000004
      5.82114      3.56097      0.01156         0.001111      0.002280     -0.004921
      0.89092      6.40755      0.00907         0.004658      0.000382     -0.002807
      0.89106      7.83068      0.01235        -0.007270      0.008987      0.003406
      4.58871      4.27293      0.00850        -0.023967     -0.003150     -0.010080
      4.58852      5.69606      0.01149         0.001659     -0.024150     -0.003821
      9.51845      0.00337      0.01490        -0.017893     -0.006201     -0.000349
      9.51855      1.42644      0.01438        -0.030987      0.020807      0.000031
      8.28593      2.13803      0.01453         0.002454      0.000393      0.002832
      8.28613      3.56115      0.01464        -0.012468     -0.003674     -0.000765
      7.05356      4.27269      0.01457         0.003914     -0.008672      0.001383
      7.05362      5.69588      0.01553        -0.001825     -0.029623     -0.000152
      5.82112      6.40755      0.01489        -0.016040     -0.018559     -0.000608
      5.82102      7.83073      0.01579        -0.004683     -0.020651     -0.001665
      7.05363      8.54227      0.01631        -0.003094     -0.010913     -0.000905
     -5.27149      9.96549      0.01495         0.001877     -0.001163     -0.005014
     -2.80638      8.54234      0.01558         0.029713     -0.015456     -0.001827
     -2.80627      9.96553      0.01362         0.017220      0.004581     -0.005359
     -0.34149      8.54239      0.01378         0.023764     -0.017135      0.000203
     -0.34138      9.96550      0.01354         0.011459      0.010868     -0.000884
      2.12343      8.54232      0.01336        -0.012862     -0.013903      0.000868
      2.12354      9.96544      0.01469        -0.024253      0.014256     -0.001329
      4.58846      8.54235      0.01505        -0.020295     -0.016708      0.000421
      4.58853      9.96550      0.01517        -0.024863      0.007608     -0.001001
      3.04930      2.68154      8.90899        -0.031336      0.021125      0.041547
      4.02070      2.02068      8.97341        -1.662276      1.106433     -0.132139
      2.07767      3.34267      8.84953         1.673019     -1.104362      0.077709
 -----------------------------------------------------------------------------------
    total drift:                               -0.024876      0.017120      0.023658


--------------------------------------------------------------------------------------------------------



  FREE ENERGIE OF THE ION-ELECTRON SYSTEM (eV)
  ---------------------------------------------------
  free  energy   TOTEN  =      -525.86829887 eV

  energy  without entropy=     -525.86829887  energy(sigma->0) =     -525.86829887
 


--------------------------------------------------------------------------------------------------------


    POTLOK:  cpu time    6.3022: real time    6.3551


--------------------------------------------------------------------------------------------------------


 writing wavefunctions
     LOOP+:  cpu time  860.5859: real time  868.9496
    4ORBIT:  cpu time    0.0000: real time    0.0000

 total amount of memory used by VASP MPI-rank0   556209. kBytes
=======================================================================

   base      :      30000. kBytes
   nonl-proj :     184518. kBytes
   fftplans  :      31725. kBytes
   grid      :     282516. kBytes
   one-center:        162. kBytes
   wavefun   :      27288. kBytes
 
  
  
 General timing and accounting informations for this job:
 ========================================================
  
                  Total CPU time used (sec):      896.977
                            User time (sec):      868.286
                          System time (sec):       28.691
                         Elapsed time (sec):      907.266
  
                   Maximum memory used (kb):     1189944.
                   Average memory used (kb):          N/A
  
                          Minor page faults:       393334
                          Major page faults:           78
                 Voluntary context switches:         3717
