 vasp.6.2.1 16May21 (build Nov 06 2021 14:46:37) complex                        
  
 executed on             LinuxIFC date 2025.04.17  02:34:33
 running on  112 total cores
 distrk:  each k-point on   56 cores,    2 groups
 distr:  one band on NCORE=   1 cores,   56 groups


--------------------------------------------------------------------------------------------------------


 INCAR:
   ALGO = Conjugate
   KPAR = 2
   NCORE = 32
   ISMEAR = 0
   SIGMA = 0.01
   PREC = Accurate
   EDIFF = 1E-7
   ENCUT = 1000
   ISIF = 0
   METAGGA = SCAN
   LUSE_VDW = .TRUE.
   BPARAM = 15.7
   LASPH = .TRUE.
   SYMPREC = 1E-7
   NELM = 200

 POTCAR:    PAW_PBE C_h 06Feb2004                 
 POTCAR:    PAW_PBE O_h 06Feb2004                 
 -----------------------------------------------------------------------------
|                                                                             |
|           W    W    AA    RRRRR   N    N  II  N    N   GGGG   !!!           |
|           W    W   A  A   R    R  NN   N  II  NN   N  G    G  !!!           |
|           W    W  A    A  R    R  N N  N  II  N N  N  G       !!!           |
|           W WW W  AAAAAA  RRRRR   N  N N  II  N  N N  G  GGG   !            |
|           WW  WW  A    A  R   R   N   NN  II  N   NN  G    G                |
|           W    W  A    A  R    R  N    N  II  N    N   GGGG   !!!           |
|                                                                             |
|     The value NCORE = 32 specified in the INCAR file was overwritten,       |
|     because it was not compatible with the 56 processes available:          |
|     NCORE = 1                                                               |
|     was used instead, please check that this makes sense for your           |
|     machine.                                                                |
|                                                                             |
 -----------------------------------------------------------------------------

 -----------------------------------------------------------------------------
|                                                                             |
|           W    W    AA    RRRRR   N    N  II  N    N   GGGG   !!!           |
|           W    W   A  A   R    R  NN   N  II  NN   N  G    G  !!!           |
|           W    W  A    A  R    R  N N  N  II  N N  N  G       !!!           |
|           W WW W  AAAAAA  RRRRR   N  N N  II  N  N N  G  GGG   !            |
|           WW  WW  A    A  R   R   N   NN  II  N   NN  G    G                |
|           W    W  A    A  R    R  N    N  II  N    N   GGGG   !!!           |
|                                                                             |
|     For optimal performance we recommend to set                             |
|       NCORE = 2 up to number-of-cores-per-socket                            |
|     NCORE specifies how many cores store one orbital (NPAR=cpu/NCORE).      |
|     This setting can greatly improve the performance of VASP for DFT.       |
|     The default, NCORE=1 might be grossly inefficient on modern             |
|     multi-core architectures or massively parallel machines. Do your        |
|     own testing! More info at https://www.vasp.at/wiki/index.php/NCORE      |
|     Unfortunately you need to use the default for GW and RPA                |
|     calculations (for HF NCORE is supported but not extensively tested      |
|     yet).                                                                   |
|                                                                             |
 -----------------------------------------------------------------------------

 -----------------------------------------------------------------------------
|                                                                             |
|               ----> ADVICE to this user running VASP <----                  |
|                                                                             |
|     You have switched on vdW-DFT.                                           |
|     This routine was written and supplied by Jiri Klimes. We recommend      |
|     that you carefully read and cite the following publications:            |
|       J. Klimes, D.R. Bowler, A. Michelides                                 |
|          J. Phys.: Cond Matt. 22 022201 (2010)                              |
|       J. Klimes, D.R. Bowler, A. Michelides                                 |
|          Phys. Rev. B. 83, 195131 (2011)                                    |
|     and references therein.                                                 |
|                                                                             |
 -----------------------------------------------------------------------------

 POTCAR:    PAW_PBE C_h 06Feb2004                 
   VRHFIN =C: s2p2                                                                                  
   LEXCH  = PE                                                                                      
   EATOM  =   147.1560 eV,   10.8157 Ry                                                             
                                                                                                    
   TITEL  = PAW_PBE C_h 06Feb2004                                                                   
   LULTRA =        F    use ultrasoft PP ?                                                          
   IUNSCR =        1    unscreen: 0-lin 1-nonlin 2-no                                               
   RPACOR =    0.800    partial core radius                                                         
   POMASS =   12.011; ZVAL   =    4.000    mass and valenz                                          
   RCORE  =    1.100    outmost cutoff radius                                                       
   RWIGS  =    1.630; RWIGS  =    0.863    wigner-seitz radius (au A)                               
   ENMAX  =  700.000; ENMIN  =  500.000 eV                                                          
   ICORE  =        2    local potential                                                             
   LCOR   =        T    correct aug charges                                                         
   LPAW   =        T    paw PP                                                                      
   EAUG   =  946.768                                                                                
   DEXC   =    0.000                                                                                
   RMAX   =    1.128    core radius for proj-oper                                                   
   RAUG   =    1.300    factor for augmentation sphere                                              
   RDEP   =    1.162    radius for radial grids                                                     
   RDEPT  =    1.088    core radius for aug-charge                                                  
                                                                                                    
   Atomic configuration                                                                             
    4 entries                                                                                       
     n  l   j            E        occ.                                                              
     1  0  0.50      -273.3789   2.0000                                                             
     2  0  0.50       -13.7508   2.0000                                                             
     2  1  0.50        -5.2854   2.0000                                                             
     3  2  1.50        -5.4423   0.0000                                                             
   Description                                                                                      
     l       E           TYP  RCUT    TYP  RCUT                                                     
     0    -13.7508458     23  1.100                                                                 
     0     -8.2022199     23  1.100                                                                 
     1     -5.2854383     23  1.100                                                                 
     1      1.1560700     23  1.100                                                                 
     2     -5.4423304      7  1.100                                                                 
  local pseudopotential read in
  partial core-charges read in
  partial kinetic energy density read in
  atomic valenz-charges read in
  non local Contribution for L=           0  read in
    real space projection operators read in
  non local Contribution for L=           0  read in
    real space projection operators read in
  non local Contribution for L=           1  read in
    real space projection operators read in
  non local Contribution for L=           1  read in
    real space projection operators read in
    PAW grid and wavefunctions read in
 
   number of l-projection  operators is LMAX  =           4
   number of lm-projection operators is LMMAX =           8
 
 POTCAR:    PAW_PBE O_h 06Feb2004                 
   VRHFIN =O: s2p4                                                                                  
   LEXCH  = PE                                                                                      
   EATOM  =   432.3788 eV,   31.7789 Ry                                                             
                                                                                                    
   TITEL  = PAW_PBE O_h 06Feb2004                                                                   
   LULTRA =        F    use ultrasoft PP ?                                                          
   IUNSCR =        1    unscreen: 0-lin 1-nonlin 2-no                                               
   RPACOR =    0.800    partial core radius                                                         
   POMASS =   16.000; ZVAL   =    6.000    mass and valenz                                          
   RCORE  =    1.100    outmost cutoff radius                                                       
   RWIGS  =    1.400; RWIGS  =    0.741    wigner-seitz radius (au A)                               
   ENMAX  =  700.000; ENMIN  =  500.000 eV                                                          
   ICORE  =        2    local potential                                                             
   LCOR   =        T    correct aug charges                                                         
   LPAW   =        T    paw PP                                                                      
   EAUG   =  888.804                                                                                
   DEXC   =    0.000                                                                                
   RMAX   =    1.128    core radius for proj-oper                                                   
   RAUG   =    1.300    factor for augmentation sphere                                              
   RDEP   =    1.125    radius for radial grids                                                     
   RDEPT  =    1.088    core radius for aug-charge                                                  
                                                                                                    
   Atomic configuration                                                                             
    4 entries                                                                                       
     n  l   j            E        occ.                                                              
     1  0  0.50      -514.6923   2.0000                                                             
     2  0  0.50       -23.9615   2.0000                                                             
     2  1  0.50        -9.0305   4.0000                                                             
     3  2  1.50        -9.5241   0.0000                                                             
   Description                                                                                      
     l       E           TYP  RCUT    TYP  RCUT                                                     
     0    -23.9615319     23  1.100                                                                 
     0    -25.3221145     23  1.100                                                                 
     1     -9.0304911     23  1.100                                                                 
     1     -5.4802209     23  1.100                                                                 
     2     -9.5240782      7  1.100                                                                 
  local pseudopotential read in
  partial core-charges read in
  partial kinetic energy density read in
  atomic valenz-charges read in
  non local Contribution for L=           0  read in
    real space projection operators read in
  non local Contribution for L=           0  read in
    real space projection operators read in
  non local Contribution for L=           1  read in
    real space projection operators read in
  non local Contribution for L=           1  read in
    real space projection operators read in
    PAW grid and wavefunctions read in
 
   number of l-projection  operators is LMAX  =           4
   number of lm-projection operators is LMMAX =           8
 
 -----------------------------------------------------------------------------
|                                                                             |
|               ----> ADVICE to this user running VASP <----                  |
|                                                                             |
|     You have a (more or less) 'large supercell' and for larger cells it     |
|     might be more efficient to use real-space projection operators.         |
|     Therefore, try LREAL= Auto in the INCAR file.                           |
|     Mind: For very accurate calculation, you might also keep the            |
|     reciprocal projection scheme (i.e. LREAL=.FALSE.).                      |
|                                                                             |
 -----------------------------------------------------------------------------

  PAW_PBE C_h 06Feb2004                 :
 energy of atom  1       EATOM= -147.1560
 kinetic energy error for atom=    0.0031 (will be added to EATOM!!)
  PAW_PBE O_h 06Feb2004                 :
 energy of atom  2       EATOM= -432.3788
 kinetic energy error for atom=    0.0171 (will be added to EATOM!!)
 
 
 POSCAR:  C  O
  positions in cartesian coordinates
  No initial velocities read in

 METAGGA = SCAN     LMAXTAU =  6    LMIXTAU =  F

 exchange correlation table for  LEXCH =        8
   RHO(1)=    0.500       N(1)  =     2000
   RHO(2)=  100.500       N(2)  =     4000
 


--------------------------------------------------------------------------------------------------------


 ion  position               nearest neighbor table
   1  0.972  0.000  0.001-  50 1.42   2 1.42  42 1.42
   2  0.039  0.134  0.000-   5 1.42   7 1.42   1 1.42
   3  0.172  0.000  0.000-  42 1.42  44 1.42   4 1.42
   4  0.239  0.134  0.000-   7 1.42   3 1.42  23 1.42
   5  0.972  0.200  0.000-   6 1.42   2 1.42  34 1.42
   6  0.039  0.334  0.000-   5 1.42  21 1.42  11 1.42
   7  0.172  0.200  0.000-   8 1.42   2 1.42   4 1.42
   8  0.239  0.334  0.000-  13 1.42   7 1.42  21 1.42
   9  0.372  0.000  0.000-  10 1.42  44 1.42  46 1.42
  10  0.439  0.134  0.000-  27 1.42   9 1.42  23 1.42
  11  0.972  0.400  0.001-  12 1.42  36 1.42   6 1.42
  12  0.039  0.534  0.001-  25 1.42  11 1.42  17 1.42
  13  0.372  0.400  0.000-   8 1.42  14 1.42  24 1.42
  14  0.439  0.534  0.000-  13 1.42  29 1.42  19 1.42
  15  0.572  0.000  0.001-  46 1.42  16 1.42  48 1.42
  16  0.639  0.134  0.001-  15 1.42  35 1.42  27 1.42
  17  0.972  0.600  0.001-  38 1.42  18 1.42  12 1.42
  18  0.039  0.734  0.001-  43 1.42  41 1.42  17 1.42
  19  0.572  0.600  0.000-  14 1.42  20 1.42  32 1.42
  20  0.639  0.734  0.001-  49 1.42  19 1.42  47 1.42
  21  0.172  0.400  0.000-  22 1.42   8 1.42   6 1.42
  22  0.239  0.534  0.000-  21 1.42  29 1.42  25 1.42
  23  0.372  0.200  0.000-  10 1.42   4 1.42  24 1.42
  24  0.439  0.334  0.000-  13 1.42  31 1.42  23 1.42
  25  0.172  0.600  0.001-  26 1.42  12 1.42  22 1.42
  26  0.239  0.734  0.001-  25 1.42  45 1.42  43 1.42
  27  0.572  0.200  0.000-  10 1.42  28 1.42  16 1.42
  28  0.639  0.334  0.000-  27 1.42  37 1.42  31 1.42
  29  0.372  0.600  0.000-  22 1.42  14 1.42  30 1.42
  30  0.439  0.734  0.000-  47 1.42  29 1.42  45 1.42
  31  0.572  0.400  0.000-  32 1.42  28 1.42  24 1.42
  32  0.639  0.534  0.000-  31 1.42  39 1.42  19 1.42
  33  0.772  0.000  0.001-  34 1.42  48 1.42  50 1.42
  34  0.839  0.134  0.001-  33 1.42   5 1.42  35 1.42
  35  0.772  0.200  0.001-  36 1.42  16 1.42  34 1.42
  36  0.839  0.334  0.001-  35 1.42  11 1.42  37 1.42
  37  0.772  0.400  0.001-  28 1.42  38 1.42  36 1.42
  38  0.839  0.534  0.001-  17 1.42  37 1.42  39 1.42
  39  0.772  0.600  0.001-  40 1.42  38 1.42  32 1.42
  40  0.839  0.734  0.001-  39 1.42  49 1.42  41 1.42
  41  0.972  0.800  0.001-  18 1.42  42 1.42  40 1.42
  42  0.039  0.934  0.001-   3 1.42  41 1.42   1 1.42
  43  0.172  0.800  0.001-  18 1.42  44 1.42  26 1.42
  44  0.239  0.934  0.001-   9 1.42  43 1.42   3 1.42
  45  0.372  0.800  0.001-  26 1.42  46 1.42  30 1.42
  46  0.439  0.934  0.001-  15 1.42  45 1.42   9 1.42
  47  0.572  0.800  0.001-  30 1.42  48 1.42  20 1.42
  48  0.639  0.934  0.001-  47 1.42  33 1.42  15 1.42
  49  0.772  0.800  0.001-  50 1.42  20 1.42  40 1.42
  50  0.839  0.934  0.001-  49 1.42   1 1.42  33 1.42
  51  0.373  0.251  0.400-  52 1.18  53 1.18
  52  0.421  0.189  0.403-  51 1.18
  53  0.325  0.313  0.398-  51 1.18
 
  LATTYP: Found a hexagonal cell.
 ALAT       =    12.3250000000
 C/A-ratio  =     2.0283975659
  
  Lattice vectors:
  
 A1 = (  12.3250000000,   0.0000000000,   0.0000000000)
 A2 = (  -6.1625000000,  10.6737631016,   0.0000000000)
 A3 = (   0.0000000000,   0.0000000000,  25.0000000000)


Analysis of symmetry for initial positions (statically):
=====================================================================
 Subroutine PRICEL returns:
 Original cell was already a primitive cell.
 

 Routine SETGRP: Setting up the symmetry group for a 
 hexagonal supercell.


 Subroutine GETGRP returns: Found  1 space group operations
 (whereof  1 operations were pure point group operations)
 out of a pool of 24 trial point group operations.


The static configuration has the point symmetry C_1 .


Analysis of symmetry for dynamics (positions and initial velocities):
=====================================================================
 Subroutine PRICEL returns:
 Original cell was already a primitive cell.
 

 Routine SETGRP: Setting up the symmetry group for a 
 hexagonal supercell.


 Subroutine GETGRP returns: Found  1 space group operations
 (whereof  1 operations were pure point group operations)
 out of a pool of 24 trial point group operations.


The dynamic configuration has the point symmetry C_1 .


 Subroutine INISYM returns: Found  1 space group operations
 (whereof  1 operations are pure point group operations),
 and found     1 'primitive' translations


----------------------------------------------------------------------------------------

                                     Primitive cell                                     

  volume of cell :    3288.8533

  direct lattice vectors                    reciprocal lattice vectors
    12.325000000  0.000000000  0.000000000     0.081135903  0.046843835  0.000000000
    -6.162500000 10.673763102  0.000000000     0.000000000  0.093687670  0.000000000
     0.000000000  0.000000000 25.000000000     0.000000000  0.000000000  0.040000000

  length of vectors
    12.325000000 12.325000000 25.000000000     0.093687670  0.093687670  0.040000000

  position of ions in fractional coordinates (direct lattice)
     0.972450841  0.000320818  0.000566711
     0.039118382  0.133659505  0.000440173
     0.172443627  0.000295449  0.000499628
     0.239096278  0.133647917  0.000256468
     0.972452058  0.200322012  0.000485219
     0.039128360  0.333643771  0.000444150
     0.172451764  0.200354552  0.000219167
     0.239124359  0.333665720  0.000072260
     0.372465565  0.000324403  0.000453913
     0.439137473  0.133619939  0.000258338
     0.972449824  0.400309362  0.000547611
     0.039124981  0.533636789  0.000573410
     0.372416176  0.400329481  0.000000000
     0.439099602  0.533638981  0.000232414
     0.572443676  0.000312125  0.000559580
     0.639110207  0.133631751  0.000547275
     0.972452703  0.600305653  0.000640289
     0.039124495  0.733640359  0.000654513
     0.572433471  0.600306242  0.000402895
     0.639111888  0.733641879  0.000527905
     0.172454630  0.400318228  0.000289045
     0.239120185  0.533636548  0.000378509
     0.372459750  0.200295993  0.000088997
     0.439107096  0.333673419  0.000055762
     0.172452155  0.600311506  0.000524340
     0.239123371  0.733638574  0.000575129
     0.572431082  0.200289171  0.000413296
     0.639112773  0.333618630  0.000462376
     0.372439808  0.600308022  0.000362844
     0.439116090  0.733637858  0.000494190
     0.572469358  0.400320504  0.000339918
     0.639119408  0.533650873  0.000459610
     0.772445723  0.000315427  0.000596161
     0.839116277  0.133640203  0.000575306
     0.772440513  0.200307432  0.000581033
     0.839120241  0.333635728  0.000585467
     0.772446320  0.400298367  0.000582978
     0.839118980  0.533633964  0.000621100
     0.772456143  0.600308173  0.000595712
     0.839115033  0.733643180  0.000631512
     0.972455313  0.800305582  0.000652233
     0.039114714  0.933643289  0.000598051
     0.172457971  0.800312211  0.000623372
     0.239134551  0.933647193  0.000544850
     0.372451396  0.800316674  0.000551399
     0.439124489  0.933644769  0.000541430
     0.572441101  0.800310054  0.000534535
     0.639115067  0.933638985  0.000587644
     0.772445098  0.800313187  0.000602062
     0.839116614  0.933644338  0.000606830
     0.373021009  0.251226878  0.400000000
     0.420879805  0.189313152  0.402576874
     0.325156981  0.313167186  0.397621805

  ion indices of the primitive-cell ions
   primitive index   ion index
                 1           1
                 2           2
                 3           3
                 4           4
                 5           5
                 6           6
                 7           7
                 8           8
                 9           9
                10          10
                11          11
                12          12
                13          13
                14          14
                15          15
                16          16
                17          17
                18          18
                19          19
                20          20
                21          21
                22          22
                23          23
                24          24
                25          25
                26          26
                27          27
                28          28
                29          29
                30          30
                31          31
                32          32
                33          33
                34          34
                35          35
                36          36
                37          37
                38          38
                39          39
                40          40
                41          41
                42          42
                43          43
                44          44
                45          45
                46          46
                47          47
                48          48
                49          49
                50          50
                51          51
                52          52
                53          53

----------------------------------------------------------------------------------------

 
 
 KPOINTS: auto                                    

Automatic generation of k-mesh.
 Grid dimensions read from file:
 generate k-points for:    1    1    1

 Generating k-lattice:

  Cartesian coordinates                     Fractional coordinates (reciprocal lattice)
     0.081135903  0.046843835  0.000000000     1.000000000 -0.000000000  0.000000000
     0.000000000  0.093687670  0.000000000     0.000000000  1.000000000  0.000000000
     0.000000000  0.000000000  0.040000000     0.000000000  0.000000000  1.000000000

  Length of vectors
     0.093687670  0.093687670  0.040000000

  Shift w.r.t. Gamma in fractional coordinates (k-lattice)
     0.000000000  0.000000000  0.000000000

 
 Subroutine IBZKPT returns following result:
 ===========================================
 
 Found      1 irreducible k-points:
 
 Following reciprocal coordinates:
            Coordinates               Weight
  0.000000  0.000000  0.000000      1.000000
 
 Following cartesian coordinates:
            Coordinates               Weight
  0.000000  0.000000  0.000000      1.000000
 


--------------------------------------------------------------------------------------------------------




 Dimension of arrays:
   k-points           NKPTS =      1   k-points in BZ     NKDIM =      1   number of bands    NBANDS=    168
   number of dos      NEDOS =    301   number of ions     NIONS =     53
   non local maximal  LDIM  =      4   non local SUM 2l+1 LMDIM =      8
   total plane-waves  NPLWV = ******
   max r-space proj   IRMAX =      1   max aug-charges    IRDMAX=  10008
   dimension x,y,z NGX =   128 NGY =  128 NGZ =  270
   dimension x,y,z NGXF=   256 NGYF=  256 NGZF=  540
   support grid    NGXF=   256 NGYF=  256 NGZF=  540
   ions per type =              51   2
   NGX,Y,Z   is equivalent  to a cutoff of  17.27, 17.27, 17.95 a.u.
   NGXF,Y,Z  is equivalent  to a cutoff of  34.53, 34.53, 35.91 a.u.

 SYSTEM =  unknown system                          
 POSCAR =   C  O                                   

 Startparameter for this run:
   NWRITE =      2    write-flag & timer
   PREC   = accura    normal or accurate (medium, high low for compatibility)
   ISTART =      0    job   : 0-new  1-cont  2-samecut
   ICHARG =      2    charge: 1-file 2-atom 10-const
   ISPIN  =      1    spin polarized calculation?
   LNONCOLLINEAR =      F non collinear calculations
   LSORBIT =      F    spin-orbit coupling
   INIWAV =      1    electr: 0-lowe 1-rand  2-diag
   LASPH  =      T    aspherical Exc in radial PAW
 Electronic Relaxation 1
   ENCUT  = 1000.0 eV  73.50 Ry    8.57 a.u.  31.78 31.78 64.46*2*pi/ulx,y,z
   ENINI  = 1000.0     initial cutoff
   ENAUG  =  946.8 eV  augmentation charge cutoff
   NELM   =    200;   NELMIN=  2; NELMDL= -5     # of ELM steps 
   EDIFF  = 0.1E-06   stopping-criterion for ELM
   LREAL  =      F    real-space projection
   NLSPLINE    = F    spline interpolate recip. space projectors
   LCOMPAT=      F    compatible to vasp.4.4
   GGA_COMPAT  = T    GGA compatible to vasp.4.4-vasp.4.6
   LMAXPAW     = -100 max onsite density
   LMAXMIX     =    2 max onsite mixed and CHGCAR
   VOSKOWN=      0    Vosko Wilk Nusair interpolation
   ROPT   =    0.00000   0.00000
 Ionic relaxation
   EDIFFG = 0.1E-05   stopping-criterion for IOM
   NSW    =      0    number of steps for IOM
   NBLOCK =      1;   KBLOCK =      1    inner block; outer block 
   IBRION =     -1    ionic relax: 0-MD 1-quasi-New 2-CG
   NFREE  =      0    steps in history (QN), initial steepest desc. (CG)
   ISIF   =      0    stress and relaxation
   IWAVPR =     10    prediction:  0-non 1-charg 2-wave 3-comb
   ISYM   =      2    0-nonsym 1-usesym 2-fastsym
   LCORR  =      T    Harris-Foulkes like correction to forces

   POTIM  = 0.5000    time-step for ionic-motion
   TEIN   =    0.0    initial temperature
   TEBEG  =    0.0;   TEEND  =   0.0 temperature during run
   SMASS  =  -3.00    Nose mass-parameter (am)
   estimated Nose-frequenzy (Omega)   =  0.10E-29 period in steps = 0.13E+47 mass=  -0.347E-26a.u.
   SCALEE = 1.0000    scale energy and forces
   NPACO  =    256;   APACO  = 16.0  distance and # of slots for P.C.
   PSTRESS=    0.0 pullay stress

  Mass of Ions in am
   POMASS =  12.01 16.00
  Ionic Valenz
   ZVAL   =   4.00  6.00
  Atomic Wigner-Seitz radii
   RWIGS  =  -1.00 -1.00
  virtual crystal weights 
   VCA    =   1.00  1.00
   NELECT =     216.0000    total number of electrons
   NUPDOWN=      -1.0000    fix difference up-down

 DOS related values:
   EMIN   =  10.00;   EMAX   =-10.00  energy-range for DOS
   EFERMI =   0.00
   ISMEAR =     0;   SIGMA  =   0.01  broadening in eV -4-tet -1-fermi 0-gaus

 Electronic relaxation 2 (details)
   IALGO  =     58    algorithm
   LDIAG  =      T    sub-space diagonalisation (order eigenvalues)
   LSUBROT=      F    optimize rotation matrix (better conditioning)
   TURBO    =      0    0=normal 1=particle mesh
   IRESTART =      0    0=no restart 2=restart with 2 vectors
   NREBOOT  =      0    no. of reboots
   NMIN     =      0    reboot dimension
   EREF     =   0.00    reference energy to select bands
   IMIX   =      4    mixing-type and parameters
     AMIX     =   0.40;   BMIX     =  1.00
     AMIX_MAG =   1.60;   BMIX_MAG =  1.00
     AMIN     =   0.10
     WC   =   100.;   INIMIX=   1;  MIXPRE=   1;  MAXMIX= -45

 Intra band minimization:
   WEIMIN = 0.0000     energy-eigenvalue tresh-hold
   EBREAK =  0.15E-09  absolut break condition
   DEPER  =   0.30     relativ break condition  

   TIME   =   0.40     timestep for ELM

  volume/ion in A,a.u.               =      62.05       418.76
  Fermi-wavevector in a.u.,A,eV,Ry     =   0.660508  1.248179  5.935820  0.436270
  Thomas-Fermi vector in A             =   1.732977
 
 Write flags
   LWAVE        =      T    write WAVECAR
   LDOWNSAMPLE  =      F    k-point downsampling of WAVECAR
   LCHARG       =      T    write CHGCAR
   LVTOT        =      F    write LOCPOT, total local potential
   LVHAR        =      F    write LOCPOT, Hartree potential only
   LELF         =      F    write electronic localiz. function (ELF)
   LORBIT       =      0    0 simple, 1 ext, 2 COOP (PROOUT), +10 PAW based schemes


 Dipole corrections
   LMONO  =      F    monopole corrections only (constant potential shift)
   LDIPOL =      F    correct potential (dipole corrections)
   IDIPOL =      0    1-x, 2-y, 3-z, 4-all directions 
   EPSILON=  1.0000000 bulk dielectric constant

 Exchange correlation treatment:
   GGA     =    --    GGA type
   LEXCH   =     8    internal setting for exchange type
   VOSKOWN=      0    Vosko Wilk Nusair interpolation
   LHFCALC =     F    Hartree Fock is set to
   LHFONE  =     F    Hartree Fock one center treatment
   AEXX    =    0.0000 exact exchange contribution

 vdW DFT:
   LUSE_VDW   =     T    switch on vdW DFT
   Zab_VDW    =-.8491    correlation parameter
   PARAM1     =0.1234
   PARAM2     =1.0000
   PARAM3     =0.0000
   -- rVV10 --
   BPARAM     =15.7000
   CPARAM     = 0.0093

 Linear response parameters
   LEPSILON=     F    determine dielectric tensor
   LRPA    =     F    only Hartree local field effects (RPA)
   LNABLA  =     F    use nabla operator in PAW spheres
   LVEL    =     F    velocity operator in full k-point grid
   LINTERFAST=   F  fast interpolation
   KINTER  =     0    interpolate to denser k-point grid
   CSHIFT  =0.1000    complex shift for real part using Kramers Kronig
   OMEGAMAX=  -1.0    maximum frequency
   DEG_THRESHOLD= 0.2000000E-02 threshold for treating states as degnerate
   RTIME   =   -0.100 relaxation time in fs
  (WPLASMAI=    0.000 imaginary part of plasma frequency in eV, 0.658/RTIME)
   DFIELD  = 0.0000000 0.0000000 0.0000000 field for delta impulse in time
 
 Orbital magnetization related:
   ORBITALMAG=     F  switch on orbital magnetization
   LCHIMAG   =     F  perturbation theory with respect to B field
   DQ        =  0.001000  dq finite difference perturbation B field
   LLRAUG    =     F  two centre corrections for induced B field



--------------------------------------------------------------------------------------------------------


 Static calculation
 charge density and potential will be updated during run
 non-spin polarized calculation
 Conjugate gradient for all bands (Freysoldt, et al. PRB 79, 241103 (2009))
 preconditioned conjugated gradient                                        
 perform sub-space diagonalisation
    before iterative eigenvector-optimisation
 modified Broyden-mixing scheme, WC =      100.0
 initial mixing is a Kerker type mixing with AMIX =  0.4000 and BMIX =      1.0000
 Hartree-type preconditioning will be used
 using additional bands           60
 reciprocal scheme for non local part
 use partial core corrections
 no Harris-corrections to forces 
 use gradient corrections 
 use of overlap-Matrix (Vanderbilt PP)
 Gauss-broadening in eV      SIGMA  =   0.01


--------------------------------------------------------------------------------------------------------


  energy-cutoff  :     1000.00
  volume of cell :     3288.85
      direct lattice vectors                 reciprocal lattice vectors
    12.325000000  0.000000000  0.000000000     0.081135903  0.046843835  0.000000000
    -6.162500000 10.673763102  0.000000000     0.000000000  0.093687670  0.000000000
     0.000000000  0.000000000 25.000000000     0.000000000  0.000000000  0.040000000

  length of vectors
    12.325000000 12.325000000 25.000000000     0.093687670  0.093687670  0.040000000


 
 k-points in units of 2pi/SCALE and weight: auto                                    
   0.00000000  0.00000000  0.00000000       1.000
 
 k-points in reciprocal lattice and weights: auto                                    
   0.00000000  0.00000000  0.00000000       1.000
 
 position of ions in fractional coordinates (direct lattice) 
   0.97245084  0.00032082  0.00056671
   0.03911838  0.13365950  0.00044017
   0.17244363  0.00029545  0.00049963
   0.23909628  0.13364792  0.00025647
   0.97245206  0.20032201  0.00048522
   0.03912836  0.33364377  0.00044415
   0.17245176  0.20035455  0.00021917
   0.23912436  0.33366572  0.00007226
   0.37246557  0.00032440  0.00045391
   0.43913747  0.13361994  0.00025834
   0.97244982  0.40030936  0.00054761
   0.03912498  0.53363679  0.00057341
   0.37241618  0.40032948  0.00000000
   0.43909960  0.53363898  0.00023241
   0.57244368  0.00031213  0.00055958
   0.63911021  0.13363175  0.00054727
   0.97245270  0.60030565  0.00064029
   0.03912449  0.73364036  0.00065451
   0.57243347  0.60030624  0.00040289
   0.63911189  0.73364188  0.00052791
   0.17245463  0.40031823  0.00028904
   0.23912018  0.53363655  0.00037851
   0.37245975  0.20029599  0.00008900
   0.43910710  0.33367342  0.00005576
   0.17245216  0.60031151  0.00052434
   0.23912337  0.73363857  0.00057513
   0.57243108  0.20028917  0.00041330
   0.63911277  0.33361863  0.00046238
   0.37243981  0.60030802  0.00036284
   0.43911609  0.73363786  0.00049419
   0.57246936  0.40032050  0.00033992
   0.63911941  0.53365087  0.00045961
   0.77244572  0.00031543  0.00059616
   0.83911628  0.13364020  0.00057531
   0.77244051  0.20030743  0.00058103
   0.83912024  0.33363573  0.00058547
   0.77244632  0.40029837  0.00058298
   0.83911898  0.53363396  0.00062110
   0.77245614  0.60030817  0.00059571
   0.83911503  0.73364318  0.00063151
   0.97245531  0.80030558  0.00065223
   0.03911471  0.93364329  0.00059805
   0.17245797  0.80031221  0.00062337
   0.23913455  0.93364719  0.00054485
   0.37245140  0.80031667  0.00055140
   0.43912449  0.93364477  0.00054143
   0.57244110  0.80031005  0.00053453
   0.63911507  0.93363899  0.00058764
   0.77244510  0.80031319  0.00060206
   0.83911661  0.93364434  0.00060683
   0.37302101  0.25122688  0.40000000
   0.42087980  0.18931315  0.40257687
   0.32515698  0.31316719  0.39762181
 
 position of ions in cartesian coordinates  (Angst):
  11.98347958  0.00342433  0.01416777
  -0.34154264  1.42664989  0.01100432
   2.12354700  0.00315355  0.01249070
   2.12325634  1.42652621  0.00641170
  10.75098721  2.13818970  0.01213047
  -1.57382270  3.56123457  0.01110375
   0.89078307  2.13853702  0.00547917
   0.89099273  3.56146885  0.00180651
   4.58863896  0.00346260  0.01134782
   4.58893648  1.42622757  0.00645846
   9.51853763  4.27280730  0.01369027
  -2.80632132  5.69591267  0.01433526
   2.12299894  4.27302204  0.00000000
   2.12335237  5.69593607  0.00581036
   7.05344483  0.00333155  0.01398950
   7.05352764  1.42635365  0.01368187
   8.28609598  6.40752033  0.01600723
  -4.03884931  7.83070339  0.01636283
   3.35585531  6.40752662  0.01007237
   3.35598594  7.83071962  0.01319763
  -0.34145776  4.27290193  0.00722612
  -0.34137895  5.69591010  0.00946273
   3.35624236  2.13791198  0.00222492
   3.35573251  3.56155103  0.00139405
  -1.57394684  6.40758280  0.01310850
  -1.57385216  7.83068434  0.01437823
   5.82093107  2.13783916  0.01033241
   5.82114012  3.56096622  0.01155939
   0.89092245  6.40754561  0.00907111
   0.89106251  7.83067670  0.01235474
   4.58870974  4.27292622  0.00849795
   4.58852320  5.69606300  0.01149026
   9.51844972  0.00336679  0.01490402
   9.51855036  1.42644387  0.01438264
   8.28593477  2.13803408  0.01452582
   8.28612680  3.56114872  0.01463668
   7.05356221  4.27268994  0.01457444
   7.05362213  5.69588251  0.01552751
   5.82112285  6.40754723  0.01489279
   5.82101669  7.83073350  0.01578780
   7.05362858  8.54227219  0.01630582
  -5.27148792  9.96548729  0.01495127
  -2.80637951  8.54234295  0.01558431
  -2.80626749  9.96552896  0.01362126
  -0.34148805  8.54239058  0.01378498
  -0.34137657  9.96550309  0.01353576
   2.12342586  8.54231992  0.01336337
   2.12354296  9.96544135  0.01469111
   4.58845581  8.54235337  0.01505154
   4.58852904  9.96549848  0.01517076
   3.04929830  2.68153618 10.00000000
   4.02070129  2.02068374 10.06442186
   2.07766701  3.34267235  9.94054513
 


--------------------------------------------------------------------------------------------------------


 k-point   1 :   0.0000 0.0000 0.0000  plane waves:  236157

 maximum and minimum number of plane-waves per node :    236157   236157

 maximum number of plane-waves:    236157
 maximum index in each direction: 
   IXMAX=   31   IYMAX=   31   IZMAX=   64
   IXMIN=  -31   IYMIN=  -31   IZMIN=  -64


 serial   3D FFT for wavefunctions
 parallel 3D FFT for charge:
    minimum data exchange during FFTs selected (reduces bandwidth)


 total amount of memory used by VASP MPI-rank0   698619. kBytes
=======================================================================

   base      :      30000. kBytes
   nonl-proj :     230539. kBytes
   fftplans  :      40716. kBytes
   grid      :     363125. kBytes
   one-center:        162. kBytes
   wavefun   :      34077. kBytes
 
     INWAV:  cpu time    0.0000: real time    0.0000
 Broyden mixing: mesh for mixing (old mesh)
   NGX = 63   NGY = 63   NGZ =129
  (NGX  =256   NGY  =256   NGZ  =540)
  gives a total of 512001 points

 initial charge density was supplied:
 charge density of overlapping atoms calculated
 number of electron     216.0000000 magnetization 
 keeping initial charge density in first step


--------------------------------------------------------------------------------------------------------


 Maximum index for augmentation-charges          471 (set IRDMAX)


--------------------------------------------------------------------------------------------------------


 First call to EWALD:  gamma=   0.119
 Maximum number of real-space cells 4x 4x 2
 Maximum number of reciprocal cells 2x 2x 4

    FEWALD:  cpu time    0.0022: real time    0.0022


--------------------------------------- Iteration      1(   1)  ---------------------------------------


    POTLOK:  cpu time    8.4756: real time    8.5381
    SETDIJ:  cpu time    0.0028: real time    0.0028
    TRIAL :  cpu time   31.6135: real time   31.8577
    CORREC:  cpu time    0.0007: real time    0.0007
    --------------------------------------------
      LOOP:  cpu time   40.1117: real time   40.4215

 eigenvalue-minimisations  :   336
 total energy-change (2. order) : 0.2533803E+04  (-0.1080249E+05)
 number of electron     216.0000000 magnetization 
 augmentation part      216.0000000 magnetization 

 Free energy of the ion-electron system (eV)
  ---------------------------------------------------
  alpha Z        PSCENC =        47.94900195
  Ewald energy   TEWEN  =     40383.20022222
  -Hartree energ DENC   =    -46452.44530560
  -exchange      EXHF   =         0.00000000
  -V(xc)+E(xc)   XCENC  =       604.23338550
  PAW double counting   =      6339.73130699    -6197.22120962
  entropy T*S    EENTRO =        -0.00000000
  eigenvalues    EBANDS =      -561.16751506
  atomic energy  EATOM  =      8369.52358910
  ---------------------------------------------------
  free energy    TOTEN  =      2533.80347548 eV

  energy without entropy =     2533.80347548  energy(sigma->0) =     2533.80347548


--------------------------------------------------------------------------------------------------------




--------------------------------------- Iteration      1(   2)  ---------------------------------------


    TRIAL :  cpu time   51.4913: real time   51.9609
    CORREC:  cpu time    0.0001: real time    0.0001
    --------------------------------------------
      LOOP:  cpu time   51.5451: real time   52.0164

 eigenvalue-minimisations  :   672
 total energy-change (2. order) :-0.2527878E+04  (-0.2408370E+04)
 number of electron     216.0000000 magnetization 
 augmentation part      216.0000000 magnetization 

 Free energy of the ion-electron system (eV)
  ---------------------------------------------------
  alpha Z        PSCENC =        47.94900195
  Ewald energy   TEWEN  =     40383.20022222
  -Hartree energ DENC   =    -46452.44530560
  -exchange      EXHF   =         0.00000000
  -V(xc)+E(xc)   XCENC  =       604.23338550
  PAW double counting   =      6339.73130699    -6197.22120962
  entropy T*S    EENTRO =        -0.00000000
  eigenvalues    EBANDS =     -3089.04524037
  atomic energy  EATOM  =      8369.52358910
  ---------------------------------------------------
  free energy    TOTEN  =         5.92575017 eV

  energy without entropy =        5.92575017  energy(sigma->0) =        5.92575017


--------------------------------------------------------------------------------------------------------




--------------------------------------- Iteration      1(   3)  ---------------------------------------


    TRIAL :  cpu time   38.1989: real time   38.4933
    CORREC:  cpu time    0.0001: real time    0.0001
    --------------------------------------------
      LOOP:  cpu time   38.2078: real time   38.5232

 eigenvalue-minimisations  :   448
 total energy-change (2. order) :-0.5902932E+03  (-0.5871814E+03)
 number of electron     216.0000000 magnetization 
 augmentation part      216.0000000 magnetization 

 Free energy of the ion-electron system (eV)
  ---------------------------------------------------
  alpha Z        PSCENC =        47.94900195
  Ewald energy   TEWEN  =     40383.20022222
  -Hartree energ DENC   =    -46452.44530560
  -exchange      EXHF   =         0.00000000
  -V(xc)+E(xc)   XCENC  =       604.23338550
  PAW double counting   =      6339.73130699    -6197.22120962
  entropy T*S    EENTRO =        -0.00000000
  eigenvalues    EBANDS =     -3679.33840243
  atomic energy  EATOM  =      8369.52358910
  ---------------------------------------------------
  free energy    TOTEN  =      -584.36741190 eV

  energy without entropy =     -584.36741190  energy(sigma->0) =     -584.36741190


--------------------------------------------------------------------------------------------------------




--------------------------------------- Iteration      1(   4)  ---------------------------------------


    TRIAL :  cpu time   38.1557: real time   38.4918
    CORREC:  cpu time    0.0001: real time    0.0003
    --------------------------------------------
      LOOP:  cpu time   38.2291: real time   38.5670

 eigenvalue-minimisations  :   448
 total energy-change (2. order) :-0.2995308E+02  (-0.2976361E+02)
 number of electron     216.0000000 magnetization 
 augmentation part      216.0000000 magnetization 

 Free energy of the ion-electron system (eV)
  ---------------------------------------------------
  alpha Z        PSCENC =        47.94900195
  Ewald energy   TEWEN  =     40383.20022222
  -Hartree energ DENC   =    -46452.44530560
  -exchange      EXHF   =         0.00000000
  -V(xc)+E(xc)   XCENC  =       604.23338550
  PAW double counting   =      6339.73130699    -6197.22120962
  entropy T*S    EENTRO =        -0.00000000
  eigenvalues    EBANDS =     -3709.29147883
  atomic energy  EATOM  =      8369.52358910
  ---------------------------------------------------
  free energy    TOTEN  =      -614.32048829 eV

  energy without entropy =     -614.32048829  energy(sigma->0) =     -614.32048829


--------------------------------------------------------------------------------------------------------




--------------------------------------- Iteration      1(   5)  ---------------------------------------


    TRIAL :  cpu time   38.1827: real time   38.4897
    CORREC:  cpu time    0.0001: real time    0.0001
    CHARGE:  cpu time    3.2435: real time    3.2742
    --------------------------------------------
      LOOP:  cpu time   41.4946: real time   41.8597

 eigenvalue-minimisations  :   448
 total energy-change (2. order) :-0.9976647E+00  (-0.9927283E+00)
 number of electron     216.0000000 magnetization 
 augmentation part       -0.4316296 magnetization 

 Free energy of the ion-electron system (eV)
  ---------------------------------------------------
  alpha Z        PSCENC =        47.94900195
  Ewald energy   TEWEN  =     40383.20022222
  -Hartree energ DENC   =    -46452.44530560
  -exchange      EXHF   =         0.00000000
  -V(xc)+E(xc)   XCENC  =       604.23338550
  PAW double counting   =      6339.73130699    -6197.22120962
  entropy T*S    EENTRO =        -0.00000000
  eigenvalues    EBANDS =     -3710.28914351
  atomic energy  EATOM  =      8369.52358910
  ---------------------------------------------------
  free energy    TOTEN  =      -615.31815297 eV

  energy without entropy =     -615.31815297  energy(sigma->0) =     -615.31815297


--------------------------------------------------------------------------------------------------------




--------------------------------------- Iteration      1(   6)  ---------------------------------------


    POTLOK:  cpu time    8.3712: real time    8.4231
    SETDIJ:  cpu time    0.0019: real time    0.0019
    TRIAL :  cpu time   22.4125: real time   22.5836
    CORREC:  cpu time   16.1639: real time   16.2725
    CHARGE:  cpu time    3.2433: real time    3.2662
    --------------------------------------------
      LOOP:  cpu time   50.2300: real time   50.5983

 eigenvalue-minimisations  :     0
 total energy-change (2. order) : 0.1039371E+03  (-0.1209371E+02)
 number of electron     216.0000000 magnetization 
 augmentation part       -0.4880008 magnetization 

 Free energy of the ion-electron system (eV)
  ---------------------------------------------------
  alpha Z        PSCENC =        47.94900195
  Ewald energy   TEWEN  =     40383.20022222
  -Hartree energ DENC   =    -47809.07805943
  -exchange      EXHF   =         0.00000000
  -V(xc)+E(xc)   XCENC  =       671.01778444
  PAW double counting   =    113958.70860380  -113821.91513119
  entropy T*S    EENTRO =        -0.00000000
  eigenvalues    EBANDS =     -2310.78704123
  atomic energy  EATOM  =      8369.52358910
  ---------------------------------------------------
  free energy    TOTEN  =      -511.38103034 eV

  energy without entropy =     -511.38103034  energy(sigma->0) =     -511.38103034


--------------------------------------------------------------------------------------------------------




--------------------------------------- Iteration      1(   7)  ---------------------------------------


    POTLOK:  cpu time    8.3759: real time    8.4369
    SETDIJ:  cpu time    0.0018: real time    0.0018
    TRIAL :  cpu time   22.4082: real time   22.5886
    CORREC:  cpu time   16.1466: real time   16.2689
    CHARGE:  cpu time    3.2433: real time    3.2672
    --------------------------------------------
      LOOP:  cpu time   50.2076: real time   50.5999

 eigenvalue-minimisations  :     0
 total energy-change (2. order) :-0.1211027E+02  (-0.1562245E+01)
 number of electron     216.0000000 magnetization 
 augmentation part       -0.5189847 magnetization 

 Free energy of the ion-electron system (eV)
  ---------------------------------------------------
  alpha Z        PSCENC =        47.94900195
  Ewald energy   TEWEN  =     40383.20022222
  -Hartree energ DENC   =    -47380.08125384
  -exchange      EXHF   =         0.00000000
  -V(xc)+E(xc)   XCENC  =       651.08854917
  PAW double counting   =    131922.81935123  -131783.28016802
  entropy T*S    EENTRO =        -0.00000000
  eigenvalues    EBANDS =     -2734.71059124
  atomic energy  EATOM  =      8369.52358910
  ---------------------------------------------------
  free energy    TOTEN  =      -523.49129943 eV

  energy without entropy =     -523.49129943  energy(sigma->0) =     -523.49129943


--------------------------------------------------------------------------------------------------------




--------------------------------------- Iteration      1(   8)  ---------------------------------------


    POTLOK:  cpu time    8.3890: real time    8.4404
    SETDIJ:  cpu time    0.0018: real time    0.0019
    TRIAL :  cpu time   22.3150: real time   22.5795
    CORREC:  cpu time   16.1583: real time   16.2914
    CHARGE:  cpu time    3.2398: real time    3.2667
    --------------------------------------------
      LOOP:  cpu time   50.1738: real time   50.6530

 eigenvalue-minimisations  :     0
 total energy-change (2. order) :-0.1562006E+01  (-0.4971686E+00)
 number of electron     216.0000000 magnetization 
 augmentation part       -0.5183143 magnetization 

 Free energy of the ion-electron system (eV)
  ---------------------------------------------------
  alpha Z        PSCENC =        47.94900195
  Ewald energy   TEWEN  =     40383.20022222
  -Hartree energ DENC   =    -47349.86797530
  -exchange      EXHF   =         0.00000000
  -V(xc)+E(xc)   XCENC  =       649.52753552
  PAW double counting   =    139833.14811211  -139693.13210899
  entropy T*S    EENTRO =        -0.00000000
  eigenvalues    EBANDS =     -2765.40168206
  atomic energy  EATOM  =      8369.52358910
  ---------------------------------------------------
  free energy    TOTEN  =      -525.05330545 eV

  energy without entropy =     -525.05330545  energy(sigma->0) =     -525.05330545


--------------------------------------------------------------------------------------------------------




--------------------------------------- Iteration      1(   9)  ---------------------------------------


    POTLOK:  cpu time    8.3826: real time    8.4334
    SETDIJ:  cpu time    0.0019: real time    0.0019
    TRIAL :  cpu time   22.3581: real time   22.5472
    CORREC:  cpu time   16.1531: real time   16.2664
    CHARGE:  cpu time    3.2223: real time    3.2714
    --------------------------------------------
      LOOP:  cpu time   50.1707: real time   50.5743

 eigenvalue-minimisations  :     0
 total energy-change (2. order) :-0.4971416E+00  (-0.1902581E+00)
 number of electron     216.0000000 magnetization 
 augmentation part       -0.5139536 magnetization 

 Free energy of the ion-electron system (eV)
  ---------------------------------------------------
  alpha Z        PSCENC =        47.94900195
  Ewald energy   TEWEN  =     40383.20022222
  -Hartree energ DENC   =    -47358.35045954
  -exchange      EXHF   =         0.00000000
  -V(xc)+E(xc)   XCENC  =       649.30152329
  PAW double counting   =    145954.99628190  -145814.78691629
  entropy T*S    EENTRO =        -0.00000000
  eigenvalues    EBANDS =     -2757.38368971
  atomic energy  EATOM  =      8369.52358910
  ---------------------------------------------------
  free energy    TOTEN  =      -525.55044708 eV

  energy without entropy =     -525.55044708  energy(sigma->0) =     -525.55044708


--------------------------------------------------------------------------------------------------------




--------------------------------------- Iteration      1(  10)  ---------------------------------------


    POTLOK:  cpu time    8.3558: real time    8.4374
    SETDIJ:  cpu time    0.0018: real time    0.0019
    TRIAL :  cpu time   22.3866: real time   22.5643
    CORREC:  cpu time   16.1545: real time   16.2775
    CHARGE:  cpu time    3.2451: real time    3.2685
    --------------------------------------------
      LOOP:  cpu time   50.1635: real time   50.5762

 eigenvalue-minimisations  :     0
 total energy-change (2. order) :-0.1901041E+00  (-0.7917803E-01)
 number of electron     216.0000000 magnetization 
 augmentation part       -0.5079916 magnetization 

 Free energy of the ion-electron system (eV)
  ---------------------------------------------------
  alpha Z        PSCENC =        47.94900195
  Ewald energy   TEWEN  =     40383.20022222
  -Hartree energ DENC   =    -47358.64814650
  -exchange      EXHF   =         0.00000000
  -V(xc)+E(xc)   XCENC  =       649.10887140
  PAW double counting   =    148441.43949869  -148301.13274413
  entropy T*S    EENTRO =        -0.00000000
  eigenvalues    EBANDS =     -2757.18084392
  atomic energy  EATOM  =      8369.52358910
  ---------------------------------------------------
  free energy    TOTEN  =      -525.74055121 eV

  energy without entropy =     -525.74055121  energy(sigma->0) =     -525.74055121


--------------------------------------------------------------------------------------------------------




--------------------------------------- Iteration      1(  11)  ---------------------------------------


    POTLOK:  cpu time    8.3986: real time    8.4563
    SETDIJ:  cpu time    0.0018: real time    0.0018
    TRIAL :  cpu time   22.4124: real time   22.5738
    CORREC:  cpu time   16.1362: real time   16.2650
    CHARGE:  cpu time    3.2565: real time    3.2839
    --------------------------------------------
      LOOP:  cpu time   50.2848: real time   50.6763

 eigenvalue-minimisations  :     0
 total energy-change (2. order) :-0.7894248E-01  (-0.3165660E-01)
 number of electron     216.0000000 magnetization 
 augmentation part       -0.5043323 magnetization 

 Free energy of the ion-electron system (eV)
  ---------------------------------------------------
  alpha Z        PSCENC =        47.94900195
  Ewald energy   TEWEN  =     40383.20022222
  -Hartree energ DENC   =    -47353.22890766
  -exchange      EXHF   =         0.00000000
  -V(xc)+E(xc)   XCENC  =       648.97328540
  PAW double counting   =    148483.21822548  -148342.90695366
  entropy T*S    EENTRO =        -0.00000000
  eigenvalues    EBANDS =     -2762.54795651
  atomic energy  EATOM  =      8369.52358910
  ---------------------------------------------------
  free energy    TOTEN  =      -525.81949369 eV

  energy without entropy =     -525.81949369  energy(sigma->0) =     -525.81949369


--------------------------------------------------------------------------------------------------------




--------------------------------------- Iteration      1(  12)  ---------------------------------------


    POTLOK:  cpu time    8.3847: real time    8.4369
    SETDIJ:  cpu time    0.0019: real time    0.0019
    TRIAL :  cpu time   22.3446: real time   22.5687
    CORREC:  cpu time   16.1506: real time   16.2631
    CHARGE:  cpu time    3.2494: real time    3.2751
    --------------------------------------------
      LOOP:  cpu time   50.1565: real time   50.5808

 eigenvalue-minimisations  :     0
 total energy-change (2. order) :-0.3156933E-01  (-0.1037738E-01)
 number of electron     216.0000000 magnetization 
 augmentation part       -0.5042911 magnetization 

 Free energy of the ion-electron system (eV)
  ---------------------------------------------------
  alpha Z        PSCENC =        47.94900195
  Ewald energy   TEWEN  =     40383.20022222
  -Hartree energ DENC   =    -47348.67228801
  -exchange      EXHF   =         0.00000000
  -V(xc)+E(xc)   XCENC  =       648.87220752
  PAW double counting   =    147888.16306986  -147747.87482748
  entropy T*S    EENTRO =        -0.00000000
  eigenvalues    EBANDS =     -2767.01203817
  atomic energy  EATOM  =      8369.52358910
  ---------------------------------------------------
  free energy    TOTEN  =      -525.85106302 eV

  energy without entropy =     -525.85106302  energy(sigma->0) =     -525.85106302


--------------------------------------------------------------------------------------------------------




--------------------------------------- Iteration      1(  13)  ---------------------------------------


    POTLOK:  cpu time    8.4008: real time    8.4536
    SETDIJ:  cpu time    0.0018: real time    0.0018
    TRIAL :  cpu time   22.4130: real time   22.5693
    CORREC:  cpu time   16.1614: real time   16.2909
    CHARGE:  cpu time    3.2452: real time    3.2676
    --------------------------------------------
      LOOP:  cpu time   50.2574: real time   50.6427

 eigenvalue-minimisations  :     0
 total energy-change (2. order) :-0.1036237E-01  (-0.2908508E-02)
 number of electron     216.0000000 magnetization 
 augmentation part       -0.5048981 magnetization 

 Free energy of the ion-electron system (eV)
  ---------------------------------------------------
  alpha Z        PSCENC =        47.94900195
  Ewald energy   TEWEN  =     40383.20022222
  -Hartree energ DENC   =    -47347.16718635
  -exchange      EXHF   =         0.00000000
  -V(xc)+E(xc)   XCENC  =       648.82132323
  PAW double counting   =    147378.09227947  -147237.81655061
  entropy T*S    EENTRO =        -0.00000000
  eigenvalues    EBANDS =     -2768.46410440
  atomic energy  EATOM  =      8369.52358910
  ---------------------------------------------------
  free energy    TOTEN  =      -525.86142539 eV

  energy without entropy =     -525.86142539  energy(sigma->0) =     -525.86142539


--------------------------------------------------------------------------------------------------------




--------------------------------------- Iteration      1(  14)  ---------------------------------------


    POTLOK:  cpu time    8.3837: real time    8.4428
    SETDIJ:  cpu time    0.0018: real time    0.0019
    TRIAL :  cpu time   22.3290: real time   22.5495
    CORREC:  cpu time   16.1715: real time   16.2884
    CHARGE:  cpu time    3.2497: real time    3.2723
    --------------------------------------------
      LOOP:  cpu time   50.1751: real time   50.5984

 eigenvalue-minimisations  :     0
 total energy-change (2. order) :-0.2911401E-02  (-0.7539649E-03)
 number of electron     216.0000000 magnetization 
 augmentation part       -0.5051668 magnetization 

 Free energy of the ion-electron system (eV)
  ---------------------------------------------------
  alpha Z        PSCENC =        47.94900195
  Ewald energy   TEWEN  =     40383.20022222
  -Hartree energ DENC   =    -47347.16133265
  -exchange      EXHF   =         0.00000000
  -V(xc)+E(xc)   XCENC  =       648.81713763
  PAW double counting   =    147135.40092494  -146995.13097108
  entropy T*S    EENTRO =        -0.00000000
  eigenvalues    EBANDS =     -2768.46290891
  atomic energy  EATOM  =      8369.52358910
  ---------------------------------------------------
  free energy    TOTEN  =      -525.86433679 eV

  energy without entropy =     -525.86433679  energy(sigma->0) =     -525.86433679


--------------------------------------------------------------------------------------------------------




--------------------------------------- Iteration      1(  15)  ---------------------------------------


    POTLOK:  cpu time    8.3955: real time    8.4492
    SETDIJ:  cpu time    0.0020: real time    0.0020
    TRIAL :  cpu time   22.3783: real time   22.5486
    CORREC:  cpu time   16.1439: real time   16.2580
    CHARGE:  cpu time    3.2529: real time    3.2768
    --------------------------------------------
      LOOP:  cpu time   50.2252: real time   50.5899

 eigenvalue-minimisations  :     0
 total energy-change (2. order) :-0.7594480E-03  (-0.2009608E-03)
 number of electron     216.0000000 magnetization 
 augmentation part       -0.5052950 magnetization 

 Free energy of the ion-electron system (eV)
  ---------------------------------------------------
  alpha Z        PSCENC =        47.94900195
  Ewald energy   TEWEN  =     40383.20022222
  -Hartree energ DENC   =    -47347.08529060
  -exchange      EXHF   =         0.00000000
  -V(xc)+E(xc)   XCENC  =       648.81827432
  PAW double counting   =    147037.83277437  -146897.56535247
  entropy T*S    EENTRO =        -0.00000000
  eigenvalues    EBANDS =     -2768.53831513
  atomic energy  EATOM  =      8369.52358910
  ---------------------------------------------------
  free energy    TOTEN  =      -525.86509624 eV

  energy without entropy =     -525.86509624  energy(sigma->0) =     -525.86509624


--------------------------------------------------------------------------------------------------------




--------------------------------------- Iteration      1(  16)  ---------------------------------------


    POTLOK:  cpu time    8.3836: real time    8.4375
    SETDIJ:  cpu time    0.0018: real time    0.0018
    TRIAL :  cpu time   22.3829: real time   22.5729
    CORREC:  cpu time   16.1533: real time   16.2674
    CHARGE:  cpu time    3.2517: real time    3.2772
    --------------------------------------------
      LOOP:  cpu time   50.1871: real time   50.5753

 eigenvalue-minimisations  :     0
 total energy-change (2. order) :-0.2039598E-03  (-0.6866598E-04)
 number of electron     216.0000000 magnetization 
 augmentation part       -0.5053389 magnetization 

 Free energy of the ion-electron system (eV)
  ---------------------------------------------------
  alpha Z        PSCENC =        47.94900195
  Ewald energy   TEWEN  =     40383.20022222
  -Hartree energ DENC   =    -47346.98713153
  -exchange      EXHF   =         0.00000000
  -V(xc)+E(xc)   XCENC  =       648.81670082
  PAW double counting   =    146980.64636371  -146840.37946982
  entropy T*S    EENTRO =        -0.00000000
  eigenvalues    EBANDS =     -2768.63457666
  atomic energy  EATOM  =      8369.52358910
  ---------------------------------------------------
  free energy    TOTEN  =      -525.86530020 eV

  energy without entropy =     -525.86530020  energy(sigma->0) =     -525.86530020


--------------------------------------------------------------------------------------------------------




--------------------------------------- Iteration      1(  17)  ---------------------------------------


    POTLOK:  cpu time    8.3981: real time    8.4509
    SETDIJ:  cpu time    0.0018: real time    0.0018
    TRIAL :  cpu time   22.3604: real time   22.5680
    CORREC:  cpu time   16.1675: real time   16.2793
    CHARGE:  cpu time    3.2404: real time    3.2623
    --------------------------------------------
      LOOP:  cpu time   50.2686: real time   50.6673

 eigenvalue-minimisations  :     0
 total energy-change (2. order) :-0.6740898E-04  (-0.2495930E-04)
 number of electron     216.0000000 magnetization 
 augmentation part       -0.5053556 magnetization 

 Free energy of the ion-electron system (eV)
  ---------------------------------------------------
  alpha Z        PSCENC =        47.94900195
  Ewald energy   TEWEN  =     40383.20022222
  -Hartree energ DENC   =    -47347.10151082
  -exchange      EXHF   =         0.00000000
  -V(xc)+E(xc)   XCENC  =       648.82332893
  PAW double counting   =    146935.52989179  -146795.26372406
  entropy T*S    EENTRO =        -0.00000000
  eigenvalues    EBANDS =     -2768.52616672
  atomic energy  EATOM  =      8369.52358910
  ---------------------------------------------------
  free energy    TOTEN  =      -525.86536761 eV

  energy without entropy =     -525.86536761  energy(sigma->0) =     -525.86536761


--------------------------------------------------------------------------------------------------------




--------------------------------------- Iteration      1(  18)  ---------------------------------------


    POTLOK:  cpu time    8.4377: real time    8.4894
    SETDIJ:  cpu time    0.0020: real time    0.0020
    TRIAL :  cpu time   22.3822: real time   22.5691
    CORREC:  cpu time   16.1684: real time   16.2855
    CHARGE:  cpu time    3.2551: real time    3.2791
    --------------------------------------------
      LOOP:  cpu time   50.2905: real time   50.6877

 eigenvalue-minimisations  :     0
 total energy-change (2. order) :-0.2415886E-04  (-0.9229556E-05)
 number of electron     216.0000000 magnetization 
 augmentation part       -0.5053837 magnetization 

 Free energy of the ion-electron system (eV)
  ---------------------------------------------------
  alpha Z        PSCENC =        47.94900195
  Ewald energy   TEWEN  =     40383.20022222
  -Hartree energ DENC   =    -47347.18202474
  -exchange      EXHF   =         0.00000000
  -V(xc)+E(xc)   XCENC  =       648.82701245
  PAW double counting   =    146915.25626059  -146774.99011072
  entropy T*S    EENTRO =        -0.00000000
  eigenvalues    EBANDS =     -2768.44934261
  atomic energy  EATOM  =      8369.52358910
  ---------------------------------------------------
  free energy    TOTEN  =      -525.86539177 eV

  energy without entropy =     -525.86539177  energy(sigma->0) =     -525.86539177


--------------------------------------------------------------------------------------------------------




--------------------------------------- Iteration      1(  19)  ---------------------------------------


    POTLOK:  cpu time    8.3554: real time    8.4381
    SETDIJ:  cpu time    0.0046: real time    0.0048
    TRIAL :  cpu time   22.3692: real time   22.5709
    CORREC:  cpu time   16.1437: real time   16.2478
    CHARGE:  cpu time    3.2512: real time    3.2737
    --------------------------------------------
      LOOP:  cpu time   50.1620: real time   50.5805

 eigenvalue-minimisations  :     0
 total energy-change (2. order) :-0.9188574E-05  (-0.9222132E-05)
 number of electron     216.0000000 magnetization 
 augmentation part       -0.5054122 magnetization 

 Free energy of the ion-electron system (eV)
  ---------------------------------------------------
  alpha Z        PSCENC =        47.94900195
  Ewald energy   TEWEN  =     40383.20022222
  -Hartree energ DENC   =    -47347.18576683
  -exchange      EXHF   =         0.00000000
  -V(xc)+E(xc)   XCENC  =       648.82649460
  PAW double counting   =    146916.64357542  -146776.37691385
  entropy T*S    EENTRO =        -0.00000000
  eigenvalues    EBANDS =     -2768.44560357
  atomic energy  EATOM  =      8369.52358910
  ---------------------------------------------------
  free energy    TOTEN  =      -525.86540096 eV

  energy without entropy =     -525.86540096  energy(sigma->0) =     -525.86540096


--------------------------------------------------------------------------------------------------------




--------------------------------------- Iteration      1(  20)  ---------------------------------------


    POTLOK:  cpu time    8.3795: real time    8.4354
    SETDIJ:  cpu time    0.0019: real time    0.0019
    TRIAL :  cpu time   22.4194: real time   22.5830
    CORREC:  cpu time   16.1947: real time   16.3054
    CHARGE:  cpu time    3.2529: real time    3.2764
    --------------------------------------------
      LOOP:  cpu time   50.3125: real time   50.6677

 eigenvalue-minimisations  :     0
 total energy-change (2. order) : 0.1442648E-05  (-0.7277429E-05)
 number of electron     216.0000000 magnetization 
 augmentation part       -0.5054108 magnetization 

 Free energy of the ion-electron system (eV)
  ---------------------------------------------------
  alpha Z        PSCENC =        47.94900195
  Ewald energy   TEWEN  =     40383.20022222
  -Hartree energ DENC   =    -47347.24610152
  -exchange      EXHF   =         0.00000000
  -V(xc)+E(xc)   XCENC  =       648.82839789
  PAW double counting   =    146936.29905816  -146796.03197904
  entropy T*S    EENTRO =        -0.00000000
  eigenvalues    EBANDS =     -2768.38758828
  atomic energy  EATOM  =      8369.52358910
  ---------------------------------------------------
  free energy    TOTEN  =      -525.86539952 eV

  energy without entropy =     -525.86539952  energy(sigma->0) =     -525.86539952


--------------------------------------------------------------------------------------------------------




--------------------------------------- Iteration      1(  21)  ---------------------------------------


    POTLOK:  cpu time    8.3854: real time    8.4366
    SETDIJ:  cpu time    0.0019: real time    0.0019
    TRIAL :  cpu time   22.4179: real time   22.5839
    CORREC:  cpu time   16.1845: real time   16.2962
    CHARGE:  cpu time    3.2455: real time    3.2710
    --------------------------------------------
      LOOP:  cpu time   50.3156: real time   50.6834

 eigenvalue-minimisations  :     0
 total energy-change (2. order) :-0.6983231E-05  (-0.1030631E-05)
 number of electron     216.0000000 magnetization 
 augmentation part       -0.5053959 magnetization 

 Free energy of the ion-electron system (eV)
  ---------------------------------------------------
  alpha Z        PSCENC =        47.94900195
  Ewald energy   TEWEN  =     40383.20022222
  -Hartree energ DENC   =    -47347.21950926
  -exchange      EXHF   =         0.00000000
  -V(xc)+E(xc)   XCENC  =       648.82679199
  PAW double counting   =    146934.30473715  -146794.03758866
  entropy T*S    EENTRO =        -0.00000000
  eigenvalues    EBANDS =     -2768.41265098
  atomic energy  EATOM  =      8369.52358910
  ---------------------------------------------------
  free energy    TOTEN  =      -525.86540650 eV

  energy without entropy =     -525.86540650  energy(sigma->0) =     -525.86540650


--------------------------------------------------------------------------------------------------------




--------------------------------------- Iteration      1(  22)  ---------------------------------------


    POTLOK:  cpu time    8.3867: real time    8.4386
    SETDIJ:  cpu time    0.0018: real time    0.0018
    TRIAL :  cpu time   22.3802: real time   22.5841
    CORREC:  cpu time   16.1628: real time   16.2715
    CHARGE:  cpu time    3.2427: real time    3.2675
    --------------------------------------------
      LOOP:  cpu time   50.2271: real time   50.6229

 eigenvalue-minimisations  :     0
 total energy-change (2. order) :-0.1007720E-05  (-0.2104645E-06)
 number of electron     216.0000000 magnetization 
 augmentation part       -0.5053909 magnetization 

 Free energy of the ion-electron system (eV)
  ---------------------------------------------------
  alpha Z        PSCENC =        47.94900195
  Ewald energy   TEWEN  =     40383.20022222
  -Hartree energ DENC   =    -47347.22058677
  -exchange      EXHF   =         0.00000000
  -V(xc)+E(xc)   XCENC  =       648.82704749
  PAW double counting   =    146932.58521623  -146792.31824464
  entropy T*S    EENTRO =        -0.00000000
  eigenvalues    EBANDS =     -2768.41165308
  atomic energy  EATOM  =      8369.52358910
  ---------------------------------------------------
  free energy    TOTEN  =      -525.86540751 eV

  energy without entropy =     -525.86540751  energy(sigma->0) =     -525.86540751


--------------------------------------------------------------------------------------------------------




--------------------------------------- Iteration      1(  23)  ---------------------------------------


    POTLOK:  cpu time    8.3933: real time    8.4573
    SETDIJ:  cpu time    0.0019: real time    0.0020
    TRIAL :  cpu time   22.3226: real time   22.5635
    CORREC:  cpu time   16.1737: real time   16.2852
    CHARGE:  cpu time    3.2582: real time    3.2807
    --------------------------------------------
      LOOP:  cpu time   50.1749: real time   50.6642

 eigenvalue-minimisations  :     0
 total energy-change (2. order) :-0.1290173E-06  (-0.5778100E-07)
 number of electron     216.0000000 magnetization 
 augmentation part       -0.5053905 magnetization 

 Free energy of the ion-electron system (eV)
  ---------------------------------------------------
  alpha Z        PSCENC =        47.94900195
  Ewald energy   TEWEN  =     40383.20022222
  -Hartree energ DENC   =    -47347.21781303
  -exchange      EXHF   =         0.00000000
  -V(xc)+E(xc)   XCENC  =       648.82699891
  PAW double counting   =    146932.04782579  -146791.78091667
  entropy T*S    EENTRO =        -0.00000000
  eigenvalues    EBANDS =     -2768.41431591
  atomic energy  EATOM  =      8369.52358910
  ---------------------------------------------------
  free energy    TOTEN  =      -525.86540764 eV

  energy without entropy =     -525.86540764  energy(sigma->0) =     -525.86540764


--------------------------------------------------------------------------------------------------------




--------------------------------------- Iteration      1(  24)  ---------------------------------------


    POTLOK:  cpu time    8.3999: real time    8.4604
    SETDIJ:  cpu time    0.0020: real time    0.0020
    TRIAL :  cpu time   22.3302: real time   22.5629
    CORREC:  cpu time   16.1356: real time   16.2809
    EDDIAG:  cpu time    4.5769: real time    4.6383
    CHARGE:  cpu time    3.2500: real time    3.2778
    --------------------------------------------
      LOOP:  cpu time   54.7339: real time   55.2634

 eigenvalue-minimisations  :     0
 total energy-change (2. order) : 0.3783498E-09  (-0.3870807E-07)
 number of electron     216.0000000 magnetization 
 augmentation part       -0.5053897 magnetization 

 Free energy of the ion-electron system (eV)
  ---------------------------------------------------
  alpha Z        PSCENC =        47.94900195
  Ewald energy   TEWEN  =     40383.20022222
  -Hartree energ DENC   =    -47347.21532197
  -exchange      EXHF   =         0.00000000
  -V(xc)+E(xc)   XCENC  =       648.82689576
  PAW double counting   =    146932.06504842  -146791.79814529
  entropy T*S    EENTRO =        -0.00000000
  eigenvalues    EBANDS =     -2768.41669782
  atomic energy  EATOM  =      8369.52358910
  ---------------------------------------------------
  free energy    TOTEN  =      -525.86540763 eV

  energy without entropy =     -525.86540763  energy(sigma->0) =     -525.86540763


--------------------------------------------------------------------------------------------------------


  average scaling for gradient   0.9701


 average (electrostatic) potential at core
  the test charge radii are     0.5770  0.5955
  (the norm of the test charge is              1.0000)
       1 -88.0711       2 -88.0698       3 -88.0709       4 -88.0703       5 -88.0673
       6 -88.0660       7 -88.0694       8 -88.0661       9 -88.0673      10 -88.0678
      11 -88.0650      12 -88.0660      13 -88.0671      14 -88.0637      15 -88.0646
      16 -88.0672      17 -88.0678      18 -88.0698      19 -88.0677      20 -88.0669
      21 -88.0669      22 -88.0633      23 -88.0683      24 -88.0668      25 -88.0671
      26 -88.0661      27 -88.0637      28 -88.0679      29 -88.0675      30 -88.0636
      31 -88.0653      32 -88.0666      33 -88.0674      34 -88.0678      35 -88.0638
      36 -88.0671      37 -88.0642      38 -88.0683      39 -88.0679      40 -88.0699
      41 -88.0707      42 -88.0712      43 -88.0693      44 -88.0699      45 -88.0669
      46 -88.0661      47 -88.0669      48 -88.0663      49 -88.0696      50 -88.0699
      51 -92.1281      52-124.2546      53-124.2586
 
 
 
 E-fermi :  -4.4103     XC(G=0):  -1.8895     alpha+bet : -1.6890

 Fermi energy:        -4.4103423400

 k-point     1 :       0.0000    0.0000    0.0000
  band No.  band energies     occupation 
      1     -29.1896      2.00000
      2     -28.1630      2.00000
      3     -23.5775      2.00000
      4     -22.5920      2.00000
      5     -22.5911      2.00000
      6     -22.5907      2.00000
      7     -22.5905      2.00000
      8     -22.5902      2.00000
      9     -22.5893      2.00000
     10     -20.6592      2.00000
     11     -20.6591      2.00000
     12     -20.6588      2.00000
     13     -20.6581      2.00000
     14     -20.6576      2.00000
     15     -20.6574      2.00000
     16     -19.7236      2.00000
     17     -19.7234      2.00000
     18     -19.7228      2.00000
     19     -19.7227      2.00000
     20     -19.7218      2.00000
     21     -19.7215      2.00000
     22     -17.5021      2.00000
     23     -17.5016      2.00000
     24     -17.5013      2.00000
     25     -17.5008      2.00000
     26     -17.4999      2.00000
     27     -17.4999      2.00000
     28     -16.3439      2.00000
     29     -16.3438      2.00000
     30     -16.3426      2.00000
     31     -16.3425      2.00000
     32     -16.3421      2.00000
     33     -16.3419      2.00000
     34     -14.9508      2.00000
     35     -14.9507      2.00000
     36     -14.9499      2.00000
     37     -14.9497      2.00000
     38     -14.9495      2.00000
     39     -14.9492      2.00000
     40     -13.1427      2.00000
     41     -12.4916      2.00000
     42     -12.4913      2.00000
     43     -12.4909      2.00000
     44     -12.4908      2.00000
     45     -12.4895      2.00000
     46     -12.4892      2.00000
     47     -12.2740      2.00000
     48     -12.2740      2.00000
     49     -12.2730      2.00000
     50     -12.2727      2.00000
     51     -12.2723      2.00000
     52     -12.2722      2.00000
     53     -11.8653      2.00000
     54     -11.6101      2.00000
     55     -11.6086      2.00000
     56     -10.9430      2.00000
     57     -10.8281      2.00000
     58     -10.8279      2.00000
     59     -10.8262      2.00000
     60     -10.8258      2.00000
     61     -10.8257      2.00000
     62     -10.8256      2.00000
     63      -9.7698      2.00000
     64      -9.7688      2.00000
     65      -9.7685      2.00000
     66      -9.7684      2.00000
     67      -9.7683      2.00000
     68      -9.7676      2.00000
     69      -9.5268      2.00000
     70      -9.5265      2.00000
     71      -9.5263      2.00000
     72      -9.5255      2.00000
     73      -9.5252      2.00000
     74      -9.5251      2.00000
     75      -9.5245      2.00000
     76      -9.5236      2.00000
     77      -9.5233      2.00000
     78      -9.5230      2.00000
     79      -9.5228      2.00000
     80      -9.5222      2.00000
     81      -8.0148      2.00000
     82      -8.0122      2.00000
     83      -7.8203      2.00000
     84      -7.8188      2.00000
     85      -7.8184      2.00000
     86      -7.8179      2.00000
     87      -7.8160      2.00000
     88      -7.8152      2.00000
     89      -7.5270      2.00000
     90      -7.5267      2.00000
     91      -7.5265      2.00000
     92      -7.5261      2.00000
     93      -7.5256      2.00000
     94      -7.5254      2.00000
     95      -6.5815      2.00000
     96      -6.5815      2.00000
     97      -6.5812      2.00000
     98      -6.5810      2.00000
     99      -6.5803      2.00000
    100      -6.5800      2.00000
    101      -6.3024      2.00000
    102      -6.3001      2.00000
    103      -4.4830      2.00000
    104      -4.4826      2.00000
    105      -4.4819      2.00000
    106      -4.4818      2.00000
    107      -4.4814      2.00000
    108      -4.4813      2.00000
    109      -1.5077      0.00000
    110      -1.5075      0.00000
    111      -1.5074      0.00000
    112      -1.5072      0.00000
    113      -1.5064      0.00000
    114      -1.5061      0.00000
    115       0.4712      0.00000
    116       0.4714      0.00000
    117       0.4717      0.00000
    118       0.4721      0.00000
    119       0.4724      0.00000
    120       0.4737      0.00000
    121       0.6351      0.00000
    122       0.9361      0.00000
    123       1.2649      0.00000
    124       1.2663      0.00000
    125       1.4008      0.00000
    126       1.8325      0.00000
    127       1.9350      0.00000
    128       1.9370      0.00000
    129       1.9383      0.00000
    130       1.9398      0.00000
    131       1.9402      0.00000
    132       1.9411      0.00000
    133       2.2160      0.00000
    134       2.3398      0.00000
    135       2.3519      0.00000
    136       2.3521      0.00000
    137       2.3524      0.00000
    138       2.3528      0.00000
    139       2.3530      0.00000
    140       2.3534      0.00000
    141       2.5982      0.00000
    142       2.6859      0.00000
    143       2.6924      0.00000
    144       2.7004      0.00000
    145       2.7045      0.00000
    146       2.7084      0.00000
    147       2.7121      0.00000
    148       2.7835      0.00000
    149       2.8227      0.00000
    150       2.8348      0.00000
    151       2.9930      0.00000
    152       3.2546      0.00000
    153       3.4038      0.00000
    154       3.5554      0.00000
    155       3.5654      0.00000
    156       3.6471      0.00000
    157       4.3586      0.00000
    158       4.5111      0.00000
    159       4.7107      0.00000
    160       4.8841      0.00000
    161       4.9105      0.00000
    162       4.9388      0.00000
    163       4.9432      0.00000
    164       4.9539      0.00000
    165       4.9557      0.00000
    166       4.9573      0.00000
    167       5.0803      0.00000
    168       5.4014      0.00000


--------------------------------------------------------------------------------------------------------


 soft charge-density along one line, spin component           1
         0         1         2         3         4         5         6         7         8         9
 total charge-density along one line
 
 pseudopotential strength for first ion, spin component:           1
 12.643  21.273  -0.000   0.000   0.000  -0.000   0.000   0.000
 21.273  35.792  -0.000   0.000   0.000  -0.000   0.000   0.000
 -0.000  -0.000  -3.239   0.000   0.000  -5.804   0.000   0.000
  0.000   0.000   0.000  -3.243   0.000   0.000  -5.810   0.000
  0.000   0.000   0.000   0.000  -3.239   0.000   0.000  -5.804
 -0.000  -0.000  -5.804   0.000   0.000 -10.375   0.000   0.000
  0.000   0.000   0.000  -5.810   0.000   0.000 -10.385   0.000
  0.000   0.000   0.000   0.000  -5.804   0.000   0.000 -10.375
 total augmentation occupancy for first ion, spin component:           1
  9.644  -3.599   0.000  -0.002  -0.001  -0.000   0.001   0.000
 -3.599   1.374  -0.000   0.001   0.001   0.000  -0.000  -0.000
  0.000  -0.000   8.197  -0.009   0.001  -2.896   0.003  -0.000
 -0.002   0.001  -0.009   3.783  -0.000   0.003  -1.107   0.000
 -0.001   0.001   0.001  -0.000   8.195  -0.000   0.000  -2.895
 -0.000   0.000  -2.896   0.003  -0.000   1.036  -0.001   0.000
  0.001  -0.000   0.003  -1.107   0.000  -0.001   0.329  -0.000
  0.000  -0.000  -0.000   0.000  -2.895   0.000  -0.000   1.035


------------------------ aborting loop because EDIFF is reached ----------------------------------------


    FORLOC:  cpu time    0.1415: real time    0.1424
    FORNL :  cpu time    4.1495: real time    4.1789
    FORCOR:  cpu time    8.2854: real time    8.3562
    OFIELD:  cpu time    0.0032: real time    0.0032

 VOLUME and BASIS-vectors are now :
 -----------------------------------------------------------------------------
  energy-cutoff  :     1000.00
  volume of cell :     3288.85
      direct lattice vectors                 reciprocal lattice vectors
    12.325000000  0.000000000  0.000000000     0.081135903  0.046843835  0.000000000
    -6.162500000 10.673763102  0.000000000     0.000000000  0.093687670  0.000000000
     0.000000000  0.000000000 25.000000000     0.000000000  0.000000000  0.040000000

  length of vectors
    12.325000000 12.325000000 25.000000000     0.093687670  0.093687670  0.040000000


 FORCES acting on ions:
    Electron-Ion                     Ewald-Force                    Non-Local-Force
 -----------------------------------------------------------------------------------------------
   0.248E+00 0.226E+00 0.814E+01   -.243E+00 -.232E+00 -.815E+01   -.450E-02 0.619E-02 0.792E-02
   0.333E+00 0.227E+00 0.889E+01   -.332E+00 -.235E+00 -.889E+01   -.460E-02 0.128E-01 -.499E-02
   0.121E+00 0.349E+00 0.859E+01   -.130E+00 -.353E+00 -.859E+01   0.966E-02 0.178E-01 -.153E-02
   0.158E+00 0.239E+00 0.104E+02   -.161E+00 -.249E+00 -.104E+02   0.198E-01 0.164E-01 -.184E-01
   0.321E+00 0.890E-01 0.862E+01   -.311E+00 -.996E-01 -.863E+01   -.126E-01 0.924E-02 0.519E-02
   0.323E+00 -.858E-01 0.880E+01   -.323E+00 0.786E-01 -.880E+01   -.113E-01 0.148E-01 -.312E-02
   0.289E+00 0.191E+00 0.106E+02   -.291E+00 -.205E+00 -.106E+02   0.118E-01 0.491E-03 -.730E-02
   0.340E+00 -.794E-01 0.118E+02   -.344E+00 0.692E-01 -.118E+02   -.760E-02 0.124E-01 -.405E-02
   -.146E+00 0.413E+00 0.908E+01   0.137E+00 -.419E+00 -.908E+01   0.183E-01 -.933E-02 -.517E-02
   -.125E+00 0.124E+00 0.108E+02   0.117E+00 -.130E+00 -.108E+02   -.114E-01 0.232E-01 0.184E-02
   0.845E-01 -.730E-01 0.817E+01   -.798E-01 0.742E-01 -.817E+01   0.235E-02 -.424E-02 -.156E-03
   0.924E-01 -.685E-01 0.807E+01   -.993E-01 0.750E-01 -.808E+01   0.127E-02 -.621E-02 0.665E-02
   -.876E-03 -.236E+00 0.125E+02   -.208E-02 0.231E+00 -.125E+02   0.293E-01 0.337E-02 -.275E-03
   0.135E-01 -.445E+00 0.103E+02   -.150E-01 0.446E+00 -.103E+02   0.564E-03 0.812E-02 -.161E-01
   -.309E+00 0.178E+00 0.827E+01   0.312E+00 -.182E+00 -.828E+01   0.698E-02 -.155E-02 0.845E-02
   -.358E+00 0.678E-01 0.828E+01   0.357E+00 -.679E-01 -.827E+01   -.163E-02 0.642E-02 -.953E-02
   -.462E-01 -.123E-01 0.767E+01   0.452E-01 0.227E-01 -.767E+01   0.627E-02 -.165E-01 0.290E-02
   0.239E-01 0.178E+00 0.766E+01   -.307E-01 -.170E+00 -.767E+01   0.682E-02 -.111E-01 0.114E-01
   -.895E-01 -.382E+00 0.914E+01   0.947E-01 0.390E+00 -.914E+01   -.245E-02 -.983E-02 -.338E-02
   -.490E-01 -.242E+00 0.828E+01   0.573E-01 0.248E+00 -.828E+01   -.158E-01 -.891E-02 0.688E-03
   0.406E+00 -.156E+00 0.983E+01   -.403E+00 0.150E+00 -.981E+01   -.506E-02 0.860E-02 -.199E-01
   0.305E+00 -.240E+00 0.921E+01   -.309E+00 0.240E+00 -.921E+01   -.472E-02 0.699E-02 0.149E-02
   -.643E-01 0.698E-01 0.120E+02   0.511E-01 -.778E-01 -.120E+02   0.179E-02 0.251E-01 0.680E-03
   -.116E+00 -.139E+00 0.121E+02   0.115E+00 0.129E+00 -.120E+02   0.181E-01 -.426E-02 -.127E-01
   0.148E+00 -.502E-01 0.827E+01   -.151E+00 0.546E-01 -.826E+01   0.110E-01 -.104E-01 -.506E-02
   0.528E-01 0.127E+00 0.806E+01   -.640E-01 -.121E+00 -.807E+01   0.101E-01 -.485E-02 0.857E-02
   -.425E+00 -.196E-01 0.940E+01   0.422E+00 0.144E-01 -.940E+01   0.206E-01 0.117E-01 -.112E-02
   -.340E+00 -.172E+00 0.888E+01   0.341E+00 0.172E+00 -.888E+01   -.750E-02 0.755E-02 -.588E-02
   0.138E+00 -.337E+00 0.929E+01   -.136E+00 0.337E+00 -.928E+01   0.367E-02 0.180E-02 -.111E-01
   0.224E-01 -.139E+00 0.844E+01   -.237E-01 0.143E+00 -.844E+01   -.595E-02 -.691E-03 0.800E-03
   -.250E+00 -.218E+00 0.962E+01   0.247E+00 0.221E+00 -.961E+01   -.112E-01 -.970E-02 -.186E-01
   -.187E+00 -.380E+00 0.878E+01   0.194E+00 0.386E+00 -.878E+01   -.695E-02 -.116E-01 -.113E-02
   0.122E-01 0.986E-01 0.794E+01   0.474E-03 -.103E+00 -.795E+01   -.126E-01 0.244E-03 0.962E-02
   0.529E-01 0.620E-01 0.802E+01   -.480E-01 -.666E-01 -.802E+01   -.146E-01 0.130E-01 -.141E-02
   -.184E+00 0.356E-01 0.806E+01   0.192E+00 -.397E-01 -.807E+01   -.336E-02 0.190E-02 0.978E-02
   -.159E+00 -.872E-01 0.802E+01   0.157E+00 0.876E-01 -.802E+01   -.393E-02 0.128E-02 0.564E-03
   -.287E+00 -.173E+00 0.804E+01   0.289E+00 0.178E+00 -.804E+01   0.187E-03 -.879E-02 0.510E-02
   -.194E+00 -.156E+00 0.785E+01   0.194E+00 0.166E+00 -.786E+01   -.273E-02 -.134E-01 0.853E-02
   -.186E+00 -.218E+00 0.795E+01   0.188E+00 0.231E+00 -.796E+01   -.778E-02 -.166E-01 0.504E-02
   -.190E-01 -.678E-01 0.778E+01   0.261E-01 0.754E-01 -.779E+01   -.629E-02 -.118E-01 0.896E-02
   0.777E-01 0.184E+00 0.767E+01   -.792E-01 -.177E+00 -.768E+01   -.314E-02 -.825E-02 0.850E-02
   0.229E+00 0.312E+00 0.798E+01   -.228E+00 -.314E+00 -.799E+01   -.332E-03 -.161E-03 0.866E-02
   0.291E-01 0.288E+00 0.778E+01   -.361E-01 -.285E+00 -.778E+01   0.153E-01 -.690E-02 0.384E-02
   0.119E-01 0.397E+00 0.838E+01   -.230E-01 -.398E+00 -.839E+01   0.906E-02 0.148E-02 0.606E-02
   -.685E-01 0.106E+00 0.817E+01   0.635E-01 -.108E+00 -.817E+01   0.139E-01 -.442E-02 0.928E-04
   -.186E+00 0.273E+00 0.833E+01   0.177E+00 -.271E+00 -.833E+01   0.562E-02 -.136E-02 -.238E-02
   -.756E-01 -.132E+00 0.829E+01   0.836E-01 0.131E+00 -.830E+01   -.509E-02 -.273E-02 0.498E-02
   -.115E+00 0.394E-01 0.792E+01   0.122E+00 -.368E-01 -.792E+01   -.160E-01 0.218E-02 -.368E-02
   0.636E-02 -.662E-01 0.791E+01   0.311E-02 0.710E-01 -.791E+01   -.104E-01 -.103E-01 0.783E-02
   0.129E+00 0.926E-01 0.786E+01   -.121E+00 -.907E-01 -.786E+01   -.163E-01 0.216E-02 0.529E-02
   -.199E-02 0.248E-01 -.109E+03   0.120E-02 -.272E-01 0.109E+03   -.170E-01 0.153E-01 -.345E-02
   -.228E+03 0.155E+03 -.177E+03   0.279E+03 -.190E+03 0.180E+03   -.527E+02 0.358E+02 -.354E+01
   0.228E+03 -.155E+03 -.155E+03   -.279E+03 0.190E+03 0.152E+03   0.527E+02 -.359E+02 0.317E+01
 -----------------------------------------------------------------------------------------------
   -.203E-01 0.602E-02 0.374E+00   0.114E-12 -.142E-12 0.284E-13   -.454E-02 0.202E-01 -.378E+00
 
 
 POSITION                                       TOTAL-FORCE (eV/Angst)
 -----------------------------------------------------------------------------------
     11.98348      0.00342      0.01417        -0.006249      0.005932     -0.000313
     -0.34154      1.42665      0.01100        -0.013138      0.018442     -0.002392
      2.12355      0.00315      0.01249         0.009963      0.018161     -0.006088
      2.12326      1.42653      0.00641         0.028852      0.019596     -0.007151
     10.75099      2.13819      0.01213        -0.007082      0.016250      0.000454
     -1.57382      3.56123      0.01110        -0.026222      0.013802     -0.002158
      0.89078      2.13854      0.00548         0.010815      0.010704      0.003763
      0.89099      3.56147      0.00181        -0.010309      0.011353      0.014159
      4.58864      0.00346      0.01135         0.026262     -0.018306     -0.002804
      4.58894      1.42623      0.00646         0.003232      0.028883      0.014778
      9.51854      4.27281      0.01369         0.016622      0.001012     -0.000788
     -2.80632      5.69591      0.01434        -0.005995     -0.016985      0.000001
      2.12300      4.27302      0.00000         0.024204      0.015971      0.023338
      2.12335      5.69594      0.00581         0.004497      0.004915     -0.000800
      7.05344      0.00333      0.01399         0.008900     -0.015511     -0.001304
      7.05353      1.42635      0.01368        -0.002849      0.014206     -0.006367
      8.28610      6.40752      0.01601         0.017912     -0.020876     -0.000400
     -4.03885      7.83070      0.01636         0.007486     -0.018581      0.000494
      3.35586      6.40753      0.01007        -0.014406     -0.011373     -0.002744
      3.35599      7.83072      0.01320        -0.017557     -0.008141      0.000397
     -0.34146      4.27290      0.00723         0.000814      0.019677     -0.005469
     -0.34138      5.69591      0.00946        -0.012561      0.003801      0.000600
      3.35624      2.13791      0.00222        -0.005453      0.033712      0.018282
      3.35573      3.56155      0.00139         0.033429     -0.008435      0.010398
     -1.57395      6.40758      0.01311         0.025549     -0.014767     -0.002052
     -1.57385      7.83068      0.01438         0.009800     -0.002729      0.000712
      5.82093      2.13784      0.01033         0.020511      0.007302     -0.001184
      5.82114      3.56097      0.01156         0.001154      0.002063     -0.006723
      0.89092      6.40755      0.00907         0.004723      0.000173     -0.004381
      0.89106      7.83068      0.01235        -0.007263      0.008812      0.001654
      4.58871      4.27293      0.00850        -0.024223     -0.003350     -0.011746
      4.58852      5.69606      0.01149         0.001604     -0.024437     -0.004961
      9.51845      0.00337      0.01490        -0.016684     -0.006208      0.000575
      9.51855      1.42644      0.01438        -0.030292      0.020282     -0.000735
      8.28593      2.13803      0.01453         0.002900     -0.000058      0.001725
      8.28613      3.56115      0.01464        -0.012711     -0.003853     -0.002390
      7.05356      4.27269      0.01457         0.003839     -0.008214      0.000336
      7.05362      5.69588      0.01553        -0.001866     -0.028574     -0.000654
      5.82112      6.40755      0.01489        -0.015372     -0.017902      0.000344
      5.82102      7.83073      0.01579        -0.004714     -0.019923      0.000532
      7.05363      8.54227      0.01631        -0.003187     -0.010796      0.001813
     -5.27149      9.96549      0.01495         0.001926     -0.001198     -0.001860
     -2.80638      8.54234      0.01558         0.028519     -0.014878     -0.000467
     -2.80627      9.96553      0.01362         0.016768      0.004250     -0.003253
     -0.34149      8.54239      0.01378         0.023334     -0.017191     -0.001419
     -0.34138      9.96550      0.01354         0.010918      0.010462     -0.002356
      2.12343      8.54232      0.01336        -0.012425     -0.013984     -0.000703
      2.12354      9.96544      0.01469        -0.023351      0.013658     -0.002629
      4.58846      8.54235      0.01505        -0.019304     -0.016346      0.002074
      4.58853      9.96550      0.01517        -0.024091      0.006962      0.001168
      3.04930      2.68154     10.00000        -0.033577      0.021617      0.040079
      4.02070      2.02068     10.06442        -1.665969      1.101517     -0.124621
      2.07767      3.34267      9.94055         1.672320     -1.110898      0.073237
 -----------------------------------------------------------------------------------
    total drift:                               -0.024878      0.026222     -0.004221


--------------------------------------------------------------------------------------------------------



  FREE ENERGIE OF THE ION-ELECTRON SYSTEM (eV)
  ---------------------------------------------------
  free  energy   TOTEN  =      -525.86540763 eV

  energy  without entropy=     -525.86540763  energy(sigma->0) =     -525.86540763
 


--------------------------------------------------------------------------------------------------------


    POTLOK:  cpu time    8.3853: real time    8.4380


--------------------------------------------------------------------------------------------------------


 writing wavefunctions
     LOOP+:  cpu time 1219.4934: real time 1229.6650
    4ORBIT:  cpu time    0.0000: real time    0.0000

 total amount of memory used by VASP MPI-rank0   698619. kBytes
=======================================================================

   base      :      30000. kBytes
   nonl-proj :     230539. kBytes
   fftplans  :      40716. kBytes
   grid      :     363125. kBytes
   one-center:        162. kBytes
   wavefun   :      34077. kBytes
 
  
  
 General timing and accounting informations for this job:
 ========================================================
  
                  Total CPU time used (sec):     1263.563
                            User time (sec):     1222.739
                          System time (sec):       40.825
                         Elapsed time (sec):     1274.877
  
                   Maximum memory used (kb):     1430916.
                   Average memory used (kb):          N/A
  
                          Minor page faults:       376365
                          Major page faults:          103
                 Voluntary context switches:         3738
