 vasp.6.2.1 16May21 (build Nov 06 2021 14:46:37) complex                        
  
 executed on             LinuxIFC date 2025.04.17  00:03:02
 running on  112 total cores
 distrk:  each k-point on   56 cores,    2 groups
 distr:  one band on NCORE=   1 cores,   56 groups


--------------------------------------------------------------------------------------------------------


 INCAR:
   ALGO = Conjugate
   KPAR = 2
   NCORE = 32
   ISMEAR = 0
   SIGMA = 0.01
   PREC = Accurate
   EDIFF = 1E-7
   ENCUT = 1000
   ISIF = 0
   METAGGA = SCAN
   LUSE_VDW = .TRUE.
   BPARAM = 15.7
   LASPH = .TRUE.
   SYMPREC = 1E-7
   NELM = 200

 POTCAR:    PAW_PBE C_h 06Feb2004                 
 POTCAR:    PAW_PBE O_h 06Feb2004                 
 -----------------------------------------------------------------------------
|                                                                             |
|           W    W    AA    RRRRR   N    N  II  N    N   GGGG   !!!           |
|           W    W   A  A   R    R  NN   N  II  NN   N  G    G  !!!           |
|           W    W  A    A  R    R  N N  N  II  N N  N  G       !!!           |
|           W WW W  AAAAAA  RRRRR   N  N N  II  N  N N  G  GGG   !            |
|           WW  WW  A    A  R   R   N   NN  II  N   NN  G    G                |
|           W    W  A    A  R    R  N    N  II  N    N   GGGG   !!!           |
|                                                                             |
|     The value NCORE = 32 specified in the INCAR file was overwritten,       |
|     because it was not compatible with the 56 processes available:          |
|     NCORE = 1                                                               |
|     was used instead, please check that this makes sense for your           |
|     machine.                                                                |
|                                                                             |
 -----------------------------------------------------------------------------

 -----------------------------------------------------------------------------
|                                                                             |
|           W    W    AA    RRRRR   N    N  II  N    N   GGGG   !!!           |
|           W    W   A  A   R    R  NN   N  II  NN   N  G    G  !!!           |
|           W    W  A    A  R    R  N N  N  II  N N  N  G       !!!           |
|           W WW W  AAAAAA  RRRRR   N  N N  II  N  N N  G  GGG   !            |
|           WW  WW  A    A  R   R   N   NN  II  N   NN  G    G                |
|           W    W  A    A  R    R  N    N  II  N    N   GGGG   !!!           |
|                                                                             |
|     For optimal performance we recommend to set                             |
|       NCORE = 2 up to number-of-cores-per-socket                            |
|     NCORE specifies how many cores store one orbital (NPAR=cpu/NCORE).      |
|     This setting can greatly improve the performance of VASP for DFT.       |
|     The default, NCORE=1 might be grossly inefficient on modern             |
|     multi-core architectures or massively parallel machines. Do your        |
|     own testing! More info at https://www.vasp.at/wiki/index.php/NCORE      |
|     Unfortunately you need to use the default for GW and RPA                |
|     calculations (for HF NCORE is supported but not extensively tested      |
|     yet).                                                                   |
|                                                                             |
 -----------------------------------------------------------------------------

 -----------------------------------------------------------------------------
|                                                                             |
|               ----> ADVICE to this user running VASP <----                  |
|                                                                             |
|     You have switched on vdW-DFT.                                           |
|     This routine was written and supplied by Jiri Klimes. We recommend      |
|     that you carefully read and cite the following publications:            |
|       J. Klimes, D.R. Bowler, A. Michelides                                 |
|          J. Phys.: Cond Matt. 22 022201 (2010)                              |
|       J. Klimes, D.R. Bowler, A. Michelides                                 |
|          Phys. Rev. B. 83, 195131 (2011)                                    |
|     and references therein.                                                 |
|                                                                             |
 -----------------------------------------------------------------------------

 POTCAR:    PAW_PBE C_h 06Feb2004                 
   VRHFIN =C: s2p2                                                                                  
   LEXCH  = PE                                                                                      
   EATOM  =   147.1560 eV,   10.8157 Ry                                                             
                                                                                                    
   TITEL  = PAW_PBE C_h 06Feb2004                                                                   
   LULTRA =        F    use ultrasoft PP ?                                                          
   IUNSCR =        1    unscreen: 0-lin 1-nonlin 2-no                                               
   RPACOR =    0.800    partial core radius                                                         
   POMASS =   12.011; ZVAL   =    4.000    mass and valenz                                          
   RCORE  =    1.100    outmost cutoff radius                                                       
   RWIGS  =    1.630; RWIGS  =    0.863    wigner-seitz radius (au A)                               
   ENMAX  =  700.000; ENMIN  =  500.000 eV                                                          
   ICORE  =        2    local potential                                                             
   LCOR   =        T    correct aug charges                                                         
   LPAW   =        T    paw PP                                                                      
   EAUG   =  946.768                                                                                
   DEXC   =    0.000                                                                                
   RMAX   =    1.128    core radius for proj-oper                                                   
   RAUG   =    1.300    factor for augmentation sphere                                              
   RDEP   =    1.162    radius for radial grids                                                     
   RDEPT  =    1.088    core radius for aug-charge                                                  
                                                                                                    
   Atomic configuration                                                                             
    4 entries                                                                                       
     n  l   j            E        occ.                                                              
     1  0  0.50      -273.3789   2.0000                                                             
     2  0  0.50       -13.7508   2.0000                                                             
     2  1  0.50        -5.2854   2.0000                                                             
     3  2  1.50        -5.4423   0.0000                                                             
   Description                                                                                      
     l       E           TYP  RCUT    TYP  RCUT                                                     
     0    -13.7508458     23  1.100                                                                 
     0     -8.2022199     23  1.100                                                                 
     1     -5.2854383     23  1.100                                                                 
     1      1.1560700     23  1.100                                                                 
     2     -5.4423304      7  1.100                                                                 
  local pseudopotential read in
  partial core-charges read in
  partial kinetic energy density read in
  atomic valenz-charges read in
  non local Contribution for L=           0  read in
    real space projection operators read in
  non local Contribution for L=           0  read in
    real space projection operators read in
  non local Contribution for L=           1  read in
    real space projection operators read in
  non local Contribution for L=           1  read in
    real space projection operators read in
    PAW grid and wavefunctions read in
 
   number of l-projection  operators is LMAX  =           4
   number of lm-projection operators is LMMAX =           8
 
 POTCAR:    PAW_PBE O_h 06Feb2004                 
   VRHFIN =O: s2p4                                                                                  
   LEXCH  = PE                                                                                      
   EATOM  =   432.3788 eV,   31.7789 Ry                                                             
                                                                                                    
   TITEL  = PAW_PBE O_h 06Feb2004                                                                   
   LULTRA =        F    use ultrasoft PP ?                                                          
   IUNSCR =        1    unscreen: 0-lin 1-nonlin 2-no                                               
   RPACOR =    0.800    partial core radius                                                         
   POMASS =   16.000; ZVAL   =    6.000    mass and valenz                                          
   RCORE  =    1.100    outmost cutoff radius                                                       
   RWIGS  =    1.400; RWIGS  =    0.741    wigner-seitz radius (au A)                               
   ENMAX  =  700.000; ENMIN  =  500.000 eV                                                          
   ICORE  =        2    local potential                                                             
   LCOR   =        T    correct aug charges                                                         
   LPAW   =        T    paw PP                                                                      
   EAUG   =  888.804                                                                                
   DEXC   =    0.000                                                                                
   RMAX   =    1.128    core radius for proj-oper                                                   
   RAUG   =    1.300    factor for augmentation sphere                                              
   RDEP   =    1.125    radius for radial grids                                                     
   RDEPT  =    1.088    core radius for aug-charge                                                  
                                                                                                    
   Atomic configuration                                                                             
    4 entries                                                                                       
     n  l   j            E        occ.                                                              
     1  0  0.50      -514.6923   2.0000                                                             
     2  0  0.50       -23.9615   2.0000                                                             
     2  1  0.50        -9.0305   4.0000                                                             
     3  2  1.50        -9.5241   0.0000                                                             
   Description                                                                                      
     l       E           TYP  RCUT    TYP  RCUT                                                     
     0    -23.9615319     23  1.100                                                                 
     0    -25.3221145     23  1.100                                                                 
     1     -9.0304911     23  1.100                                                                 
     1     -5.4802209     23  1.100                                                                 
     2     -9.5240782      7  1.100                                                                 
  local pseudopotential read in
  partial core-charges read in
  partial kinetic energy density read in
  atomic valenz-charges read in
  non local Contribution for L=           0  read in
    real space projection operators read in
  non local Contribution for L=           0  read in
    real space projection operators read in
  non local Contribution for L=           1  read in
    real space projection operators read in
  non local Contribution for L=           1  read in
    real space projection operators read in
    PAW grid and wavefunctions read in
 
   number of l-projection  operators is LMAX  =           4
   number of lm-projection operators is LMMAX =           8
 
 -----------------------------------------------------------------------------
|                                                                             |
|               ----> ADVICE to this user running VASP <----                  |
|                                                                             |
|     You have a (more or less) 'large supercell' and for larger cells it     |
|     might be more efficient to use real-space projection operators.         |
|     Therefore, try LREAL= Auto in the INCAR file.                           |
|     Mind: For very accurate calculation, you might also keep the            |
|     reciprocal projection scheme (i.e. LREAL=.FALSE.).                      |
|                                                                             |
 -----------------------------------------------------------------------------

  PAW_PBE C_h 06Feb2004                 :
 energy of atom  1       EATOM= -147.1560
 kinetic energy error for atom=    0.0031 (will be added to EATOM!!)
  PAW_PBE O_h 06Feb2004                 :
 energy of atom  2       EATOM= -432.3788
 kinetic energy error for atom=    0.0171 (will be added to EATOM!!)
 
 
 POSCAR:  C  O
  positions in cartesian coordinates
  No initial velocities read in

 METAGGA = SCAN     LMAXTAU =  6    LMIXTAU =  F

 exchange correlation table for  LEXCH =        8
   RHO(1)=    0.500       N(1)  =     2000
   RHO(2)=  100.500       N(2)  =     4000
 


--------------------------------------------------------------------------------------------------------


 ion  position               nearest neighbor table
   1  0.972  0.000  0.001-  50 1.42   2 1.42  42 1.42
   2  0.039  0.134  0.000-   5 1.42   7 1.42   1 1.42
   3  0.172  0.000  0.000-  42 1.42  44 1.42   4 1.42
   4  0.239  0.134  0.000-   7 1.42   3 1.42  23 1.42
   5  0.972  0.200  0.000-   6 1.42   2 1.42  34 1.42
   6  0.039  0.334  0.000-   5 1.42  21 1.42  11 1.42
   7  0.172  0.200  0.000-   8 1.42   2 1.42   4 1.42
   8  0.239  0.334  0.000-  13 1.42   7 1.42  21 1.42
   9  0.372  0.000  0.000-  10 1.42  44 1.42  46 1.42
  10  0.439  0.134  0.000-  27 1.42   9 1.42  23 1.42
  11  0.972  0.400  0.001-  12 1.42  36 1.42   6 1.42
  12  0.039  0.534  0.001-  25 1.42  11 1.42  17 1.42
  13  0.372  0.400  0.000-   8 1.42  14 1.42  24 1.42
  14  0.439  0.534  0.000-  13 1.42  29 1.42  19 1.42
  15  0.572  0.000  0.001-  46 1.42  16 1.42  48 1.42
  16  0.639  0.134  0.001-  15 1.42  35 1.42  27 1.42
  17  0.972  0.600  0.001-  38 1.42  18 1.42  12 1.42
  18  0.039  0.734  0.001-  43 1.42  41 1.42  17 1.42
  19  0.572  0.600  0.000-  14 1.42  20 1.42  32 1.42
  20  0.639  0.734  0.001-  49 1.42  19 1.42  47 1.42
  21  0.172  0.400  0.000-  22 1.42   8 1.42   6 1.42
  22  0.239  0.534  0.000-  21 1.42  29 1.42  25 1.42
  23  0.372  0.200  0.000-  10 1.42   4 1.42  24 1.42
  24  0.439  0.334  0.000-  13 1.42  31 1.42  23 1.42
  25  0.172  0.600  0.001-  26 1.42  12 1.42  22 1.42
  26  0.239  0.734  0.001-  25 1.42  45 1.42  43 1.42
  27  0.572  0.200  0.000-  10 1.42  28 1.42  16 1.42
  28  0.639  0.334  0.000-  27 1.42  37 1.42  31 1.42
  29  0.372  0.600  0.000-  22 1.42  14 1.42  30 1.42
  30  0.439  0.734  0.000-  47 1.42  29 1.42  45 1.42
  31  0.572  0.400  0.000-  32 1.42  28 1.42  24 1.42
  32  0.639  0.534  0.000-  31 1.42  39 1.42  19 1.42
  33  0.772  0.000  0.001-  34 1.42  48 1.42  50 1.42
  34  0.839  0.134  0.001-  33 1.42   5 1.42  35 1.42
  35  0.772  0.200  0.001-  36 1.42  16 1.42  34 1.42
  36  0.839  0.334  0.001-  35 1.42  11 1.42  37 1.42
  37  0.772  0.400  0.001-  28 1.42  38 1.42  36 1.42
  38  0.839  0.534  0.001-  17 1.42  37 1.42  39 1.42
  39  0.772  0.600  0.001-  40 1.42  38 1.42  32 1.42
  40  0.839  0.734  0.001-  39 1.42  49 1.42  41 1.42
  41  0.972  0.800  0.001-  18 1.42  42 1.42  40 1.42
  42  0.039  0.934  0.001-   3 1.42  41 1.42   1 1.42
  43  0.172  0.800  0.001-  18 1.42  44 1.42  26 1.42
  44  0.239  0.934  0.001-   9 1.42  43 1.42   3 1.42
  45  0.372  0.800  0.001-  26 1.42  46 1.42  30 1.42
  46  0.439  0.934  0.001-  15 1.42  45 1.42   9 1.42
  47  0.572  0.800  0.001-  30 1.42  48 1.42  20 1.42
  48  0.639  0.934  0.001-  47 1.42  33 1.42  15 1.42
  49  0.772  0.800  0.001-  50 1.42  20 1.42  40 1.42
  50  0.839  0.934  0.001-  49 1.42   1 1.42  33 1.42
  51  0.373  0.251  0.267-  52 1.18  53 1.18
  52  0.421  0.189  0.270-  51 1.18
  53  0.325  0.313  0.265-  51 1.18
 
  LATTYP: Found a hexagonal cell.
 ALAT       =    12.3250000000
 C/A-ratio  =     2.0283975659
  
  Lattice vectors:
  
 A1 = (  12.3250000000,   0.0000000000,   0.0000000000)
 A2 = (  -6.1625000000,  10.6737631016,   0.0000000000)
 A3 = (   0.0000000000,   0.0000000000,  25.0000000000)


Analysis of symmetry for initial positions (statically):
=====================================================================
 Subroutine PRICEL returns:
 Original cell was already a primitive cell.
 

 Routine SETGRP: Setting up the symmetry group for a 
 hexagonal supercell.


 Subroutine GETGRP returns: Found  1 space group operations
 (whereof  1 operations were pure point group operations)
 out of a pool of 24 trial point group operations.


The static configuration has the point symmetry C_1 .


Analysis of symmetry for dynamics (positions and initial velocities):
=====================================================================
 Subroutine PRICEL returns:
 Original cell was already a primitive cell.
 

 Routine SETGRP: Setting up the symmetry group for a 
 hexagonal supercell.


 Subroutine GETGRP returns: Found  1 space group operations
 (whereof  1 operations were pure point group operations)
 out of a pool of 24 trial point group operations.


The dynamic configuration has the point symmetry C_1 .


 Subroutine INISYM returns: Found  1 space group operations
 (whereof  1 operations are pure point group operations),
 and found     1 'primitive' translations


----------------------------------------------------------------------------------------

                                     Primitive cell                                     

  volume of cell :    3288.8533

  direct lattice vectors                    reciprocal lattice vectors
    12.325000000  0.000000000  0.000000000     0.081135903  0.046843835  0.000000000
    -6.162500000 10.673763102  0.000000000     0.000000000  0.093687670  0.000000000
     0.000000000  0.000000000 25.000000000     0.000000000  0.000000000  0.040000000

  length of vectors
    12.325000000 12.325000000 25.000000000     0.093687670  0.093687670  0.040000000

  position of ions in fractional coordinates (direct lattice)
     0.972450841  0.000320818  0.000566711
     0.039118382  0.133659505  0.000440173
     0.172443627  0.000295449  0.000499628
     0.239096278  0.133647917  0.000256468
     0.972452058  0.200322012  0.000485219
     0.039128360  0.333643771  0.000444150
     0.172451764  0.200354552  0.000219167
     0.239124359  0.333665720  0.000072260
     0.372465565  0.000324403  0.000453913
     0.439137473  0.133619939  0.000258338
     0.972449824  0.400309362  0.000547611
     0.039124981  0.533636789  0.000573410
     0.372416176  0.400329481  0.000000000
     0.439099602  0.533638981  0.000232414
     0.572443676  0.000312125  0.000559580
     0.639110207  0.133631751  0.000547275
     0.972452703  0.600305653  0.000640289
     0.039124495  0.733640359  0.000654513
     0.572433471  0.600306242  0.000402895
     0.639111888  0.733641879  0.000527905
     0.172454630  0.400318228  0.000289045
     0.239120185  0.533636548  0.000378509
     0.372459750  0.200295993  0.000088997
     0.439107096  0.333673419  0.000055762
     0.172452155  0.600311506  0.000524340
     0.239123371  0.733638574  0.000575129
     0.572431082  0.200289171  0.000413296
     0.639112773  0.333618630  0.000462376
     0.372439808  0.600308022  0.000362844
     0.439116090  0.733637858  0.000494190
     0.572469358  0.400320504  0.000339918
     0.639119408  0.533650873  0.000459610
     0.772445723  0.000315427  0.000596161
     0.839116277  0.133640203  0.000575306
     0.772440513  0.200307432  0.000581033
     0.839120241  0.333635728  0.000585467
     0.772446320  0.400298367  0.000582978
     0.839118980  0.533633964  0.000621100
     0.772456143  0.600308173  0.000595712
     0.839115033  0.733643180  0.000631512
     0.972455313  0.800305582  0.000652233
     0.039114714  0.933643289  0.000598051
     0.172457971  0.800312211  0.000623372
     0.239134551  0.933647193  0.000544850
     0.372451396  0.800316674  0.000551399
     0.439124489  0.933644769  0.000541430
     0.572441101  0.800310054  0.000534535
     0.639115067  0.933638985  0.000587644
     0.772445098  0.800313187  0.000602062
     0.839116614  0.933644338  0.000606830
     0.373021009  0.251226878  0.266967971
     0.420879805  0.189313152  0.269544845
     0.325156981  0.313167186  0.264589776

  ion indices of the primitive-cell ions
   primitive index   ion index
                 1           1
                 2           2
                 3           3
                 4           4
                 5           5
                 6           6
                 7           7
                 8           8
                 9           9
                10          10
                11          11
                12          12
                13          13
                14          14
                15          15
                16          16
                17          17
                18          18
                19          19
                20          20
                21          21
                22          22
                23          23
                24          24
                25          25
                26          26
                27          27
                28          28
                29          29
                30          30
                31          31
                32          32
                33          33
                34          34
                35          35
                36          36
                37          37
                38          38
                39          39
                40          40
                41          41
                42          42
                43          43
                44          44
                45          45
                46          46
                47          47
                48          48
                49          49
                50          50
                51          51
                52          52
                53          53

----------------------------------------------------------------------------------------

 
 
 KPOINTS: auto                                    

Automatic generation of k-mesh.
 Grid dimensions read from file:
 generate k-points for:    1    1    1

 Generating k-lattice:

  Cartesian coordinates                     Fractional coordinates (reciprocal lattice)
     0.081135903  0.046843835  0.000000000     1.000000000 -0.000000000  0.000000000
     0.000000000  0.093687670  0.000000000     0.000000000  1.000000000  0.000000000
     0.000000000  0.000000000  0.040000000     0.000000000  0.000000000  1.000000000

  Length of vectors
     0.093687670  0.093687670  0.040000000

  Shift w.r.t. Gamma in fractional coordinates (k-lattice)
     0.000000000  0.000000000  0.000000000

 
 Subroutine IBZKPT returns following result:
 ===========================================
 
 Found      1 irreducible k-points:
 
 Following reciprocal coordinates:
            Coordinates               Weight
  0.000000  0.000000  0.000000      1.000000
 
 Following cartesian coordinates:
            Coordinates               Weight
  0.000000  0.000000  0.000000      1.000000
 


--------------------------------------------------------------------------------------------------------




 Dimension of arrays:
   k-points           NKPTS =      1   k-points in BZ     NKDIM =      1   number of bands    NBANDS=    168
   number of dos      NEDOS =    301   number of ions     NIONS =     53
   non local maximal  LDIM  =      4   non local SUM 2l+1 LMDIM =      8
   total plane-waves  NPLWV = ******
   max r-space proj   IRMAX =      1   max aug-charges    IRDMAX=  10008
   dimension x,y,z NGX =   128 NGY =  128 NGZ =  270
   dimension x,y,z NGXF=   256 NGYF=  256 NGZF=  540
   support grid    NGXF=   256 NGYF=  256 NGZF=  540
   ions per type =              51   2
   NGX,Y,Z   is equivalent  to a cutoff of  17.27, 17.27, 17.95 a.u.
   NGXF,Y,Z  is equivalent  to a cutoff of  34.53, 34.53, 35.91 a.u.

 SYSTEM =  unknown system                          
 POSCAR =   C  O                                   

 Startparameter for this run:
   NWRITE =      2    write-flag & timer
   PREC   = accura    normal or accurate (medium, high low for compatibility)
   ISTART =      0    job   : 0-new  1-cont  2-samecut
   ICHARG =      2    charge: 1-file 2-atom 10-const
   ISPIN  =      1    spin polarized calculation?
   LNONCOLLINEAR =      F non collinear calculations
   LSORBIT =      F    spin-orbit coupling
   INIWAV =      1    electr: 0-lowe 1-rand  2-diag
   LASPH  =      T    aspherical Exc in radial PAW
 Electronic Relaxation 1
   ENCUT  = 1000.0 eV  73.50 Ry    8.57 a.u.  31.78 31.78 64.46*2*pi/ulx,y,z
   ENINI  = 1000.0     initial cutoff
   ENAUG  =  946.8 eV  augmentation charge cutoff
   NELM   =    200;   NELMIN=  2; NELMDL= -5     # of ELM steps 
   EDIFF  = 0.1E-06   stopping-criterion for ELM
   LREAL  =      F    real-space projection
   NLSPLINE    = F    spline interpolate recip. space projectors
   LCOMPAT=      F    compatible to vasp.4.4
   GGA_COMPAT  = T    GGA compatible to vasp.4.4-vasp.4.6
   LMAXPAW     = -100 max onsite density
   LMAXMIX     =    2 max onsite mixed and CHGCAR
   VOSKOWN=      0    Vosko Wilk Nusair interpolation
   ROPT   =    0.00000   0.00000
 Ionic relaxation
   EDIFFG = 0.1E-05   stopping-criterion for IOM
   NSW    =      0    number of steps for IOM
   NBLOCK =      1;   KBLOCK =      1    inner block; outer block 
   IBRION =     -1    ionic relax: 0-MD 1-quasi-New 2-CG
   NFREE  =      0    steps in history (QN), initial steepest desc. (CG)
   ISIF   =      0    stress and relaxation
   IWAVPR =     10    prediction:  0-non 1-charg 2-wave 3-comb
   ISYM   =      2    0-nonsym 1-usesym 2-fastsym
   LCORR  =      T    Harris-Foulkes like correction to forces

   POTIM  = 0.5000    time-step for ionic-motion
   TEIN   =    0.0    initial temperature
   TEBEG  =    0.0;   TEEND  =   0.0 temperature during run
   SMASS  =  -3.00    Nose mass-parameter (am)
   estimated Nose-frequenzy (Omega)   =  0.10E-29 period in steps = 0.13E+47 mass=  -0.347E-26a.u.
   SCALEE = 1.0000    scale energy and forces
   NPACO  =    256;   APACO  = 16.0  distance and # of slots for P.C.
   PSTRESS=    0.0 pullay stress

  Mass of Ions in am
   POMASS =  12.01 16.00
  Ionic Valenz
   ZVAL   =   4.00  6.00
  Atomic Wigner-Seitz radii
   RWIGS  =  -1.00 -1.00
  virtual crystal weights 
   VCA    =   1.00  1.00
   NELECT =     216.0000    total number of electrons
   NUPDOWN=      -1.0000    fix difference up-down

 DOS related values:
   EMIN   =  10.00;   EMAX   =-10.00  energy-range for DOS
   EFERMI =   0.00
   ISMEAR =     0;   SIGMA  =   0.01  broadening in eV -4-tet -1-fermi 0-gaus

 Electronic relaxation 2 (details)
   IALGO  =     58    algorithm
   LDIAG  =      T    sub-space diagonalisation (order eigenvalues)
   LSUBROT=      F    optimize rotation matrix (better conditioning)
   TURBO    =      0    0=normal 1=particle mesh
   IRESTART =      0    0=no restart 2=restart with 2 vectors
   NREBOOT  =      0    no. of reboots
   NMIN     =      0    reboot dimension
   EREF     =   0.00    reference energy to select bands
   IMIX   =      4    mixing-type and parameters
     AMIX     =   0.40;   BMIX     =  1.00
     AMIX_MAG =   1.60;   BMIX_MAG =  1.00
     AMIN     =   0.10
     WC   =   100.;   INIMIX=   1;  MIXPRE=   1;  MAXMIX= -45

 Intra band minimization:
   WEIMIN = 0.0000     energy-eigenvalue tresh-hold
   EBREAK =  0.15E-09  absolut break condition
   DEPER  =   0.30     relativ break condition  

   TIME   =   0.40     timestep for ELM

  volume/ion in A,a.u.               =      62.05       418.76
  Fermi-wavevector in a.u.,A,eV,Ry     =   0.660508  1.248179  5.935820  0.436270
  Thomas-Fermi vector in A             =   1.732977
 
 Write flags
   LWAVE        =      T    write WAVECAR
   LDOWNSAMPLE  =      F    k-point downsampling of WAVECAR
   LCHARG       =      T    write CHGCAR
   LVTOT        =      F    write LOCPOT, total local potential
   LVHAR        =      F    write LOCPOT, Hartree potential only
   LELF         =      F    write electronic localiz. function (ELF)
   LORBIT       =      0    0 simple, 1 ext, 2 COOP (PROOUT), +10 PAW based schemes


 Dipole corrections
   LMONO  =      F    monopole corrections only (constant potential shift)
   LDIPOL =      F    correct potential (dipole corrections)
   IDIPOL =      0    1-x, 2-y, 3-z, 4-all directions 
   EPSILON=  1.0000000 bulk dielectric constant

 Exchange correlation treatment:
   GGA     =    --    GGA type
   LEXCH   =     8    internal setting for exchange type
   VOSKOWN=      0    Vosko Wilk Nusair interpolation
   LHFCALC =     F    Hartree Fock is set to
   LHFONE  =     F    Hartree Fock one center treatment
   AEXX    =    0.0000 exact exchange contribution

 vdW DFT:
   LUSE_VDW   =     T    switch on vdW DFT
   Zab_VDW    =-.8491    correlation parameter
   PARAM1     =0.1234
   PARAM2     =1.0000
   PARAM3     =0.0000
   -- rVV10 --
   BPARAM     =15.7000
   CPARAM     = 0.0093

 Linear response parameters
   LEPSILON=     F    determine dielectric tensor
   LRPA    =     F    only Hartree local field effects (RPA)
   LNABLA  =     F    use nabla operator in PAW spheres
   LVEL    =     F    velocity operator in full k-point grid
   LINTERFAST=   F  fast interpolation
   KINTER  =     0    interpolate to denser k-point grid
   CSHIFT  =0.1000    complex shift for real part using Kramers Kronig
   OMEGAMAX=  -1.0    maximum frequency
   DEG_THRESHOLD= 0.2000000E-02 threshold for treating states as degnerate
   RTIME   =   -0.100 relaxation time in fs
  (WPLASMAI=    0.000 imaginary part of plasma frequency in eV, 0.658/RTIME)
   DFIELD  = 0.0000000 0.0000000 0.0000000 field for delta impulse in time
 
 Orbital magnetization related:
   ORBITALMAG=     F  switch on orbital magnetization
   LCHIMAG   =     F  perturbation theory with respect to B field
   DQ        =  0.001000  dq finite difference perturbation B field
   LLRAUG    =     F  two centre corrections for induced B field



--------------------------------------------------------------------------------------------------------


 Static calculation
 charge density and potential will be updated during run
 non-spin polarized calculation
 Conjugate gradient for all bands (Freysoldt, et al. PRB 79, 241103 (2009))
 preconditioned conjugated gradient                                        
 perform sub-space diagonalisation
    before iterative eigenvector-optimisation
 modified Broyden-mixing scheme, WC =      100.0
 initial mixing is a Kerker type mixing with AMIX =  0.4000 and BMIX =      1.0000
 Hartree-type preconditioning will be used
 using additional bands           60
 reciprocal scheme for non local part
 use partial core corrections
 no Harris-corrections to forces 
 use gradient corrections 
 use of overlap-Matrix (Vanderbilt PP)
 Gauss-broadening in eV      SIGMA  =   0.01


--------------------------------------------------------------------------------------------------------


  energy-cutoff  :     1000.00
  volume of cell :     3288.85
      direct lattice vectors                 reciprocal lattice vectors
    12.325000000  0.000000000  0.000000000     0.081135903  0.046843835  0.000000000
    -6.162500000 10.673763102  0.000000000     0.000000000  0.093687670  0.000000000
     0.000000000  0.000000000 25.000000000     0.000000000  0.000000000  0.040000000

  length of vectors
    12.325000000 12.325000000 25.000000000     0.093687670  0.093687670  0.040000000


 
 k-points in units of 2pi/SCALE and weight: auto                                    
   0.00000000  0.00000000  0.00000000       1.000
 
 k-points in reciprocal lattice and weights: auto                                    
   0.00000000  0.00000000  0.00000000       1.000
 
 position of ions in fractional coordinates (direct lattice) 
   0.97245084  0.00032082  0.00056671
   0.03911838  0.13365950  0.00044017
   0.17244363  0.00029545  0.00049963
   0.23909628  0.13364792  0.00025647
   0.97245206  0.20032201  0.00048522
   0.03912836  0.33364377  0.00044415
   0.17245176  0.20035455  0.00021917
   0.23912436  0.33366572  0.00007226
   0.37246557  0.00032440  0.00045391
   0.43913747  0.13361994  0.00025834
   0.97244982  0.40030936  0.00054761
   0.03912498  0.53363679  0.00057341
   0.37241618  0.40032948  0.00000000
   0.43909960  0.53363898  0.00023241
   0.57244368  0.00031213  0.00055958
   0.63911021  0.13363175  0.00054727
   0.97245270  0.60030565  0.00064029
   0.03912449  0.73364036  0.00065451
   0.57243347  0.60030624  0.00040289
   0.63911189  0.73364188  0.00052791
   0.17245463  0.40031823  0.00028904
   0.23912018  0.53363655  0.00037851
   0.37245975  0.20029599  0.00008900
   0.43910710  0.33367342  0.00005576
   0.17245216  0.60031151  0.00052434
   0.23912337  0.73363857  0.00057513
   0.57243108  0.20028917  0.00041330
   0.63911277  0.33361863  0.00046238
   0.37243981  0.60030802  0.00036284
   0.43911609  0.73363786  0.00049419
   0.57246936  0.40032050  0.00033992
   0.63911941  0.53365087  0.00045961
   0.77244572  0.00031543  0.00059616
   0.83911628  0.13364020  0.00057531
   0.77244051  0.20030743  0.00058103
   0.83912024  0.33363573  0.00058547
   0.77244632  0.40029837  0.00058298
   0.83911898  0.53363396  0.00062110
   0.77245614  0.60030817  0.00059571
   0.83911503  0.73364318  0.00063151
   0.97245531  0.80030558  0.00065223
   0.03911471  0.93364329  0.00059805
   0.17245797  0.80031221  0.00062337
   0.23913455  0.93364719  0.00054485
   0.37245140  0.80031667  0.00055140
   0.43912449  0.93364477  0.00054143
   0.57244110  0.80031005  0.00053453
   0.63911507  0.93363899  0.00058764
   0.77244510  0.80031319  0.00060206
   0.83911661  0.93364434  0.00060683
   0.37302101  0.25122688  0.26696797
   0.42087980  0.18931315  0.26954485
   0.32515698  0.31316719  0.26458978
 
 position of ions in cartesian coordinates  (Angst):
  11.98347958  0.00342433  0.01416777
  -0.34154264  1.42664989  0.01100432
   2.12354700  0.00315355  0.01249070
   2.12325634  1.42652621  0.00641170
  10.75098721  2.13818970  0.01213047
  -1.57382270  3.56123457  0.01110375
   0.89078307  2.13853702  0.00547917
   0.89099273  3.56146885  0.00180651
   4.58863896  0.00346260  0.01134782
   4.58893648  1.42622757  0.00645846
   9.51853763  4.27280730  0.01369027
  -2.80632132  5.69591267  0.01433526
   2.12299894  4.27302204  0.00000000
   2.12335237  5.69593607  0.00581036
   7.05344483  0.00333155  0.01398950
   7.05352764  1.42635365  0.01368187
   8.28609598  6.40752033  0.01600723
  -4.03884931  7.83070339  0.01636283
   3.35585531  6.40752662  0.01007237
   3.35598594  7.83071962  0.01319763
  -0.34145776  4.27290193  0.00722612
  -0.34137895  5.69591010  0.00946273
   3.35624236  2.13791198  0.00222492
   3.35573251  3.56155103  0.00139405
  -1.57394684  6.40758280  0.01310850
  -1.57385216  7.83068434  0.01437823
   5.82093107  2.13783916  0.01033241
   5.82114012  3.56096622  0.01155939
   0.89092245  6.40754561  0.00907111
   0.89106251  7.83067670  0.01235474
   4.58870974  4.27292622  0.00849795
   4.58852320  5.69606300  0.01149026
   9.51844972  0.00336679  0.01490402
   9.51855036  1.42644387  0.01438264
   8.28593477  2.13803408  0.01452582
   8.28612680  3.56114872  0.01463668
   7.05356221  4.27268994  0.01457444
   7.05362213  5.69588251  0.01552751
   5.82112285  6.40754723  0.01489279
   5.82101669  7.83073350  0.01578780
   7.05362858  8.54227219  0.01630582
  -5.27148792  9.96548729  0.01495127
  -2.80637951  8.54234295  0.01558431
  -2.80626749  9.96552896  0.01362126
  -0.34148805  8.54239058  0.01378498
  -0.34137657  9.96550309  0.01353576
   2.12342586  8.54231992  0.01336337
   2.12354296  9.96544135  0.01469111
   4.58845581  8.54235337  0.01505154
   4.58852904  9.96549848  0.01517076
   3.04929830  2.68153618  6.67419927
   4.02070129  2.02068374  6.73862113
   2.07766701  3.34267235  6.61474440
 


--------------------------------------------------------------------------------------------------------


 k-point   1 :   0.0000 0.0000 0.0000  plane waves:  236157

 maximum and minimum number of plane-waves per node :    236157   236157

 maximum number of plane-waves:    236157
 maximum index in each direction: 
   IXMAX=   31   IYMAX=   31   IZMAX=   64
   IXMIN=  -31   IYMIN=  -31   IZMIN=  -64


 serial   3D FFT for wavefunctions
 parallel 3D FFT for charge:
    minimum data exchange during FFTs selected (reduces bandwidth)


 total amount of memory used by VASP MPI-rank0   698619. kBytes
=======================================================================

   base      :      30000. kBytes
   nonl-proj :     230539. kBytes
   fftplans  :      40716. kBytes
   grid      :     363125. kBytes
   one-center:        162. kBytes
   wavefun   :      34077. kBytes
 
     INWAV:  cpu time    0.0000: real time    0.0000
 Broyden mixing: mesh for mixing (old mesh)
   NGX = 63   NGY = 63   NGZ =129
  (NGX  =256   NGY  =256   NGZ  =540)
  gives a total of 512001 points

 initial charge density was supplied:
 charge density of overlapping atoms calculated
 number of electron     216.0000000 magnetization 
 keeping initial charge density in first step


--------------------------------------------------------------------------------------------------------


 Maximum index for augmentation-charges          471 (set IRDMAX)


--------------------------------------------------------------------------------------------------------


 First call to EWALD:  gamma=   0.119
 Maximum number of real-space cells 4x 4x 2
 Maximum number of reciprocal cells 2x 2x 4

    FEWALD:  cpu time    0.0023: real time    0.0024


--------------------------------------- Iteration      1(   1)  ---------------------------------------


    POTLOK:  cpu time    8.5131: real time    8.5777
    SETDIJ:  cpu time    0.0029: real time    0.0030
    TRIAL :  cpu time   31.5851: real time   31.8593
    CORREC:  cpu time    0.0006: real time    0.0009
    --------------------------------------------
      LOOP:  cpu time   40.1192: real time   40.4606

 eigenvalue-minimisations  :   336
 total energy-change (2. order) : 0.2530539E+04  (-0.1079879E+05)
 number of electron     216.0000000 magnetization 
 augmentation part      216.0000000 magnetization 

 Free energy of the ion-electron system (eV)
  ---------------------------------------------------
  alpha Z        PSCENC =        47.94900195
  Ewald energy   TEWEN  =     42826.26722571
  -Hartree energ DENC   =    -48895.46372349
  -exchange      EXHF   =         0.00000000
  -V(xc)+E(xc)   XCENC  =       604.24052694
  PAW double counting   =      6339.73130699    -6197.22120962
  entropy T*S    EENTRO =        -0.00000000
  eigenvalues    EBANDS =      -564.48745320
  atomic energy  EATOM  =      8369.52358910
  ---------------------------------------------------
  free energy    TOTEN  =      2530.53926437 eV

  energy without entropy =     2530.53926437  energy(sigma->0) =     2530.53926437


--------------------------------------------------------------------------------------------------------




--------------------------------------- Iteration      1(   2)  ---------------------------------------


    TRIAL :  cpu time   44.9337: real time   45.2714
    CORREC:  cpu time    0.0001: real time    0.0001
    --------------------------------------------
      LOOP:  cpu time   44.9849: real time   45.3277

 eigenvalue-minimisations  :   560
 total energy-change (2. order) :-0.2479193E+04  (-0.2320268E+04)
 number of electron     216.0000000 magnetization 
 augmentation part      216.0000000 magnetization 

 Free energy of the ion-electron system (eV)
  ---------------------------------------------------
  alpha Z        PSCENC =        47.94900195
  Ewald energy   TEWEN  =     42826.26722571
  -Hartree energ DENC   =    -48895.46372349
  -exchange      EXHF   =         0.00000000
  -V(xc)+E(xc)   XCENC  =       604.24052694
  PAW double counting   =      6339.73130699    -6197.22120962
  entropy T*S    EENTRO =        -0.00000000
  eigenvalues    EBANDS =     -3043.68000220
  atomic energy  EATOM  =      8369.52358910
  ---------------------------------------------------
  free energy    TOTEN  =        51.34671538 eV

  energy without entropy =       51.34671538  energy(sigma->0) =       51.34671538


--------------------------------------------------------------------------------------------------------




--------------------------------------- Iteration      1(   3)  ---------------------------------------


    TRIAL :  cpu time   38.2129: real time   38.5146
    CORREC:  cpu time    0.0001: real time    0.0001
    --------------------------------------------
      LOOP:  cpu time   38.2727: real time   38.5952

 eigenvalue-minimisations  :   448
 total energy-change (2. order) :-0.6444246E+03  (-0.6420120E+03)
 number of electron     216.0000000 magnetization 
 augmentation part      216.0000000 magnetization 

 Free energy of the ion-electron system (eV)
  ---------------------------------------------------
  alpha Z        PSCENC =        47.94900195
  Ewald energy   TEWEN  =     42826.26722571
  -Hartree energ DENC   =    -48895.46372349
  -exchange      EXHF   =         0.00000000
  -V(xc)+E(xc)   XCENC  =       604.24052694
  PAW double counting   =      6339.73130699    -6197.22120962
  entropy T*S    EENTRO =        -0.00000000
  eigenvalues    EBANDS =     -3688.10461373
  atomic energy  EATOM  =      8369.52358910
  ---------------------------------------------------
  free energy    TOTEN  =      -593.07789615 eV

  energy without entropy =     -593.07789615  energy(sigma->0) =     -593.07789615


--------------------------------------------------------------------------------------------------------




--------------------------------------- Iteration      1(   4)  ---------------------------------------


    TRIAL :  cpu time   38.1165: real time   38.5152
    CORREC:  cpu time    0.0001: real time    0.0001
    --------------------------------------------
      LOOP:  cpu time   38.1606: real time   38.5767

 eigenvalue-minimisations  :   448
 total energy-change (2. order) :-0.2156153E+02  (-0.2145600E+02)
 number of electron     216.0000000 magnetization 
 augmentation part      216.0000000 magnetization 

 Free energy of the ion-electron system (eV)
  ---------------------------------------------------
  alpha Z        PSCENC =        47.94900195
  Ewald energy   TEWEN  =     42826.26722571
  -Hartree energ DENC   =    -48895.46372349
  -exchange      EXHF   =         0.00000000
  -V(xc)+E(xc)   XCENC  =       604.24052694
  PAW double counting   =      6339.73130699    -6197.22120962
  entropy T*S    EENTRO =        -0.00000000
  eigenvalues    EBANDS =     -3709.66614338
  atomic energy  EATOM  =      8369.52358910
  ---------------------------------------------------
  free energy    TOTEN  =      -614.63942580 eV

  energy without entropy =     -614.63942580  energy(sigma->0) =     -614.63942580


--------------------------------------------------------------------------------------------------------




--------------------------------------- Iteration      1(   5)  ---------------------------------------


    TRIAL :  cpu time   34.8332: real time   35.1662
    CORREC:  cpu time    0.0001: real time    0.0001
    CHARGE:  cpu time    3.2546: real time    3.2783
    --------------------------------------------
      LOOP:  cpu time   38.1723: real time   38.5333

 eigenvalue-minimisations  :   392
 total energy-change (2. order) :-0.6968058E+00  (-0.6959222E+00)
 number of electron     216.0000000 magnetization 
 augmentation part       -0.4290459 magnetization 

 Free energy of the ion-electron system (eV)
  ---------------------------------------------------
  alpha Z        PSCENC =        47.94900195
  Ewald energy   TEWEN  =     42826.26722571
  -Hartree energ DENC   =    -48895.46372349
  -exchange      EXHF   =         0.00000000
  -V(xc)+E(xc)   XCENC  =       604.24052694
  PAW double counting   =      6339.73130699    -6197.22120962
  entropy T*S    EENTRO =        -0.00000000
  eigenvalues    EBANDS =     -3710.36294921
  atomic energy  EATOM  =      8369.52358910
  ---------------------------------------------------
  free energy    TOTEN  =      -615.33623163 eV

  energy without entropy =     -615.33623163  energy(sigma->0) =     -615.33623163


--------------------------------------------------------------------------------------------------------




--------------------------------------- Iteration      1(   6)  ---------------------------------------


    POTLOK:  cpu time    8.3814: real time    8.4575
    SETDIJ:  cpu time    0.0019: real time    0.0019
    TRIAL :  cpu time   22.4354: real time   22.5979
    CORREC:  cpu time   16.1698: real time   16.3082
    CHARGE:  cpu time    3.2501: real time    3.2732
    --------------------------------------------
      LOOP:  cpu time   50.3440: real time   50.7641

 eigenvalue-minimisations  :     0
 total energy-change (2. order) : 0.1039658E+03  (-0.1202998E+02)
 number of electron     216.0000000 magnetization 
 augmentation part       -0.4899203 magnetization 

 Free energy of the ion-electron system (eV)
  ---------------------------------------------------
  alpha Z        PSCENC =        47.94900195
  Ewald energy   TEWEN  =     42826.26722571
  -Hartree energ DENC   =    -50252.16449793
  -exchange      EXHF   =         0.00000000
  -V(xc)+E(xc)   XCENC  =       671.01557567
  PAW double counting   =    113920.87881126  -113784.10643652
  entropy T*S    EENTRO =        -0.00000000
  eigenvalues    EBANDS =     -2310.73372570
  atomic energy  EATOM  =      8369.52358910
  ---------------------------------------------------
  free energy    TOTEN  =      -511.37045646 eV

  energy without entropy =     -511.37045646  energy(sigma->0) =     -511.37045646


--------------------------------------------------------------------------------------------------------




--------------------------------------- Iteration      1(   7)  ---------------------------------------


    POTLOK:  cpu time    8.3865: real time    8.4391
    SETDIJ:  cpu time    0.0020: real time    0.0020
    TRIAL :  cpu time   22.4023: real time   22.5931
    CORREC:  cpu time   16.1535: real time   16.2999
    CHARGE:  cpu time    3.2446: real time    3.2701
    --------------------------------------------
      LOOP:  cpu time   50.2310: real time   50.6747

 eigenvalue-minimisations  :     0
 total energy-change (2. order) :-0.1204527E+02  (-0.1591468E+01)
 number of electron     216.0000000 magnetization 
 augmentation part       -0.5209728 magnetization 

 Free energy of the ion-electron system (eV)
  ---------------------------------------------------
  alpha Z        PSCENC =        47.94900195
  Ewald energy   TEWEN  =     42826.26722571
  -Hartree energ DENC   =    -49825.84510652
  -exchange      EXHF   =         0.00000000
  -V(xc)+E(xc)   XCENC  =       651.20222165
  PAW double counting   =    131973.30966079  -131833.79191304
  entropy T*S    EENTRO =        -0.00000000
  eigenvalues    EBANDS =     -2732.03040781
  atomic energy  EATOM  =      8369.52358910
  ---------------------------------------------------
  free energy    TOTEN  =      -523.41572817 eV

  energy without entropy =     -523.41572817  energy(sigma->0) =     -523.41572817


--------------------------------------------------------------------------------------------------------




--------------------------------------- Iteration      1(   8)  ---------------------------------------


    POTLOK:  cpu time    8.3935: real time    8.4468
    SETDIJ:  cpu time    0.0019: real time    0.0019
    TRIAL :  cpu time   22.3703: real time   22.5639
    CORREC:  cpu time   16.1772: real time   16.2889
    CHARGE:  cpu time    3.2472: real time    3.2723
    --------------------------------------------
      LOOP:  cpu time   50.2404: real time   50.6345

 eigenvalue-minimisations  :     0
 total energy-change (2. order) :-0.1591395E+01  (-0.5269206E+00)
 number of electron     216.0000000 magnetization 
 augmentation part       -0.5195362 magnetization 

 Free energy of the ion-electron system (eV)
  ---------------------------------------------------
  alpha Z        PSCENC =        47.94900195
  Ewald energy   TEWEN  =     42826.26722571
  -Hartree energ DENC   =    -49794.24795159
  -exchange      EXHF   =         0.00000000
  -V(xc)+E(xc)   XCENC  =       649.56959056
  PAW double counting   =    140021.70821914  -139881.70037958
  entropy T*S    EENTRO =        -0.00000000
  eigenvalues    EBANDS =     -2764.07641809
  atomic energy  EATOM  =      8369.52358910
  ---------------------------------------------------
  free energy    TOTEN  =      -525.00712279 eV

  energy without entropy =     -525.00712279  energy(sigma->0) =     -525.00712279


--------------------------------------------------------------------------------------------------------




--------------------------------------- Iteration      1(   9)  ---------------------------------------


    POTLOK:  cpu time    8.3994: real time    8.4744
    SETDIJ:  cpu time    0.0020: real time    0.0020
    TRIAL :  cpu time   22.3720: real time   22.5745
    CORREC:  cpu time   16.1637: real time   16.2913
    CHARGE:  cpu time    3.2582: real time    3.2816
    --------------------------------------------
      LOOP:  cpu time   50.2227: real time   50.6669

 eigenvalue-minimisations  :     0
 total energy-change (2. order) :-0.5266308E+00  (-0.2054876E+00)
 number of electron     216.0000000 magnetization 
 augmentation part       -0.5145415 magnetization 

 Free energy of the ion-electron system (eV)
  ---------------------------------------------------
  alpha Z        PSCENC =        47.94900195
  Ewald energy   TEWEN  =     42826.26722571
  -Hartree energ DENC   =    -49802.25008372
  -exchange      EXHF   =         0.00000000
  -V(xc)+E(xc)   XCENC  =       649.30717050
  PAW double counting   =    146377.23538622  -146237.02119317
  entropy T*S    EENTRO =        -0.00000000
  eigenvalues    EBANDS =     -2756.54485016
  atomic energy  EATOM  =      8369.52358910
  ---------------------------------------------------
  free energy    TOTEN  =      -525.53375357 eV

  energy without entropy =     -525.53375357  energy(sigma->0) =     -525.53375357


--------------------------------------------------------------------------------------------------------




--------------------------------------- Iteration      1(  10)  ---------------------------------------


    POTLOK:  cpu time    8.4168: real time    8.4758
    SETDIJ:  cpu time    0.0021: real time    0.0021
    TRIAL :  cpu time   22.3921: real time   22.5625
    CORREC:  cpu time   16.1956: real time   16.3110
    CHARGE:  cpu time    3.2468: real time    3.2708
    --------------------------------------------
      LOOP:  cpu time   50.3177: real time   50.6905

 eigenvalue-minimisations  :     0
 total energy-change (2. order) :-0.2052073E+00  (-0.8548627E-01)
 number of electron     216.0000000 magnetization 
 augmentation part       -0.5082051 magnetization 

 Free energy of the ion-electron system (eV)
  ---------------------------------------------------
  alpha Z        PSCENC =        47.94900195
  Ewald energy   TEWEN  =     42826.26722571
  -Hartree energ DENC   =    -49802.09335257
  -exchange      EXHF   =         0.00000000
  -V(xc)+E(xc)   XCENC  =       649.09688034
  PAW double counting   =    148827.75468556  -148687.43792243
  entropy T*S    EENTRO =        -0.00000000
  eigenvalues    EBANDS =     -2756.79906852
  atomic energy  EATOM  =      8369.52358910
  ---------------------------------------------------
  free energy    TOTEN  =      -525.73896086 eV

  energy without entropy =     -525.73896086  energy(sigma->0) =     -525.73896086


--------------------------------------------------------------------------------------------------------




--------------------------------------- Iteration      1(  11)  ---------------------------------------


    POTLOK:  cpu time    8.4180: real time    8.4723
    SETDIJ:  cpu time    0.0020: real time    0.0020
    TRIAL :  cpu time   22.3473: real time   22.5691
    CORREC:  cpu time   16.1814: real time   16.2932
    CHARGE:  cpu time    3.2177: real time    3.2581
    --------------------------------------------
      LOOP:  cpu time   50.1910: real time   50.6346

 eigenvalue-minimisations  :     0
 total energy-change (2. order) :-0.8524903E-01  (-0.3378794E-01)
 number of electron     216.0000000 magnetization 
 augmentation part       -0.5043480 magnetization 

 Free energy of the ion-electron system (eV)
  ---------------------------------------------------
  alpha Z        PSCENC =        47.94900195
  Ewald energy   TEWEN  =     42826.26722571
  -Hartree energ DENC   =    -49796.38804322
  -exchange      EXHF   =         0.00000000
  -V(xc)+E(xc)   XCENC  =       648.96745379
  PAW double counting   =    148674.25277774  -148533.93564440
  entropy T*S    EENTRO =        -0.00000000
  eigenvalues    EBANDS =     -2762.46057056
  atomic energy  EATOM  =      8369.52358910
  ---------------------------------------------------
  free energy    TOTEN  =      -525.82420989 eV

  energy without entropy =     -525.82420989  energy(sigma->0) =     -525.82420989


--------------------------------------------------------------------------------------------------------




--------------------------------------- Iteration      1(  12)  ---------------------------------------


    POTLOK:  cpu time    8.4399: real time    8.5025
    SETDIJ:  cpu time    0.0021: real time    0.0021
    TRIAL :  cpu time   22.3443: real time   22.5626
    CORREC:  cpu time   16.1839: real time   16.3128
    CHARGE:  cpu time    3.2433: real time    3.2722
    --------------------------------------------
      LOOP:  cpu time   50.2484: real time   50.6884

 eigenvalue-minimisations  :     0
 total energy-change (2. order) :-0.3370989E-01  (-0.1095696E-01)
 number of electron     216.0000000 magnetization 
 augmentation part       -0.5042569 magnetization 

 Free energy of the ion-electron system (eV)
  ---------------------------------------------------
  alpha Z        PSCENC =        47.94900195
  Ewald energy   TEWEN  =     42826.26722571
  -Hartree energ DENC   =    -49791.66665820
  -exchange      EXHF   =         0.00000000
  -V(xc)+E(xc)   XCENC  =       648.87304263
  PAW double counting   =    147936.97222143  -147796.68229909
  entropy T*S    EENTRO =        -0.00000000
  eigenvalues    EBANDS =     -2767.09404330
  atomic energy  EATOM  =      8369.52358910
  ---------------------------------------------------
  free energy    TOTEN  =      -525.85791978 eV

  energy without entropy =     -525.85791978  energy(sigma->0) =     -525.85791978


--------------------------------------------------------------------------------------------------------




--------------------------------------- Iteration      1(  13)  ---------------------------------------


    POTLOK:  cpu time    8.4235: real time    8.4812
    SETDIJ:  cpu time    0.0019: real time    0.0019
    TRIAL :  cpu time   22.4107: real time   22.5745
    CORREC:  cpu time   16.1672: real time   16.3014
    CHARGE:  cpu time    3.2448: real time    3.2690
    --------------------------------------------
      LOOP:  cpu time   50.3151: real time   50.7110

 eigenvalue-minimisations  :     0
 total energy-change (2. order) :-0.1094647E-01  (-0.3037831E-02)
 number of electron     216.0000000 magnetization 
 augmentation part       -0.5048924 magnetization 

 Free energy of the ion-electron system (eV)
  ---------------------------------------------------
  alpha Z        PSCENC =        47.94900195
  Ewald energy   TEWEN  =     42826.26722571
  -Hartree energ DENC   =    -49790.12904193
  -exchange      EXHF   =         0.00000000
  -V(xc)+E(xc)   XCENC  =       648.82294929
  PAW double counting   =    147369.80629271  -147229.53025914
  entropy T*S    EENTRO =        -0.00000000
  eigenvalues    EBANDS =     -2768.57862393
  atomic energy  EATOM  =      8369.52358910
  ---------------------------------------------------
  free energy    TOTEN  =      -525.86886625 eV

  energy without entropy =     -525.86886625  energy(sigma->0) =     -525.86886625


--------------------------------------------------------------------------------------------------------




--------------------------------------- Iteration      1(  14)  ---------------------------------------


    POTLOK:  cpu time    8.4158: real time    8.4693
    SETDIJ:  cpu time    0.0019: real time    0.0019
    TRIAL :  cpu time   22.3870: real time   22.5825
    CORREC:  cpu time   16.1741: real time   16.2911
    CHARGE:  cpu time    3.2432: real time    3.2664
    --------------------------------------------
      LOOP:  cpu time   50.2837: real time   50.6791

 eigenvalue-minimisations  :     0
 total energy-change (2. order) :-0.3042226E-02  (-0.7781929E-03)
 number of electron     216.0000000 magnetization 
 augmentation part       -0.5051633 magnetization 

 Free energy of the ion-electron system (eV)
  ---------------------------------------------------
  alpha Z        PSCENC =        47.94900195
  Ewald energy   TEWEN  =     42826.26722571
  -Hartree energ DENC   =    -49790.14531866
  -exchange      EXHF   =         0.00000000
  -V(xc)+E(xc)   XCENC  =       648.81826384
  PAW double counting   =    147118.05820936  -146977.78802855
  entropy T*S    EENTRO =        -0.00000000
  eigenvalues    EBANDS =     -2768.55485123
  atomic energy  EATOM  =      8369.52358910
  ---------------------------------------------------
  free energy    TOTEN  =      -525.87190847 eV

  energy without entropy =     -525.87190847  energy(sigma->0) =     -525.87190847


--------------------------------------------------------------------------------------------------------




--------------------------------------- Iteration      1(  15)  ---------------------------------------


    POTLOK:  cpu time    8.4398: real time    8.4937
    SETDIJ:  cpu time    0.0019: real time    0.0019
    TRIAL :  cpu time   22.3959: real time   22.5649
    CORREC:  cpu time   16.2243: real time   16.3386
    CHARGE:  cpu time    3.2462: real time    3.2737
    --------------------------------------------
      LOOP:  cpu time   50.3318: real time   50.6995

 eigenvalue-minimisations  :     0
 total energy-change (2. order) :-0.7844012E-03  (-0.2015228E-03)
 number of electron     216.0000000 magnetization 
 augmentation part       -0.5052876 magnetization 

 Free energy of the ion-electron system (eV)
  ---------------------------------------------------
  alpha Z        PSCENC =        47.94900195
  Ewald energy   TEWEN  =     42826.26722571
  -Hartree energ DENC   =    -49790.06948134
  -exchange      EXHF   =         0.00000000
  -V(xc)+E(xc)   XCENC  =       648.81939531
  PAW double counting   =    147026.23734222  -146885.96967961
  entropy T*S    EENTRO =        -0.00000000
  eigenvalues    EBANDS =     -2768.63008622
  atomic energy  EATOM  =      8369.52358910
  ---------------------------------------------------
  free energy    TOTEN  =      -525.87269287 eV

  energy without entropy =     -525.87269287  energy(sigma->0) =     -525.87269287


--------------------------------------------------------------------------------------------------------




--------------------------------------- Iteration      1(  16)  ---------------------------------------


    POTLOK:  cpu time    8.4211: real time    8.4731
    SETDIJ:  cpu time    0.0020: real time    0.0020
    TRIAL :  cpu time   22.4186: real time   22.5767
    CORREC:  cpu time   16.1961: real time   16.3102
    CHARGE:  cpu time    3.2436: real time    3.2672
    --------------------------------------------
      LOOP:  cpu time   50.3799: real time   50.7284

 eigenvalue-minimisations  :     0
 total energy-change (2. order) :-0.2045270E-03  (-0.7147739E-04)
 number of electron     216.0000000 magnetization 
 augmentation part       -0.5053395 magnetization 

 Free energy of the ion-electron system (eV)
  ---------------------------------------------------
  alpha Z        PSCENC =        47.94900195
  Ewald energy   TEWEN  =     42826.26722571
  -Hartree energ DENC   =    -49789.97836860
  -exchange      EXHF   =         0.00000000
  -V(xc)+E(xc)   XCENC  =       648.81821416
  PAW double counting   =    146974.79698545  -146834.52982652
  entropy T*S    EENTRO =        -0.00000000
  eigenvalues    EBANDS =     -2768.71971865
  atomic energy  EATOM  =      8369.52358910
  ---------------------------------------------------
  free energy    TOTEN  =      -525.87289740 eV

  energy without entropy =     -525.87289740  energy(sigma->0) =     -525.87289740


--------------------------------------------------------------------------------------------------------




--------------------------------------- Iteration      1(  17)  ---------------------------------------


    POTLOK:  cpu time    8.4159: real time    8.4684
    SETDIJ:  cpu time    0.0020: real time    0.0020
    TRIAL :  cpu time   22.3378: real time   22.5514
    CORREC:  cpu time   16.1768: real time   16.2950
    CHARGE:  cpu time    3.2495: real time    3.2763
    --------------------------------------------
      LOOP:  cpu time   50.2202: real time   50.6437

 eigenvalue-minimisations  :     0
 total energy-change (2. order) :-0.7007594E-04  (-0.2729702E-04)
 number of electron     216.0000000 magnetization 
 augmentation part       -0.5053615 magnetization 

 Free energy of the ion-electron system (eV)
  ---------------------------------------------------
  alpha Z        PSCENC =        47.94900195
  Ewald energy   TEWEN  =     42826.26722571
  -Hartree energ DENC   =    -49790.09371661
  -exchange      EXHF   =         0.00000000
  -V(xc)+E(xc)   XCENC  =       648.82477641
  PAW double counting   =    146932.30170153  -146792.03521104
  entropy T*S    EENTRO =        -0.00000000
  eigenvalues    EBANDS =     -2768.61033452
  atomic energy  EATOM  =      8369.52358910
  ---------------------------------------------------
  free energy    TOTEN  =      -525.87296748 eV

  energy without entropy =     -525.87296748  energy(sigma->0) =     -525.87296748


--------------------------------------------------------------------------------------------------------




--------------------------------------- Iteration      1(  18)  ---------------------------------------


    POTLOK:  cpu time    8.4185: real time    8.4694
    SETDIJ:  cpu time    0.0020: real time    0.0020
    TRIAL :  cpu time   22.3926: real time   22.5757
    CORREC:  cpu time   16.1908: real time   16.2990
    CHARGE:  cpu time    3.2367: real time    3.2594
    --------------------------------------------
      LOOP:  cpu time   50.3131: real time   50.6805

 eigenvalue-minimisations  :     0
 total energy-change (2. order) :-0.2584685E-04  (-0.9961900E-05)
 number of electron     216.0000000 magnetization 
 augmentation part       -0.5053982 magnetization 

 Free energy of the ion-electron system (eV)
  ---------------------------------------------------
  alpha Z        PSCENC =        47.94900195
  Ewald energy   TEWEN  =     42826.26722571
  -Hartree energ DENC   =    -49790.18597245
  -exchange      EXHF   =         0.00000000
  -V(xc)+E(xc)   XCENC  =       648.82914742
  PAW double counting   =    146912.46777431  -146772.20135213
  entropy T*S    EENTRO =        -0.00000000
  eigenvalues    EBANDS =     -2768.52240724
  atomic energy  EATOM  =      8369.52358910
  ---------------------------------------------------
  free energy    TOTEN  =      -525.87299332 eV

  energy without entropy =     -525.87299332  energy(sigma->0) =     -525.87299332


--------------------------------------------------------------------------------------------------------




--------------------------------------- Iteration      1(  19)  ---------------------------------------


    POTLOK:  cpu time    8.3923: real time    8.4724
    SETDIJ:  cpu time    0.0019: real time    0.0019
    TRIAL :  cpu time   22.3820: real time   22.5589
    CORREC:  cpu time   16.2005: real time   16.3146
    CHARGE:  cpu time    3.2504: real time    3.2736
    --------------------------------------------
      LOOP:  cpu time   50.3045: real time   50.7059

 eigenvalue-minimisations  :     0
 total energy-change (2. order) :-0.9885815E-05  (-0.1023664E-04)
 number of electron     216.0000000 magnetization 
 augmentation part       -0.5054382 magnetization 

 Free energy of the ion-electron system (eV)
  ---------------------------------------------------
  alpha Z        PSCENC =        47.94900195
  Ewald energy   TEWEN  =     42826.26722571
  -Hartree energ DENC   =    -49790.18755016
  -exchange      EXHF   =         0.00000000
  -V(xc)+E(xc)   XCENC  =       648.82855228
  PAW double counting   =    146914.47789808  -146774.21094409
  entropy T*S    EENTRO =        -0.00000000
  eigenvalues    EBANDS =     -2768.52077608
  atomic energy  EATOM  =      8369.52358910
  ---------------------------------------------------
  free energy    TOTEN  =      -525.87300321 eV

  energy without entropy =     -525.87300321  energy(sigma->0) =     -525.87300321


--------------------------------------------------------------------------------------------------------




--------------------------------------- Iteration      1(  20)  ---------------------------------------


    POTLOK:  cpu time    8.4298: real time    8.4827
    SETDIJ:  cpu time    0.0020: real time    0.0020
    TRIAL :  cpu time   22.3930: real time   22.5665
    CORREC:  cpu time   16.1785: real time   16.2982
    CHARGE:  cpu time    3.2365: real time    3.2685
    --------------------------------------------
      LOOP:  cpu time   50.2947: real time   50.6775

 eigenvalue-minimisations  :     0
 total energy-change (2. order) : 0.9864452E-06  (-0.7952530E-05)
 number of electron     216.0000000 magnetization 
 augmentation part       -0.5054336 magnetization 

 Free energy of the ion-electron system (eV)
  ---------------------------------------------------
  alpha Z        PSCENC =        47.94900195
  Ewald energy   TEWEN  =     42826.26722571
  -Hartree energ DENC   =    -49790.23949909
  -exchange      EXHF   =         0.00000000
  -V(xc)+E(xc)   XCENC  =       648.83015531
  PAW double counting   =    146935.62940085  -146795.36201945
  entropy T*S    EENTRO =        -0.00000000
  eigenvalues    EBANDS =     -2768.47085661
  atomic energy  EATOM  =      8369.52358910
  ---------------------------------------------------
  free energy    TOTEN  =      -525.87300222 eV

  energy without entropy =     -525.87300222  energy(sigma->0) =     -525.87300222


--------------------------------------------------------------------------------------------------------




--------------------------------------- Iteration      1(  21)  ---------------------------------------


    POTLOK:  cpu time    8.4184: real time    8.4734
    SETDIJ:  cpu time    0.0020: real time    0.0020
    TRIAL :  cpu time   22.3962: real time   22.5675
    CORREC:  cpu time   16.2026: real time   16.3124
    CHARGE:  cpu time    3.2456: real time    3.2711
    --------------------------------------------
      LOOP:  cpu time   50.3028: real time   50.6675

 eigenvalue-minimisations  :     0
 total energy-change (2. order) :-0.7689843E-05  (-0.1055555E-05)
 number of electron     216.0000000 magnetization 
 augmentation part       -0.5054184 magnetization 

 Free energy of the ion-electron system (eV)
  ---------------------------------------------------
  alpha Z        PSCENC =        47.94900195
  Ewald energy   TEWEN  =     42826.26722571
  -Hartree energ DENC   =    -49790.21715217
  -exchange      EXHF   =         0.00000000
  -V(xc)+E(xc)   XCENC  =       648.82879983
  PAW double counting   =    146933.62450028  -146793.35708804
  entropy T*S    EENTRO =        -0.00000000
  eigenvalues    EBANDS =     -2768.49188657
  atomic energy  EATOM  =      8369.52358910
  ---------------------------------------------------
  free energy    TOTEN  =      -525.87300991 eV

  energy without entropy =     -525.87300991  energy(sigma->0) =     -525.87300991


--------------------------------------------------------------------------------------------------------




--------------------------------------- Iteration      1(  22)  ---------------------------------------


    POTLOK:  cpu time    8.4206: real time    8.4815
    SETDIJ:  cpu time    0.0020: real time    0.0020
    TRIAL :  cpu time   22.4022: real time   22.5654
    CORREC:  cpu time   16.1783: real time   16.3057
    CHARGE:  cpu time    3.2547: real time    3.2774
    --------------------------------------------
      LOOP:  cpu time   50.3515: real time   50.7286

 eigenvalue-minimisations  :     0
 total energy-change (2. order) :-0.1039152E-05  (-0.1930812E-06)
 number of electron     216.0000000 magnetization 
 augmentation part       -0.5054138 magnetization 

 Free energy of the ion-electron system (eV)
  ---------------------------------------------------
  alpha Z        PSCENC =        47.94900195
  Ewald energy   TEWEN  =     42826.26722571
  -Hartree energ DENC   =    -49790.21755837
  -exchange      EXHF   =         0.00000000
  -V(xc)+E(xc)   XCENC  =       648.82902136
  PAW double counting   =    146931.85026709  -146791.58302918
  entropy T*S    EENTRO =        -0.00000000
  eigenvalues    EBANDS =     -2768.49152862
  atomic energy  EATOM  =      8369.52358910
  ---------------------------------------------------
  free energy    TOTEN  =      -525.87301095 eV

  energy without entropy =     -525.87301095  energy(sigma->0) =     -525.87301095


--------------------------------------------------------------------------------------------------------




--------------------------------------- Iteration      1(  23)  ---------------------------------------


    POTLOK:  cpu time    8.4261: real time    8.4788
    SETDIJ:  cpu time    0.0019: real time    0.0019
    TRIAL :  cpu time   22.3689: real time   22.5631
    CORREC:  cpu time   16.1902: real time   16.3257
    CHARGE:  cpu time    3.2430: real time    3.2669
    --------------------------------------------
      LOOP:  cpu time   50.2888: real time   50.6968

 eigenvalue-minimisations  :     0
 total energy-change (2. order) :-0.1016015E-06  (-0.5742329E-07)
 number of electron     216.0000000 magnetization 
 augmentation part       -0.5054131 magnetization 

 Free energy of the ion-electron system (eV)
  ---------------------------------------------------
  alpha Z        PSCENC =        47.94900195
  Ewald energy   TEWEN  =     42826.26722571
  -Hartree energ DENC   =    -49790.21426540
  -exchange      EXHF   =         0.00000000
  -V(xc)+E(xc)   XCENC  =       648.82893737
  PAW double counting   =    146931.36280121  -146791.09561594
  entropy T*S    EENTRO =        -0.00000000
  eigenvalues    EBANDS =     -2768.49468505
  atomic energy  EATOM  =      8369.52358910
  ---------------------------------------------------
  free energy    TOTEN  =      -525.87301105 eV

  energy without entropy =     -525.87301105  energy(sigma->0) =     -525.87301105


--------------------------------------------------------------------------------------------------------




--------------------------------------- Iteration      1(  24)  ---------------------------------------


    POTLOK:  cpu time    8.4137: real time    8.4641
    SETDIJ:  cpu time    0.0020: real time    0.0020
    TRIAL :  cpu time   22.3897: real time   22.5633
    CORREC:  cpu time   16.1823: real time   16.2898
    EDDIAG:  cpu time    4.6179: real time    4.6538
    CHARGE:  cpu time    3.2400: real time    3.2637
    --------------------------------------------
      LOOP:  cpu time   54.8859: real time   55.2962

 eigenvalue-minimisations  :     0
 total energy-change (2. order) : 0.6257324E-08  (-0.3846547E-07)
 number of electron     216.0000000 magnetization 
 augmentation part       -0.5054121 magnetization 

 Free energy of the ion-electron system (eV)
  ---------------------------------------------------
  alpha Z        PSCENC =        47.94900195
  Ewald energy   TEWEN  =     42826.26722571
  -Hartree energ DENC   =    -49790.21184705
  -exchange      EXHF   =         0.00000000
  -V(xc)+E(xc)   XCENC  =       648.82883758
  PAW double counting   =    146931.36887295  -146791.10169427
  entropy T*S    EENTRO =        -0.00000000
  eigenvalues    EBANDS =     -2768.49699702
  atomic energy  EATOM  =      8369.52358910
  ---------------------------------------------------
  free energy    TOTEN  =      -525.87301105 eV

  energy without entropy =     -525.87301105  energy(sigma->0) =     -525.87301105


--------------------------------------------------------------------------------------------------------


  average scaling for gradient   0.9291


 average (electrostatic) potential at core
  the test charge radii are     0.5770  0.5955
  (the norm of the test charge is              1.0000)
       1 -88.0718       2 -88.0701       3 -88.0721       4 -88.0719       5 -88.0672
       6 -88.0655       7 -88.0706       8 -88.0666       9 -88.0677      10 -88.0691
      11 -88.0644      12 -88.0657      13 -88.0682      14 -88.0639      15 -88.0642
      16 -88.0671      17 -88.0677      18 -88.0702      19 -88.0684      20 -88.0669
      21 -88.0666      22 -88.0627      23 -88.0702      24 -88.0686      25 -88.0664
      26 -88.0658      27 -88.0643      28 -88.0690      29 -88.0672      30 -88.0630
      31 -88.0668      32 -88.0677      33 -88.0673      34 -88.0674      35 -88.0634
      36 -88.0670      37 -88.0645      38 -88.0689      39 -88.0686      40 -88.0705
      41 -88.0713      42 -88.0721      43 -88.0693      44 -88.0706      45 -88.0663
      46 -88.0658      47 -88.0667      48 -88.0657      49 -88.0701      50 -88.0699
      51 -92.1296      52-124.2548      53-124.2595
 
 
 
 E-fermi :  -4.4083     XC(G=0):  -1.8896     alpha+bet : -1.6890

 Fermi energy:        -4.4082835484

 k-point     1 :       0.0000    0.0000    0.0000
  band No.  band energies     occupation 
      1     -29.1909      2.00000
      2     -28.1642      2.00000
      3     -23.5778      2.00000
      4     -22.5922      2.00000
      5     -22.5916      2.00000
      6     -22.5913      2.00000
      7     -22.5904      2.00000
      8     -22.5900      2.00000
      9     -22.5900      2.00000
     10     -20.6594      2.00000
     11     -20.6593      2.00000
     12     -20.6590      2.00000
     13     -20.6584      2.00000
     14     -20.6580      2.00000
     15     -20.6578      2.00000
     16     -19.7238      2.00000
     17     -19.7236      2.00000
     18     -19.7231      2.00000
     19     -19.7229      2.00000
     20     -19.7222      2.00000
     21     -19.7219      2.00000
     22     -17.5024      2.00000
     23     -17.5020      2.00000
     24     -17.5014      2.00000
     25     -17.5011      2.00000
     26     -17.5001      2.00000
     27     -17.5001      2.00000
     28     -16.3441      2.00000
     29     -16.3440      2.00000
     30     -16.3430      2.00000
     31     -16.3429      2.00000
     32     -16.3424      2.00000
     33     -16.3422      2.00000
     34     -14.9510      2.00000
     35     -14.9509      2.00000
     36     -14.9503      2.00000
     37     -14.9500      2.00000
     38     -14.9498      2.00000
     39     -14.9494      2.00000
     40     -13.1441      2.00000
     41     -12.4918      2.00000
     42     -12.4916      2.00000
     43     -12.4912      2.00000
     44     -12.4911      2.00000
     45     -12.4899      2.00000
     46     -12.4896      2.00000
     47     -12.2744      2.00000
     48     -12.2743      2.00000
     49     -12.2733      2.00000
     50     -12.2731      2.00000
     51     -12.2724      2.00000
     52     -12.2723      2.00000
     53     -11.8667      2.00000
     54     -11.6111      2.00000
     55     -11.6106      2.00000
     56     -10.9433      2.00000
     57     -10.8284      2.00000
     58     -10.8282      2.00000
     59     -10.8265      2.00000
     60     -10.8261      2.00000
     61     -10.8260      2.00000
     62     -10.8259      2.00000
     63      -9.7698      2.00000
     64      -9.7697      2.00000
     65      -9.7696      2.00000
     66      -9.7684      2.00000
     67      -9.7679      2.00000
     68      -9.7678      2.00000
     69      -9.5269      2.00000
     70      -9.5268      2.00000
     71      -9.5265      2.00000
     72      -9.5259      2.00000
     73      -9.5255      2.00000
     74      -9.5249      2.00000
     75      -9.5248      2.00000
     76      -9.5240      2.00000
     77      -9.5235      2.00000
     78      -9.5233      2.00000
     79      -9.5232      2.00000
     80      -9.5228      2.00000
     81      -8.0155      2.00000
     82      -8.0145      2.00000
     83      -7.8206      2.00000
     84      -7.8192      2.00000
     85      -7.8187      2.00000
     86      -7.8182      2.00000
     87      -7.8161      2.00000
     88      -7.8154      2.00000
     89      -7.5272      2.00000
     90      -7.5268      2.00000
     91      -7.5266      2.00000
     92      -7.5264      2.00000
     93      -7.5261      2.00000
     94      -7.5259      2.00000
     95      -6.5823      2.00000
     96      -6.5817      2.00000
     97      -6.5814      2.00000
     98      -6.5809      2.00000
     99      -6.5807      2.00000
    100      -6.5805      2.00000
    101      -6.3027      2.00000
    102      -6.3004      2.00000
    103      -4.4834      2.00000
    104      -4.4830      2.00000
    105      -4.4824      2.00000
    106      -4.4822      2.00000
    107      -4.4816      2.00000
    108      -4.4814      2.00000
    109      -1.5081      0.00000
    110      -1.5078      0.00000
    111      -1.5077      0.00000
    112      -1.5074      0.00000
    113      -1.5066      0.00000
    114      -1.5064      0.00000
    115       0.4705      0.00000
    116       0.4710      0.00000
    117       0.4714      0.00000
    118       0.4718      0.00000
    119       0.4719      0.00000
    120       0.4740      0.00000
    121       0.5715      0.00000
    122       0.9771      0.00000
    123       1.2619      0.00000
    124       1.2636      0.00000
    125       1.4610      0.00000
    126       1.7322      0.00000
    127       1.8988      0.00000
    128       1.9189      0.00000
    129       1.9332      0.00000
    130       1.9389      0.00000
    131       1.9428      0.00000
    132       1.9500      0.00000
    133       2.1593      0.00000
    134       2.3515      0.00000
    135       2.3517      0.00000
    136       2.3521      0.00000
    137       2.3526      0.00000
    138       2.3527      0.00000
    139       2.3532      0.00000
    140       2.4345      0.00000
    141       2.5625      0.00000
    142       2.6544      0.00000
    143       2.6821      0.00000
    144       2.6922      0.00000
    145       2.7088      0.00000
    146       2.7392      0.00000
    147       2.7796      0.00000
    148       2.8197      0.00000
    149       2.8407      0.00000
    150       2.8489      0.00000
    151       2.8588      0.00000
    152       3.1456      0.00000
    153       3.5321      0.00000
    154       3.7634      0.00000
    155       3.8167      0.00000
    156       3.8664      0.00000
    157       4.0457      0.00000
    158       4.0743      0.00000
    159       4.3267      0.00000
    160       4.3920      0.00000
    161       4.5634      0.00000
    162       4.6412      0.00000
    163       4.9344      0.00000
    164       4.9442      0.00000
    165       4.9549      0.00000
    166       4.9567      0.00000
    167       4.9580      0.00000
    168       4.9652      0.00000


--------------------------------------------------------------------------------------------------------


 soft charge-density along one line, spin component           1
         0         1         2         3         4         5         6         7         8         9
 total charge-density along one line
 
 pseudopotential strength for first ion, spin component:           1
 12.643  21.273  -0.000   0.000   0.000  -0.000   0.000   0.000
 21.273  35.792  -0.000   0.000   0.000  -0.000   0.000   0.000
 -0.000  -0.000  -3.239   0.000   0.000  -5.804   0.000   0.000
  0.000   0.000   0.000  -3.243   0.000   0.000  -5.810   0.000
  0.000   0.000   0.000   0.000  -3.239   0.000   0.000  -5.804
 -0.000  -0.000  -5.804   0.000   0.000 -10.375   0.000   0.000
  0.000   0.000   0.000  -5.810   0.000   0.000 -10.385   0.000
  0.000   0.000   0.000   0.000  -5.804   0.000   0.000 -10.375
 total augmentation occupancy for first ion, spin component:           1
  9.644  -3.599   0.000  -0.002  -0.001  -0.000   0.001   0.000
 -3.599   1.374  -0.000   0.001   0.000   0.000  -0.000  -0.000
  0.000  -0.000   8.197  -0.009   0.001  -2.896   0.003  -0.000
 -0.002   0.001  -0.009   3.783  -0.000   0.003  -1.107   0.000
 -0.001   0.000   0.001  -0.000   8.195  -0.000   0.000  -2.895
 -0.000   0.000  -2.896   0.003  -0.000   1.036  -0.001   0.000
  0.001  -0.000   0.003  -1.107   0.000  -0.001   0.329  -0.000
  0.000  -0.000  -0.000   0.000  -2.895   0.000  -0.000   1.035


------------------------ aborting loop because EDIFF is reached ----------------------------------------


    FORLOC:  cpu time    0.1398: real time    0.1413
    FORNL :  cpu time    4.1320: real time    4.1820
    FORCOR:  cpu time    8.3073: real time    8.3599
    OFIELD:  cpu time    0.0031: real time    0.0032

 VOLUME and BASIS-vectors are now :
 -----------------------------------------------------------------------------
  energy-cutoff  :     1000.00
  volume of cell :     3288.85
      direct lattice vectors                 reciprocal lattice vectors
    12.325000000  0.000000000  0.000000000     0.081135903  0.046843835  0.000000000
    -6.162500000 10.673763102  0.000000000     0.000000000  0.093687670  0.000000000
     0.000000000  0.000000000 25.000000000     0.000000000  0.000000000  0.040000000

  length of vectors
    12.325000000 12.325000000 25.000000000     0.093687670  0.093687670  0.040000000


 FORCES acting on ions:
    Electron-Ion                     Ewald-Force                    Non-Local-Force
 -----------------------------------------------------------------------------------------------
   0.174E+01 0.151E+01 0.193E+02   -.174E+01 -.151E+01 -.193E+02   -.271E-02 0.601E-02 0.900E-02
   0.244E+01 0.121E+01 0.211E+02   -.244E+01 -.122E+01 -.211E+02   -.187E-02 0.122E-01 -.445E-02
   0.992E+00 0.271E+01 0.218E+02   -.100E+01 -.272E+01 -.218E+02   0.944E-02 0.199E-01 0.188E-02
   0.127E+01 0.183E+01 0.254E+02   -.127E+01 -.184E+01 -.254E+02   0.213E-01 0.171E-01 -.131E-01
   0.188E+01 0.447E+00 0.197E+02   -.187E+01 -.457E+00 -.197E+02   -.109E-01 0.807E-02 0.365E-02
   0.191E+01 -.411E+00 0.199E+02   -.191E+01 0.404E+00 -.199E+02   -.109E-01 0.141E-01 -.559E-02
   0.245E+01 0.915E+00 0.249E+02   -.245E+01 -.927E+00 -.249E+02   0.147E-01 -.715E-03 -.469E-02
   0.241E+01 -.853E+00 0.261E+02   -.242E+01 0.846E+00 -.261E+02   -.443E-02 0.105E-01 -.354E-02
   -.123E+01 0.250E+01 0.221E+02   0.122E+01 -.251E+01 -.221E+02   0.159E-01 -.697E-02 -.497E-02
   -.171E+01 0.144E+01 0.254E+02   0.171E+01 -.145E+01 -.254E+02   -.143E-01 0.254E-01 0.450E-02
   0.496E+00 -.506E+00 0.184E+02   -.490E+00 0.508E+00 -.184E+02   0.158E-02 -.421E-02 -.232E-02
   0.445E+00 -.374E+00 0.180E+02   -.450E+00 0.379E+00 -.180E+02   -.158E-03 -.575E-02 0.481E-02
   0.880E+00 -.199E+01 0.273E+02   -.886E+00 0.198E+01 -.273E+02   0.321E-01 0.106E-02 0.214E-02
   0.534E+00 -.278E+01 0.233E+02   -.538E+00 0.278E+01 -.232E+02   0.296E-02 0.587E-02 -.161E-01
   -.171E+01 0.104E+01 0.192E+02   0.172E+01 -.104E+01 -.192E+02   0.648E-02 -.931E-03 0.599E-02
   -.225E+01 0.662E+00 0.199E+02   0.225E+01 -.664E+00 -.199E+02   -.358E-02 0.773E-02 -.114E-01
   -.319E+00 -.113E+00 0.175E+02   0.320E+00 0.123E+00 -.175E+02   0.446E-02 -.159E-01 0.235E-02
   0.133E+00 0.109E+01 0.178E+02   -.138E+00 -.108E+01 -.178E+02   0.562E-02 -.101E-01 0.116E-01
   -.436E+00 -.266E+01 0.211E+02   0.440E+00 0.267E+01 -.211E+02   -.811E-03 -.115E-01 -.243E-02
   -.241E+00 -.159E+01 0.187E+02   0.247E+00 0.160E+01 -.187E+02   -.142E-01 -.103E-01 0.294E-03
   0.246E+01 -.108E+01 0.221E+02   -.246E+01 0.108E+01 -.221E+02   -.305E-02 0.703E-02 -.223E-01
   0.171E+01 -.139E+01 0.205E+02   -.171E+01 0.139E+01 -.205E+02   -.412E-02 0.651E-02 -.152E-02
   -.456E+00 0.804E+00 0.280E+02   0.444E+00 -.813E+00 -.280E+02   0.823E-03 0.260E-01 0.685E-02
   -.607E+00 -.129E+01 0.278E+02   0.605E+00 0.128E+01 -.278E+02   0.189E-01 -.574E-02 -.690E-02
   0.927E+00 -.345E+00 0.185E+02   -.928E+00 0.349E+00 -.185E+02   0.103E-01 -.101E-01 -.762E-02
   0.228E+00 0.811E+00 0.184E+02   -.238E+00 -.805E+00 -.184E+02   0.870E-02 -.388E-02 0.654E-02
   -.276E+01 0.352E+00 0.228E+02   0.276E+01 -.359E+00 -.228E+02   0.176E-01 0.131E-01 -.343E-03
   -.263E+01 -.105E+01 0.221E+02   0.263E+01 0.105E+01 -.221E+02   -.102E-01 0.824E-02 -.370E-02
   0.981E+00 -.198E+01 0.208E+02   -.982E+00 0.198E+01 -.208E+02   0.559E-02 0.839E-03 -.134E-01
   0.853E-01 -.866E+00 0.190E+02   -.873E-01 0.870E+00 -.190E+02   -.527E-02 -.842E-03 -.169E-02
   -.189E+01 -.194E+01 0.238E+02   0.189E+01 0.194E+01 -.238E+02   -.128E-01 -.107E-01 -.143E-01
   -.135E+01 -.252E+01 0.212E+02   0.135E+01 0.253E+01 -.212E+02   -.691E-02 -.135E-01 0.144E-02
   0.130E+00 0.505E+00 0.179E+02   -.119E+00 -.508E+00 -.179E+02   -.113E-01 -.256E-03 0.821E-02
   0.321E+00 0.474E+00 0.183E+02   -.317E+00 -.479E+00 -.183E+02   -.140E-01 0.127E-01 -.326E-02
   -.118E+01 0.205E+00 0.187E+02   0.118E+01 -.209E+00 -.187E+02   -.395E-02 0.221E-02 0.779E-02
   -.105E+01 -.465E+00 0.186E+02   0.105E+01 0.464E+00 -.186E+02   -.567E-02 0.193E-02 -.891E-03
   -.200E+01 -.105E+01 0.193E+02   0.201E+01 0.106E+01 -.193E+02   -.232E-02 -.844E-02 0.534E-02
   -.132E+01 -.104E+01 0.183E+02   0.132E+01 0.105E+01 -.184E+02   -.443E-02 -.132E-01 0.903E-02
   -.119E+01 -.151E+01 0.188E+02   0.119E+01 0.152E+01 -.188E+02   -.887E-02 -.172E-01 0.649E-02
   -.175E+00 -.401E+00 0.179E+02   0.181E+00 0.409E+00 -.179E+02   -.591E-02 -.122E-01 0.983E-02
   0.449E+00 0.113E+01 0.180E+02   -.450E+00 -.113E+01 -.180E+02   -.352E-02 -.729E-02 0.948E-02
   0.136E+01 0.210E+01 0.195E+02   -.136E+01 -.211E+01 -.195E+02   0.866E-03 0.809E-03 0.106E-01
   0.128E+00 0.188E+01 0.185E+02   -.133E+00 -.187E+01 -.185E+02   0.136E-01 -.514E-02 0.336E-02
   -.400E-01 0.278E+01 0.208E+02   0.311E-01 -.279E+01 -.208E+02   0.724E-02 0.357E-02 0.725E-02
   -.362E+00 0.670E+00 0.187E+02   0.358E+00 -.672E+00 -.187E+02   0.134E-01 -.389E-02 -.243E-02
   -.134E+01 0.165E+01 0.198E+02   0.133E+01 -.165E+01 -.198E+02   0.382E-02 -.199E-04 -.453E-02
   -.332E+00 -.815E+00 0.185E+02   0.338E+00 0.815E+00 -.185E+02   -.368E-02 -.333E-02 0.324E-02
   -.725E+00 0.267E+00 0.179E+02   0.731E+00 -.264E+00 -.179E+02   -.154E-01 0.211E-02 -.580E-02
   0.869E-01 -.500E+00 0.179E+02   -.787E-01 0.506E+00 -.179E+02   -.924E-02 -.109E-01 0.802E-02
   0.812E+00 0.572E+00 0.179E+02   -.805E+00 -.569E+00 -.179E+02   -.145E-01 0.170E-02 0.511E-02
   0.821E-02 0.121E-01 -.256E+03   -.906E-02 -.153E-01 0.256E+03   -.164E-01 0.150E-01 -.365E-02
   -.228E+03 0.155E+03 -.396E+03   0.279E+03 -.190E+03 0.400E+03   -.527E+02 0.358E+02 -.354E+01
   0.228E+03 -.155E+03 -.375E+03   -.279E+03 0.190E+03 0.372E+03   0.527E+02 -.359E+02 0.317E+01
 -----------------------------------------------------------------------------------------------
   -.214E-01 0.609E-02 0.377E+00   0.114E-12 -.114E-12 0.455E-12   -.169E-01 0.166E-01 -.380E+00
 
 
 POSITION                                       TOTAL-FORCE (eV/Angst)
 -----------------------------------------------------------------------------------
     11.98348      0.00342      0.01417        -0.006183      0.006118     -0.000215
     -0.34154      1.42665      0.01100        -0.013363      0.018561     -0.002165
      2.12355      0.00315      0.01249         0.010332      0.017696     -0.005815
      2.12326      1.42653      0.00641         0.028581      0.019528     -0.006719
     10.75099      2.13819      0.01213        -0.007086      0.016579      0.000549
     -1.57382      3.56123      0.01110        -0.025773      0.013964     -0.002089
      0.89078      2.13854      0.00548         0.010529      0.011199      0.004055
      0.89099      3.56147      0.00181        -0.010596      0.011789      0.014460
      4.58864      0.00346      0.01135         0.026870     -0.018711     -0.002565
      4.58894      1.42623      0.00646         0.004174      0.028503      0.015153
      9.51854      4.27281      0.01369         0.016971      0.001064     -0.000741
     -2.80632      5.69591      0.01434        -0.005456     -0.017068      0.000074
      2.12300      4.27302      0.00000         0.023770      0.016481      0.023727
      2.12335      5.69594      0.00581         0.004365      0.005408     -0.000465
      7.05344      0.00333      0.01399         0.009098     -0.015392     -0.001262
      7.05353      1.42635      0.01368        -0.002245      0.014052     -0.006262
      8.28610      6.40752      0.01601         0.018415     -0.020883     -0.000325
     -4.03885      7.83070      0.01636         0.007862     -0.018622      0.000551
      3.35586      6.40753      0.01007        -0.014476     -0.011177     -0.002616
      3.35599      7.83072      0.01320        -0.017537     -0.007874      0.000520
     -0.34146      4.27290      0.00723         0.000738      0.020048     -0.005271
     -0.34138      5.69591      0.00946        -0.012220      0.003797      0.000658
      3.35624      2.13791      0.00222        -0.004833      0.033524      0.018817
      3.35573      3.56155      0.00139         0.033368     -0.007978      0.010850
     -1.57395      6.40758      0.01311         0.025902     -0.014763     -0.001967
     -1.57385      7.83068      0.01438         0.010314     -0.002764      0.000836
      5.82093      2.13784      0.01033         0.021324      0.007099     -0.000931
      5.82114      3.56097      0.01156         0.001845      0.001793     -0.006506
      0.89092      6.40755      0.00907         0.004565      0.000310     -0.004289
      0.89106      7.83068      0.01235        -0.007051      0.008829      0.001727
      4.58871      4.27293      0.00850        -0.023490     -0.003092     -0.011402
      4.58852      5.69606      0.01149         0.001747     -0.023846     -0.004770
      9.51845      0.00337      0.01490        -0.016669     -0.006057      0.000622
      9.51855      1.42644      0.01438        -0.030025      0.020412     -0.000651
      8.28593      2.13803      0.01453         0.003033     -0.000046      0.001826
      8.28613      3.56115      0.01464        -0.012189     -0.003929     -0.002304
      7.05356      4.27269      0.01457         0.004539     -0.008122      0.000490
      7.05362      5.69588      0.01553        -0.001471     -0.028573     -0.000580
      5.82112      6.40755      0.01489        -0.014879     -0.017784      0.000462
      5.82102      7.83073      0.01579        -0.004574     -0.019732      0.000566
      7.05363      8.54227      0.01631        -0.002848     -0.010954      0.001884
     -5.27149      9.96549      0.01495         0.001926     -0.001275     -0.001688
     -2.80638      8.54234      0.01558         0.029024     -0.015110     -0.000293
     -2.80627      9.96553      0.01362         0.017413      0.004089     -0.003155
     -0.34149      8.54239      0.01378         0.023618     -0.017033     -0.001296
     -0.34138      9.96550      0.01354         0.011521      0.010375     -0.002272
      2.12343      8.54232      0.01336        -0.012444     -0.013901     -0.000616
      2.12354      9.96544      0.01469        -0.023236      0.013835     -0.002516
      4.58846      8.54235      0.01505        -0.019189     -0.016270      0.002115
      4.58853      9.96550      0.01517        -0.024127      0.007032      0.001240
      3.04930      2.68154      6.67420        -0.032022      0.019941      0.037000
      4.02070      2.02068      6.73862        -1.668947      1.099423     -0.127705
      2.07767      3.34267      6.61474         1.661086     -1.110492      0.071265
 -----------------------------------------------------------------------------------
    total drift:                               -0.038373      0.022697     -0.003281


--------------------------------------------------------------------------------------------------------



  FREE ENERGIE OF THE ION-ELECTRON SYSTEM (eV)
  ---------------------------------------------------
  free  energy   TOTEN  =      -525.87301105 eV

  energy  without entropy=     -525.87301105  energy(sigma->0) =     -525.87301105
 


--------------------------------------------------------------------------------------------------------


    POTLOK:  cpu time    8.3804: real time    8.4344


--------------------------------------------------------------------------------------------------------


 writing wavefunctions
     LOOP+:  cpu time 1211.1944: real time 1221.2815
    4ORBIT:  cpu time    0.0000: real time    0.0000

 total amount of memory used by VASP MPI-rank0   698619. kBytes
=======================================================================

   base      :      30000. kBytes
   nonl-proj :     230539. kBytes
   fftplans  :      40716. kBytes
   grid      :     363125. kBytes
   one-center:        162. kBytes
   wavefun   :      34077. kBytes
 
  
  
 General timing and accounting informations for this job:
 ========================================================
  
                  Total CPU time used (sec):     1256.206
                            User time (sec):     1214.923
                          System time (sec):       41.283
                         Elapsed time (sec):     1267.540
  
                   Maximum memory used (kb):     1436584.
                   Average memory used (kb):          N/A
  
                          Minor page faults:       351210
                          Major page faults:           62
                 Voluntary context switches:         3681
