 vasp.6.2.1 16May21 (build Nov 06 2021 14:46:37) complex                        
  
 executed on             LinuxIFC date 2025.03.03  21:53:52
 running on  112 total cores
 distrk:  each k-point on   56 cores,    2 groups
 distr:  one band on NCORE=   1 cores,   56 groups


--------------------------------------------------------------------------------------------------------


 INCAR:
   ALGO = Conjugate
   KPAR = 2
   NCORE = 32
   ISMEAR = 0
   SIGMA = 0.01
   PREC = Accurate
   EDIFF = 1E-7
   ENCUT = 1000
   ISIF = 0
   METAGGA = SCAN
   LUSE_VDW = .TRUE.
   BPARAM = 15.7
   LASPH = .TRUE.
   SYMPREC = 1E-7
   NELM = 200

 POTCAR:    PAW_PBE C_h 06Feb2004                 
 POTCAR:    PAW_PBE O_h 06Feb2004                 
 -----------------------------------------------------------------------------
|                                                                             |
|           W    W    AA    RRRRR   N    N  II  N    N   GGGG   !!!           |
|           W    W   A  A   R    R  NN   N  II  NN   N  G    G  !!!           |
|           W    W  A    A  R    R  N N  N  II  N N  N  G       !!!           |
|           W WW W  AAAAAA  RRRRR   N  N N  II  N  N N  G  GGG   !            |
|           WW  WW  A    A  R   R   N   NN  II  N   NN  G    G                |
|           W    W  A    A  R    R  N    N  II  N    N   GGGG   !!!           |
|                                                                             |
|     The value NCORE = 32 specified in the INCAR file was overwritten,       |
|     because it was not compatible with the 56 processes available:          |
|     NCORE = 1                                                               |
|     was used instead, please check that this makes sense for your           |
|     machine.                                                                |
|                                                                             |
 -----------------------------------------------------------------------------

 -----------------------------------------------------------------------------
|                                                                             |
|           W    W    AA    RRRRR   N    N  II  N    N   GGGG   !!!           |
|           W    W   A  A   R    R  NN   N  II  NN   N  G    G  !!!           |
|           W    W  A    A  R    R  N N  N  II  N N  N  G       !!!           |
|           W WW W  AAAAAA  RRRRR   N  N N  II  N  N N  G  GGG   !            |
|           WW  WW  A    A  R   R   N   NN  II  N   NN  G    G                |
|           W    W  A    A  R    R  N    N  II  N    N   GGGG   !!!           |
|                                                                             |
|     For optimal performance we recommend to set                             |
|       NCORE = 2 up to number-of-cores-per-socket                            |
|     NCORE specifies how many cores store one orbital (NPAR=cpu/NCORE).      |
|     This setting can greatly improve the performance of VASP for DFT.       |
|     The default, NCORE=1 might be grossly inefficient on modern             |
|     multi-core architectures or massively parallel machines. Do your        |
|     own testing! More info at https://www.vasp.at/wiki/index.php/NCORE      |
|     Unfortunately you need to use the default for GW and RPA                |
|     calculations (for HF NCORE is supported but not extensively tested      |
|     yet).                                                                   |
|                                                                             |
 -----------------------------------------------------------------------------

 -----------------------------------------------------------------------------
|                                                                             |
|               ----> ADVICE to this user running VASP <----                  |
|                                                                             |
|     You have switched on vdW-DFT.                                           |
|     This routine was written and supplied by Jiri Klimes. We recommend      |
|     that you carefully read and cite the following publications:            |
|       J. Klimes, D.R. Bowler, A. Michelides                                 |
|          J. Phys.: Cond Matt. 22 022201 (2010)                              |
|       J. Klimes, D.R. Bowler, A. Michelides                                 |
|          Phys. Rev. B. 83, 195131 (2011)                                    |
|     and references therein.                                                 |
|                                                                             |
 -----------------------------------------------------------------------------

 POTCAR:    PAW_PBE C_h 06Feb2004                 
   VRHFIN =C: s2p2                                                                                  
   LEXCH  = PE                                                                                      
   EATOM  =   147.1560 eV,   10.8157 Ry                                                             
                                                                                                    
   TITEL  = PAW_PBE C_h 06Feb2004                                                                   
   LULTRA =        F    use ultrasoft PP ?                                                          
   IUNSCR =        1    unscreen: 0-lin 1-nonlin 2-no                                               
   RPACOR =    0.800    partial core radius                                                         
   POMASS =   12.011; ZVAL   =    4.000    mass and valenz                                          
   RCORE  =    1.100    outmost cutoff radius                                                       
   RWIGS  =    1.630; RWIGS  =    0.863    wigner-seitz radius (au A)                               
   ENMAX  =  700.000; ENMIN  =  500.000 eV                                                          
   ICORE  =        2    local potential                                                             
   LCOR   =        T    correct aug charges                                                         
   LPAW   =        T    paw PP                                                                      
   EAUG   =  946.768                                                                                
   DEXC   =    0.000                                                                                
   RMAX   =    1.128    core radius for proj-oper                                                   
   RAUG   =    1.300    factor for augmentation sphere                                              
   RDEP   =    1.162    radius for radial grids                                                     
   RDEPT  =    1.088    core radius for aug-charge                                                  
                                                                                                    
   Atomic configuration                                                                             
    4 entries                                                                                       
     n  l   j            E        occ.                                                              
     1  0  0.50      -273.3789   2.0000                                                             
     2  0  0.50       -13.7508   2.0000                                                             
     2  1  0.50        -5.2854   2.0000                                                             
     3  2  1.50        -5.4423   0.0000                                                             
   Description                                                                                      
     l       E           TYP  RCUT    TYP  RCUT                                                     
     0    -13.7508458     23  1.100                                                                 
     0     -8.2022199     23  1.100                                                                 
     1     -5.2854383     23  1.100                                                                 
     1      1.1560700     23  1.100                                                                 
     2     -5.4423304      7  1.100                                                                 
  local pseudopotential read in
  partial core-charges read in
  partial kinetic energy density read in
  atomic valenz-charges read in
  non local Contribution for L=           0  read in
    real space projection operators read in
  non local Contribution for L=           0  read in
    real space projection operators read in
  non local Contribution for L=           1  read in
    real space projection operators read in
  non local Contribution for L=           1  read in
    real space projection operators read in
    PAW grid and wavefunctions read in
 
   number of l-projection  operators is LMAX  =           4
   number of lm-projection operators is LMMAX =           8
 
 POTCAR:    PAW_PBE O_h 06Feb2004                 
   VRHFIN =O: s2p4                                                                                  
   LEXCH  = PE                                                                                      
   EATOM  =   432.3788 eV,   31.7789 Ry                                                             
                                                                                                    
   TITEL  = PAW_PBE O_h 06Feb2004                                                                   
   LULTRA =        F    use ultrasoft PP ?                                                          
   IUNSCR =        1    unscreen: 0-lin 1-nonlin 2-no                                               
   RPACOR =    0.800    partial core radius                                                         
   POMASS =   16.000; ZVAL   =    6.000    mass and valenz                                          
   RCORE  =    1.100    outmost cutoff radius                                                       
   RWIGS  =    1.400; RWIGS  =    0.741    wigner-seitz radius (au A)                               
   ENMAX  =  700.000; ENMIN  =  500.000 eV                                                          
   ICORE  =        2    local potential                                                             
   LCOR   =        T    correct aug charges                                                         
   LPAW   =        T    paw PP                                                                      
   EAUG   =  888.804                                                                                
   DEXC   =    0.000                                                                                
   RMAX   =    1.128    core radius for proj-oper                                                   
   RAUG   =    1.300    factor for augmentation sphere                                              
   RDEP   =    1.125    radius for radial grids                                                     
   RDEPT  =    1.088    core radius for aug-charge                                                  
                                                                                                    
   Atomic configuration                                                                             
    4 entries                                                                                       
     n  l   j            E        occ.                                                              
     1  0  0.50      -514.6923   2.0000                                                             
     2  0  0.50       -23.9615   2.0000                                                             
     2  1  0.50        -9.0305   4.0000                                                             
     3  2  1.50        -9.5241   0.0000                                                             
   Description                                                                                      
     l       E           TYP  RCUT    TYP  RCUT                                                     
     0    -23.9615319     23  1.100                                                                 
     0    -25.3221145     23  1.100                                                                 
     1     -9.0304911     23  1.100                                                                 
     1     -5.4802209     23  1.100                                                                 
     2     -9.5240782      7  1.100                                                                 
  local pseudopotential read in
  partial core-charges read in
  partial kinetic energy density read in
  atomic valenz-charges read in
  non local Contribution for L=           0  read in
    real space projection operators read in
  non local Contribution for L=           0  read in
    real space projection operators read in
  non local Contribution for L=           1  read in
    real space projection operators read in
  non local Contribution for L=           1  read in
    real space projection operators read in
    PAW grid and wavefunctions read in
 
   number of l-projection  operators is LMAX  =           4
   number of lm-projection operators is LMMAX =           8
 
 -----------------------------------------------------------------------------
|                                                                             |
|               ----> ADVICE to this user running VASP <----                  |
|                                                                             |
|     You have a (more or less) 'large supercell' and for larger cells it     |
|     might be more efficient to use real-space projection operators.         |
|     Therefore, try LREAL= Auto in the INCAR file.                           |
|     Mind: For very accurate calculation, you might also keep the            |
|     reciprocal projection scheme (i.e. LREAL=.FALSE.).                      |
|                                                                             |
 -----------------------------------------------------------------------------

  PAW_PBE C_h 06Feb2004                 :
 energy of atom  1       EATOM= -147.1560
 kinetic energy error for atom=    0.0031 (will be added to EATOM!!)
  PAW_PBE O_h 06Feb2004                 :
 energy of atom  2       EATOM= -432.3788
 kinetic energy error for atom=    0.0171 (will be added to EATOM!!)
 
 
 POSCAR:  C  O
  positions in cartesian coordinates
  No initial velocities read in

 METAGGA = SCAN     LMAXTAU =  6    LMIXTAU =  F

 exchange correlation table for  LEXCH =        8
   RHO(1)=    0.500       N(1)  =     2000
   RHO(2)=  100.500       N(2)  =     4000
 


--------------------------------------------------------------------------------------------------------


 ion  position               nearest neighbor table
   1  0.972  0.000  0.001-  50 1.42   2 1.42  42 1.42
   2  0.039  0.134  0.001-   5 1.42   7 1.42   1 1.42
   3  0.172  0.000  0.001-  42 1.42  44 1.42   4 1.42
   4  0.239  0.134  0.000-   7 1.42   3 1.42  23 1.42
   5  0.972  0.200  0.001-   6 1.42   2 1.42  34 1.42
   6  0.039  0.334  0.001-   5 1.42  21 1.42  11 1.42
   7  0.172  0.200  0.000-   8 1.42   2 1.42   4 1.42
   8  0.239  0.334  0.000-  13 1.42   7 1.42  21 1.42
   9  0.372  0.000  0.001-  10 1.42  44 1.42  46 1.42
  10  0.439  0.134  0.000-  27 1.42   9 1.42  23 1.42
  11  0.972  0.400  0.001-  12 1.42  36 1.42   6 1.42
  12  0.039  0.534  0.001-  25 1.42  11 1.42  17 1.42
  13  0.372  0.400  0.000-   8 1.42  14 1.42  24 1.42
  14  0.439  0.534  0.000-  13 1.42  29 1.42  19 1.42
  15  0.572  0.000  0.001-  46 1.42  16 1.42  48 1.42
  16  0.639  0.134  0.001-  15 1.42  35 1.42  27 1.42
  17  0.972  0.600  0.001-  38 1.42  18 1.42  12 1.42
  18  0.039  0.734  0.001-  43 1.42  41 1.42  17 1.42
  19  0.572  0.600  0.001-  14 1.42  20 1.42  32 1.42
  20  0.639  0.734  0.001-  49 1.42  19 1.42  47 1.42
  21  0.172  0.400  0.000-  22 1.42   8 1.42   6 1.42
  22  0.239  0.534  0.000-  21 1.42  29 1.42  25 1.42
  23  0.372  0.200  0.000-  10 1.42   4 1.42  24 1.42
  24  0.439  0.334  0.000-  13 1.42  31 1.42  23 1.42
  25  0.172  0.600  0.001-  26 1.42  12 1.42  22 1.42
  26  0.239  0.734  0.001-  25 1.42  45 1.42  43 1.42
  27  0.572  0.200  0.001-  10 1.42  28 1.42  16 1.42
  28  0.639  0.334  0.001-  27 1.42  37 1.42  31 1.42
  29  0.372  0.600  0.000-  22 1.42  14 1.42  30 1.42
  30  0.439  0.734  0.001-  47 1.42  29 1.42  45 1.42
  31  0.572  0.400  0.000-  32 1.42  28 1.42  24 1.42
  32  0.639  0.534  0.001-  31 1.42  39 1.42  19 1.42
  33  0.772  0.000  0.001-  34 1.42  48 1.42  50 1.42
  34  0.839  0.134  0.001-  33 1.42   5 1.42  35 1.42
  35  0.772  0.200  0.001-  36 1.42  16 1.42  34 1.42
  36  0.839  0.334  0.001-  35 1.42  11 1.42  37 1.42
  37  0.772  0.400  0.001-  28 1.42  38 1.42  36 1.42
  38  0.839  0.534  0.001-  17 1.42  37 1.42  39 1.42
  39  0.772  0.600  0.001-  40 1.42  38 1.42  32 1.42
  40  0.839  0.734  0.001-  39 1.42  49 1.42  41 1.42
  41  0.972  0.800  0.001-  18 1.42  42 1.42  40 1.42
  42  0.039  0.934  0.001-   3 1.42  41 1.42   1 1.42
  43  0.172  0.800  0.001-  18 1.42  44 1.42  26 1.42
  44  0.239  0.934  0.001-   9 1.42  43 1.42   3 1.42
  45  0.372  0.800  0.001-  26 1.42  46 1.42  30 1.42
  46  0.439  0.934  0.001-  15 1.42  45 1.42   9 1.42
  47  0.572  0.800  0.001-  30 1.42  48 1.42  20 1.42
  48  0.639  0.934  0.001-  47 1.42  33 1.42  15 1.42
  49  0.772  0.800  0.001-  50 1.42  20 1.42  40 1.42
  50  0.839  0.934  0.001-  49 1.42   1 1.42  33 1.42
  51  0.373  0.251  0.354-  52 1.18  53 1.18
  52  0.421  0.189  0.357-  51 1.18
  53  0.325  0.313  0.351-  51 1.18
 
  LATTYP: Found a hexagonal cell.
 ALAT       =    12.3250000000
 C/A-ratio  =     1.6227180527
  
  Lattice vectors:
  
 A1 = (  12.3250000000,   0.0000000000,   0.0000000000)
 A2 = (  -6.1625000000,  10.6737631016,   0.0000000000)
 A3 = (   0.0000000000,   0.0000000000,  20.0000000000)


Analysis of symmetry for initial positions (statically):
=====================================================================
 Subroutine PRICEL returns:
 Original cell was already a primitive cell.
 

 Routine SETGRP: Setting up the symmetry group for a 
 hexagonal supercell.


 Subroutine GETGRP returns: Found  1 space group operations
 (whereof  1 operations were pure point group operations)
 out of a pool of 24 trial point group operations.


The static configuration has the point symmetry C_1 .


Analysis of symmetry for dynamics (positions and initial velocities):
=====================================================================
 Subroutine PRICEL returns:
 Original cell was already a primitive cell.
 

 Routine SETGRP: Setting up the symmetry group for a 
 hexagonal supercell.


 Subroutine GETGRP returns: Found  1 space group operations
 (whereof  1 operations were pure point group operations)
 out of a pool of 24 trial point group operations.


The dynamic configuration has the point symmetry C_1 .


 Subroutine INISYM returns: Found  1 space group operations
 (whereof  1 operations are pure point group operations),
 and found     1 'primitive' translations


----------------------------------------------------------------------------------------

                                     Primitive cell                                     

  volume of cell :    2631.0826

  direct lattice vectors                    reciprocal lattice vectors
    12.325000000  0.000000000  0.000000000     0.081135903  0.046843835  0.000000000
    -6.162500000 10.673763102  0.000000000     0.000000000  0.093687670  0.000000000
     0.000000000  0.000000000 20.000000000     0.000000000  0.000000000  0.050000000

  length of vectors
    12.325000000 12.325000000 20.000000000     0.093687670  0.093687670  0.050000000

  position of ions in fractional coordinates (direct lattice)
     0.972450841  0.000320818  0.000708389
     0.039118382  0.133659505  0.000550216
     0.172443627  0.000295449  0.000624535
     0.239096278  0.133647917  0.000320585
     0.972452058  0.200322012  0.000606523
     0.039128360  0.333643771  0.000555187
     0.172451764  0.200354552  0.000273959
     0.239124359  0.333665720  0.000090325
     0.372465565  0.000324403  0.000567391
     0.439137473  0.133619939  0.000322923
     0.972449824  0.400309362  0.000684513
     0.039124981  0.533636789  0.000716763
     0.372416176  0.400329481  0.000000000
     0.439099602  0.533638981  0.000290518
     0.572443676  0.000312125  0.000699475
     0.639110207  0.133631751  0.000684093
     0.972452703  0.600305653  0.000800361
     0.039124495  0.733640359  0.000818141
     0.572433471  0.600306242  0.000503618
     0.639111888  0.733641879  0.000659881
     0.172454630  0.400318228  0.000361306
     0.239120185  0.533636548  0.000473136
     0.372459750  0.200295993  0.000111246
     0.439107096  0.333673419  0.000069702
     0.172452155  0.600311506  0.000655425
     0.239123371  0.733638574  0.000718912
     0.572431082  0.200289171  0.000516621
     0.639112773  0.333618630  0.000577970
     0.372439808  0.600308022  0.000453556
     0.439116090  0.733637858  0.000617737
     0.572469358  0.400320504  0.000424897
     0.639119408  0.533650873  0.000574513
     0.772445723  0.000315427  0.000745201
     0.839116277  0.133640203  0.000719132
     0.772440513  0.200307432  0.000726291
     0.839120241  0.333635728  0.000731834
     0.772446320  0.400298367  0.000728722
     0.839118980  0.533633964  0.000776376
     0.772456143  0.600308173  0.000744639
     0.839115033  0.733643180  0.000789390
     0.972455313  0.800305582  0.000815291
     0.039114714  0.933643289  0.000747563
     0.172457971  0.800312211  0.000779216
     0.239134551  0.933647193  0.000681063
     0.372451396  0.800316674  0.000689249
     0.439124489  0.933644769  0.000676788
     0.572441101  0.800310054  0.000668168
     0.639115067  0.933638985  0.000734556
     0.772445098  0.800313187  0.000752577
     0.839116614  0.933644338  0.000758538
     0.373021009  0.251226878  0.353553390
     0.420879805  0.189313152  0.356774483
     0.325156981  0.313167186  0.350580647

  ion indices of the primitive-cell ions
   primitive index   ion index
                 1           1
                 2           2
                 3           3
                 4           4
                 5           5
                 6           6
                 7           7
                 8           8
                 9           9
                10          10
                11          11
                12          12
                13          13
                14          14
                15          15
                16          16
                17          17
                18          18
                19          19
                20          20
                21          21
                22          22
                23          23
                24          24
                25          25
                26          26
                27          27
                28          28
                29          29
                30          30
                31          31
                32          32
                33          33
                34          34
                35          35
                36          36
                37          37
                38          38
                39          39
                40          40
                41          41
                42          42
                43          43
                44          44
                45          45
                46          46
                47          47
                48          48
                49          49
                50          50
                51          51
                52          52
                53          53

----------------------------------------------------------------------------------------

 
 
 KPOINTS: auto                                    

Automatic generation of k-mesh.
 Grid dimensions read from file:
 generate k-points for:    1    1    1

 Generating k-lattice:

  Cartesian coordinates                     Fractional coordinates (reciprocal lattice)
     0.081135903  0.046843835  0.000000000     1.000000000 -0.000000000  0.000000000
     0.000000000  0.093687670  0.000000000     0.000000000  1.000000000  0.000000000
     0.000000000  0.000000000  0.050000000     0.000000000  0.000000000  1.000000000

  Length of vectors
     0.093687670  0.093687670  0.050000000

  Shift w.r.t. Gamma in fractional coordinates (k-lattice)
     0.000000000  0.000000000  0.000000000

 
 Subroutine IBZKPT returns following result:
 ===========================================
 
 Found      1 irreducible k-points:
 
 Following reciprocal coordinates:
            Coordinates               Weight
  0.000000  0.000000  0.000000      1.000000
 
 Following cartesian coordinates:
            Coordinates               Weight
  0.000000  0.000000  0.000000      1.000000
 


--------------------------------------------------------------------------------------------------------




 Dimension of arrays:
   k-points           NKPTS =      1   k-points in BZ     NKDIM =      1   number of bands    NBANDS=    168
   number of dos      NEDOS =    301   number of ions     NIONS =     53
   non local maximal  LDIM  =      4   non local SUM 2l+1 LMDIM =      8
   total plane-waves  NPLWV = ******
   max r-space proj   IRMAX =      1   max aug-charges    IRDMAX=   9736
   dimension x,y,z NGX =   128 NGY =  128 NGZ =  210
   dimension x,y,z NGXF=   256 NGYF=  256 NGZF=  420
   support grid    NGXF=   256 NGYF=  256 NGZF=  420
   ions per type =              51   2
   NGX,Y,Z   is equivalent  to a cutoff of  17.27, 17.27, 17.46 a.u.
   NGXF,Y,Z  is equivalent  to a cutoff of  34.53, 34.53, 34.91 a.u.

 SYSTEM =  unknown system                          
 POSCAR =   C  O                                   

 Startparameter for this run:
   NWRITE =      2    write-flag & timer
   PREC   = accura    normal or accurate (medium, high low for compatibility)
   ISTART =      0    job   : 0-new  1-cont  2-samecut
   ICHARG =      2    charge: 1-file 2-atom 10-const
   ISPIN  =      1    spin polarized calculation?
   LNONCOLLINEAR =      F non collinear calculations
   LSORBIT =      F    spin-orbit coupling
   INIWAV =      1    electr: 0-lowe 1-rand  2-diag
   LASPH  =      T    aspherical Exc in radial PAW
 Electronic Relaxation 1
   ENCUT  = 1000.0 eV  73.50 Ry    8.57 a.u.  31.78 31.78 51.57*2*pi/ulx,y,z
   ENINI  = 1000.0     initial cutoff
   ENAUG  =  946.8 eV  augmentation charge cutoff
   NELM   =    200;   NELMIN=  2; NELMDL= -5     # of ELM steps 
   EDIFF  = 0.1E-06   stopping-criterion for ELM
   LREAL  =      F    real-space projection
   NLSPLINE    = F    spline interpolate recip. space projectors
   LCOMPAT=      F    compatible to vasp.4.4
   GGA_COMPAT  = T    GGA compatible to vasp.4.4-vasp.4.6
   LMAXPAW     = -100 max onsite density
   LMAXMIX     =    2 max onsite mixed and CHGCAR
   VOSKOWN=      0    Vosko Wilk Nusair interpolation
   ROPT   =    0.00000   0.00000
 Ionic relaxation
   EDIFFG = 0.1E-05   stopping-criterion for IOM
   NSW    =      0    number of steps for IOM
   NBLOCK =      1;   KBLOCK =      1    inner block; outer block 
   IBRION =     -1    ionic relax: 0-MD 1-quasi-New 2-CG
   NFREE  =      0    steps in history (QN), initial steepest desc. (CG)
   ISIF   =      0    stress and relaxation
   IWAVPR =     10    prediction:  0-non 1-charg 2-wave 3-comb
   ISYM   =      2    0-nonsym 1-usesym 2-fastsym
   LCORR  =      T    Harris-Foulkes like correction to forces

   POTIM  = 0.5000    time-step for ionic-motion
   TEIN   =    0.0    initial temperature
   TEBEG  =    0.0;   TEEND  =   0.0 temperature during run
   SMASS  =  -3.00    Nose mass-parameter (am)
   estimated Nose-frequenzy (Omega)   =  0.10E-29 period in steps = 0.13E+47 mass=  -0.347E-26a.u.
   SCALEE = 1.0000    scale energy and forces
   NPACO  =    256;   APACO  = 16.0  distance and # of slots for P.C.
   PSTRESS=    0.0 pullay stress

  Mass of Ions in am
   POMASS =  12.01 16.00
  Ionic Valenz
   ZVAL   =   4.00  6.00
  Atomic Wigner-Seitz radii
   RWIGS  =  -1.00 -1.00
  virtual crystal weights 
   VCA    =   1.00  1.00
   NELECT =     216.0000    total number of electrons
   NUPDOWN=      -1.0000    fix difference up-down

 DOS related values:
   EMIN   =  10.00;   EMAX   =-10.00  energy-range for DOS
   EFERMI =   0.00
   ISMEAR =     0;   SIGMA  =   0.01  broadening in eV -4-tet -1-fermi 0-gaus

 Electronic relaxation 2 (details)
   IALGO  =     58    algorithm
   LDIAG  =      T    sub-space diagonalisation (order eigenvalues)
   LSUBROT=      F    optimize rotation matrix (better conditioning)
   TURBO    =      0    0=normal 1=particle mesh
   IRESTART =      0    0=no restart 2=restart with 2 vectors
   NREBOOT  =      0    no. of reboots
   NMIN     =      0    reboot dimension
   EREF     =   0.00    reference energy to select bands
   IMIX   =      4    mixing-type and parameters
     AMIX     =   0.40;   BMIX     =  1.00
     AMIX_MAG =   1.60;   BMIX_MAG =  1.00
     AMIN     =   0.10
     WC   =   100.;   INIMIX=   1;  MIXPRE=   1;  MAXMIX= -45

 Intra band minimization:
   WEIMIN = 0.0000     energy-eigenvalue tresh-hold
   EBREAK =  0.15E-09  absolut break condition
   DEPER  =   0.30     relativ break condition  

   TIME   =   0.40     timestep for ELM

  volume/ion in A,a.u.               =      49.64       335.01
  Fermi-wavevector in a.u.,A,eV,Ry     =   0.711510  1.344560  6.887909  0.506247
  Thomas-Fermi vector in A             =   1.798641
 
 Write flags
   LWAVE        =      T    write WAVECAR
   LDOWNSAMPLE  =      F    k-point downsampling of WAVECAR
   LCHARG       =      T    write CHGCAR
   LVTOT        =      F    write LOCPOT, total local potential
   LVHAR        =      F    write LOCPOT, Hartree potential only
   LELF         =      F    write electronic localiz. function (ELF)
   LORBIT       =      0    0 simple, 1 ext, 2 COOP (PROOUT), +10 PAW based schemes


 Dipole corrections
   LMONO  =      F    monopole corrections only (constant potential shift)
   LDIPOL =      F    correct potential (dipole corrections)
   IDIPOL =      0    1-x, 2-y, 3-z, 4-all directions 
   EPSILON=  1.0000000 bulk dielectric constant

 Exchange correlation treatment:
   GGA     =    --    GGA type
   LEXCH   =     8    internal setting for exchange type
   VOSKOWN=      0    Vosko Wilk Nusair interpolation
   LHFCALC =     F    Hartree Fock is set to
   LHFONE  =     F    Hartree Fock one center treatment
   AEXX    =    0.0000 exact exchange contribution

 vdW DFT:
   LUSE_VDW   =     T    switch on vdW DFT
   Zab_VDW    =-.8491    correlation parameter
   PARAM1     =0.1234
   PARAM2     =1.0000
   PARAM3     =0.0000
   -- rVV10 --
   BPARAM     =15.7000
   CPARAM     = 0.0093

 Linear response parameters
   LEPSILON=     F    determine dielectric tensor
   LRPA    =     F    only Hartree local field effects (RPA)
   LNABLA  =     F    use nabla operator in PAW spheres
   LVEL    =     F    velocity operator in full k-point grid
   LINTERFAST=   F  fast interpolation
   KINTER  =     0    interpolate to denser k-point grid
   CSHIFT  =0.1000    complex shift for real part using Kramers Kronig
   OMEGAMAX=  -1.0    maximum frequency
   DEG_THRESHOLD= 0.2000000E-02 threshold for treating states as degnerate
   RTIME   =   -0.100 relaxation time in fs
  (WPLASMAI=    0.000 imaginary part of plasma frequency in eV, 0.658/RTIME)
   DFIELD  = 0.0000000 0.0000000 0.0000000 field for delta impulse in time
 
 Orbital magnetization related:
   ORBITALMAG=     F  switch on orbital magnetization
   LCHIMAG   =     F  perturbation theory with respect to B field
   DQ        =  0.001000  dq finite difference perturbation B field
   LLRAUG    =     F  two centre corrections for induced B field



--------------------------------------------------------------------------------------------------------


 Static calculation
 charge density and potential will be updated during run
 non-spin polarized calculation
 Conjugate gradient for all bands (Freysoldt, et al. PRB 79, 241103 (2009))
 preconditioned conjugated gradient                                        
 perform sub-space diagonalisation
    before iterative eigenvector-optimisation
 modified Broyden-mixing scheme, WC =      100.0
 initial mixing is a Kerker type mixing with AMIX =  0.4000 and BMIX =      1.0000
 Hartree-type preconditioning will be used
 using additional bands           60
 reciprocal scheme for non local part
 use partial core corrections
 no Harris-corrections to forces 
 use gradient corrections 
 use of overlap-Matrix (Vanderbilt PP)
 Gauss-broadening in eV      SIGMA  =   0.01


--------------------------------------------------------------------------------------------------------


  energy-cutoff  :     1000.00
  volume of cell :     2631.08
      direct lattice vectors                 reciprocal lattice vectors
    12.325000000  0.000000000  0.000000000     0.081135903  0.046843835  0.000000000
    -6.162500000 10.673763102  0.000000000     0.000000000  0.093687670  0.000000000
     0.000000000  0.000000000 20.000000000     0.000000000  0.000000000  0.050000000

  length of vectors
    12.325000000 12.325000000 20.000000000     0.093687670  0.093687670  0.050000000


 
 k-points in units of 2pi/SCALE and weight: auto                                    
   0.00000000  0.00000000  0.00000000       1.000
 
 k-points in reciprocal lattice and weights: auto                                    
   0.00000000  0.00000000  0.00000000       1.000
 
 position of ions in fractional coordinates (direct lattice) 
   0.97245084  0.00032082  0.00070839
   0.03911838  0.13365950  0.00055022
   0.17244363  0.00029545  0.00062454
   0.23909628  0.13364792  0.00032058
   0.97245206  0.20032201  0.00060652
   0.03912836  0.33364377  0.00055519
   0.17245176  0.20035455  0.00027396
   0.23912436  0.33366572  0.00009033
   0.37246557  0.00032440  0.00056739
   0.43913747  0.13361994  0.00032292
   0.97244982  0.40030936  0.00068451
   0.03912498  0.53363679  0.00071676
   0.37241618  0.40032948  0.00000000
   0.43909960  0.53363898  0.00029052
   0.57244368  0.00031213  0.00069947
   0.63911021  0.13363175  0.00068409
   0.97245270  0.60030565  0.00080036
   0.03912449  0.73364036  0.00081814
   0.57243347  0.60030624  0.00050362
   0.63911189  0.73364188  0.00065988
   0.17245463  0.40031823  0.00036131
   0.23912018  0.53363655  0.00047314
   0.37245975  0.20029599  0.00011125
   0.43910710  0.33367342  0.00006970
   0.17245216  0.60031151  0.00065542
   0.23912337  0.73363857  0.00071891
   0.57243108  0.20028917  0.00051662
   0.63911277  0.33361863  0.00057797
   0.37243981  0.60030802  0.00045356
   0.43911609  0.73363786  0.00061774
   0.57246936  0.40032050  0.00042490
   0.63911941  0.53365087  0.00057451
   0.77244572  0.00031543  0.00074520
   0.83911628  0.13364020  0.00071913
   0.77244051  0.20030743  0.00072629
   0.83912024  0.33363573  0.00073183
   0.77244632  0.40029837  0.00072872
   0.83911898  0.53363396  0.00077638
   0.77245614  0.60030817  0.00074464
   0.83911503  0.73364318  0.00078939
   0.97245531  0.80030558  0.00081529
   0.03911471  0.93364329  0.00074756
   0.17245797  0.80031221  0.00077922
   0.23913455  0.93364719  0.00068106
   0.37245140  0.80031667  0.00068925
   0.43912449  0.93364477  0.00067679
   0.57244110  0.80031005  0.00066817
   0.63911507  0.93363899  0.00073456
   0.77244510  0.80031319  0.00075258
   0.83911661  0.93364434  0.00075854
   0.37302101  0.25122688  0.35355339
   0.42087980  0.18931315  0.35677448
   0.32515698  0.31316719  0.35058065
 
 position of ions in cartesian coordinates  (Angst):
  11.98347958  0.00342433  0.01416777
  -0.34154264  1.42664989  0.01100432
   2.12354700  0.00315355  0.01249070
   2.12325634  1.42652621  0.00641170
  10.75098721  2.13818970  0.01213047
  -1.57382270  3.56123457  0.01110375
   0.89078307  2.13853702  0.00547917
   0.89099273  3.56146885  0.00180651
   4.58863896  0.00346260  0.01134782
   4.58893648  1.42622757  0.00645846
   9.51853763  4.27280730  0.01369027
  -2.80632132  5.69591267  0.01433526
   2.12299894  4.27302204  0.00000000
   2.12335237  5.69593607  0.00581036
   7.05344483  0.00333155  0.01398950
   7.05352764  1.42635365  0.01368187
   8.28609598  6.40752033  0.01600723
  -4.03884931  7.83070339  0.01636283
   3.35585531  6.40752662  0.01007237
   3.35598594  7.83071962  0.01319763
  -0.34145776  4.27290193  0.00722612
  -0.34137895  5.69591010  0.00946273
   3.35624236  2.13791198  0.00222492
   3.35573251  3.56155103  0.00139405
  -1.57394684  6.40758280  0.01310850
  -1.57385216  7.83068434  0.01437823
   5.82093107  2.13783916  0.01033241
   5.82114012  3.56096622  0.01155939
   0.89092245  6.40754561  0.00907111
   0.89106251  7.83067670  0.01235474
   4.58870974  4.27292622  0.00849795
   4.58852320  5.69606300  0.01149026
   9.51844972  0.00336679  0.01490402
   9.51855036  1.42644387  0.01438264
   8.28593477  2.13803408  0.01452582
   8.28612680  3.56114872  0.01463668
   7.05356221  4.27268994  0.01457444
   7.05362213  5.69588251  0.01552751
   5.82112285  6.40754723  0.01489279
   5.82101669  7.83073350  0.01578780
   7.05362858  8.54227219  0.01630582
  -5.27148792  9.96548729  0.01495127
  -2.80637951  8.54234295  0.01558431
  -2.80626749  9.96552896  0.01362126
  -0.34148805  8.54239058  0.01378498
  -0.34137657  9.96550309  0.01353576
   2.12342586  8.54231992  0.01336337
   2.12354296  9.96544135  0.01469111
   4.58845581  8.54235337  0.01505154
   4.58852904  9.96549848  0.01517076
   3.04929830  2.68153618  7.07106781
   4.02070129  2.02068374  7.13548967
   2.07766701  3.34267235  7.01161294
 


--------------------------------------------------------------------------------------------------------


 k-point   1 :   0.0000 0.0000 0.0000  plane waves:  189031

 maximum and minimum number of plane-waves per node :    189031   189031

 maximum number of plane-waves:    189031
 maximum index in each direction: 
   IXMAX=   31   IYMAX=   31   IZMAX=   51
   IXMIN=  -31   IYMIN=  -31   IZMIN=  -51


 serial   3D FFT for wavefunctions
 parallel 3D FFT for charge:
    minimum data exchange during FFTs selected (reduces bandwidth)


 total amount of memory used by VASP MPI-rank0   556209. kBytes
=======================================================================

   base      :      30000. kBytes
   nonl-proj :     184518. kBytes
   fftplans  :      31725. kBytes
   grid      :     282516. kBytes
   one-center:        162. kBytes
   wavefun   :      27288. kBytes
 
     INWAV:  cpu time    0.0000: real time    0.0000
 Broyden mixing: mesh for mixing (old mesh)
   NGX = 63   NGY = 63   NGZ =103
  (NGX  =256   NGY  =256   NGZ  =420)
  gives a total of 408807 points

 initial charge density was supplied:
 charge density of overlapping atoms calculated
 number of electron     216.0000000 magnetization 
 keeping initial charge density in first step


--------------------------------------------------------------------------------------------------------


 Maximum index for augmentation-charges          459 (set IRDMAX)


--------------------------------------------------------------------------------------------------------


 First call to EWALD:  gamma=   0.128
 Maximum number of real-space cells 3x 3x 2
 Maximum number of reciprocal cells 3x 3x 4

    FEWALD:  cpu time    0.0022: real time    0.0023


--------------------------------------- Iteration      1(   1)  ---------------------------------------


    POTLOK:  cpu time    6.2238: real time    6.2719
    SETDIJ:  cpu time    0.1912: real time    0.1921
    TRIAL :  cpu time   21.7819: real time   21.9849
    CORREC:  cpu time    0.0005: real time    0.0005
    --------------------------------------------
      LOOP:  cpu time   28.2106: real time   28.4651

 eigenvalue-minimisations  :   336
 total energy-change (2. order) : 0.2399972E+04  (-0.1180263E+05)
 number of electron     216.0000000 magnetization 
 augmentation part      216.0000000 magnetization 

 Free energy of the ion-electron system (eV)
  ---------------------------------------------------
  alpha Z        PSCENC =        59.93625244
  Ewald energy   TEWEN  =     30159.98826637
  -Hartree energ DENC   =    -36335.44209258
  -exchange      EXHF   =         0.00000000
  -V(xc)+E(xc)   XCENC  =       604.26193782
  PAW double counting   =      6339.73130699    -6197.22120962
  entropy T*S    EENTRO =        -0.00002293
  eigenvalues    EBANDS =      -600.80628232
  atomic energy  EATOM  =      8369.52358910
  ---------------------------------------------------
  free energy    TOTEN  =      2399.97174527 eV

  energy without entropy =     2399.97176820  energy(sigma->0) =     2399.97175674


--------------------------------------------------------------------------------------------------------




--------------------------------------- Iteration      1(   2)  ---------------------------------------


    TRIAL :  cpu time   30.9677: real time   31.2166
    CORREC:  cpu time    0.0001: real time    0.0001
    --------------------------------------------
      LOOP:  cpu time   31.0144: real time   31.2693

 eigenvalue-minimisations  :   560
 total energy-change (2. order) :-0.2428354E+04  (-0.2298540E+04)
 number of electron     216.0000000 magnetization 
 augmentation part      216.0000000 magnetization 

 Free energy of the ion-electron system (eV)
  ---------------------------------------------------
  alpha Z        PSCENC =        59.93625244
  Ewald energy   TEWEN  =     30159.98826637
  -Hartree energ DENC   =    -36335.44209258
  -exchange      EXHF   =         0.00000000
  -V(xc)+E(xc)   XCENC  =       604.26193782
  PAW double counting   =      6339.73130699    -6197.22120962
  entropy T*S    EENTRO =        -0.00000000
  eigenvalues    EBANDS =     -3029.16011491
  atomic energy  EATOM  =      8369.52358910
  ---------------------------------------------------
  free energy    TOTEN  =       -28.38206439 eV

  energy without entropy =      -28.38206439  energy(sigma->0) =      -28.38206439


--------------------------------------------------------------------------------------------------------




--------------------------------------- Iteration      1(   3)  ---------------------------------------


    TRIAL :  cpu time   24.0211: real time   24.2192
    CORREC:  cpu time    0.0001: real time    0.0001
    --------------------------------------------
      LOOP:  cpu time   24.0411: real time   24.2489

 eigenvalue-minimisations  :   392
 total energy-change (2. order) :-0.5598358E+03  (-0.5569849E+03)
 number of electron     216.0000000 magnetization 
 augmentation part      216.0000000 magnetization 

 Free energy of the ion-electron system (eV)
  ---------------------------------------------------
  alpha Z        PSCENC =        59.93625244
  Ewald energy   TEWEN  =     30159.98826637
  -Hartree energ DENC   =    -36335.44209258
  -exchange      EXHF   =         0.00000000
  -V(xc)+E(xc)   XCENC  =       604.26193782
  PAW double counting   =      6339.73130699    -6197.22120962
  entropy T*S    EENTRO =        -0.00000000
  eigenvalues    EBANDS =     -3588.99588632
  atomic energy  EATOM  =      8369.52358910
  ---------------------------------------------------
  free energy    TOTEN  =      -588.21783580 eV

  energy without entropy =     -588.21783580  energy(sigma->0) =     -588.21783580


--------------------------------------------------------------------------------------------------------




--------------------------------------- Iteration      1(   4)  ---------------------------------------


    TRIAL :  cpu time   26.2579: real time   26.5338
    CORREC:  cpu time    0.0001: real time    0.0001
    --------------------------------------------
      LOOP:  cpu time   26.2783: real time   26.5614

 eigenvalue-minimisations  :   448
 total energy-change (2. order) :-0.2616334E+02  (-0.2599684E+02)
 number of electron     216.0000000 magnetization 
 augmentation part      216.0000000 magnetization 

 Free energy of the ion-electron system (eV)
  ---------------------------------------------------
  alpha Z        PSCENC =        59.93625244
  Ewald energy   TEWEN  =     30159.98826637
  -Hartree energ DENC   =    -36335.44209258
  -exchange      EXHF   =         0.00000000
  -V(xc)+E(xc)   XCENC  =       604.26193782
  PAW double counting   =      6339.73130699    -6197.22120962
  entropy T*S    EENTRO =        -0.00000000
  eigenvalues    EBANDS =     -3615.15923110
  atomic energy  EATOM  =      8369.52358910
  ---------------------------------------------------
  free energy    TOTEN  =      -614.38118057 eV

  energy without entropy =     -614.38118057  energy(sigma->0) =     -614.38118057


--------------------------------------------------------------------------------------------------------




--------------------------------------- Iteration      1(   5)  ---------------------------------------


    TRIAL :  cpu time   21.7119: real time   21.9307
    CORREC:  cpu time    0.0001: real time    0.0003
    CHARGE:  cpu time    2.2863: real time    2.3081
    --------------------------------------------
      LOOP:  cpu time   24.0214: real time   24.2872

 eigenvalue-minimisations  :   336
 total energy-change (2. order) :-0.9288082E+00  (-0.9281701E+00)
 number of electron     216.0000000 magnetization 
 augmentation part       -0.4305593 magnetization 

 Free energy of the ion-electron system (eV)
  ---------------------------------------------------
  alpha Z        PSCENC =        59.93625244
  Ewald energy   TEWEN  =     30159.98826637
  -Hartree energ DENC   =    -36335.44209258
  -exchange      EXHF   =         0.00000000
  -V(xc)+E(xc)   XCENC  =       604.26193782
  PAW double counting   =      6339.73130699    -6197.22120962
  entropy T*S    EENTRO =        -0.00000000
  eigenvalues    EBANDS =     -3616.08803931
  atomic energy  EATOM  =      8369.52358910
  ---------------------------------------------------
  free energy    TOTEN  =      -615.30998878 eV

  energy without entropy =     -615.30998878  energy(sigma->0) =     -615.30998878


--------------------------------------------------------------------------------------------------------




--------------------------------------- Iteration      1(   6)  ---------------------------------------


    POTLOK:  cpu time    6.1393: real time    6.1821
    SETDIJ:  cpu time    0.2096: real time    0.2103
    TRIAL :  cpu time   15.4727: real time   15.6301
    CORREC:  cpu time   11.7419: real time   11.8435
    CHARGE:  cpu time    2.2860: real time    2.3026
    --------------------------------------------
      LOOP:  cpu time   35.9063: real time   36.2286

 eigenvalue-minimisations  :     0
 total energy-change (2. order) : 0.1039435E+03  (-0.1201394E+02)
 number of electron     216.0000000 magnetization 
 augmentation part       -0.4920300 magnetization 

 Free energy of the ion-electron system (eV)
  ---------------------------------------------------
  alpha Z        PSCENC =        59.93625244
  Ewald energy   TEWEN  =     30159.98826637
  -Hartree energ DENC   =    -37663.56493436
  -exchange      EXHF   =         0.00000000
  -V(xc)+E(xc)   XCENC  =       671.04347277
  PAW double counting   =    113852.71902199  -113715.93474602
  entropy T*S    EENTRO =        -0.00000000
  eigenvalues    EBANDS =     -2245.07745168
  atomic energy  EATOM  =      8369.52358910
  ---------------------------------------------------
  free energy    TOTEN  =      -511.36652939 eV

  energy without entropy =     -511.36652939  energy(sigma->0) =     -511.36652939


--------------------------------------------------------------------------------------------------------




--------------------------------------- Iteration      1(   7)  ---------------------------------------


    POTLOK:  cpu time    6.1344: real time    6.1770
    SETDIJ:  cpu time    0.1883: real time    0.1889
    TRIAL :  cpu time   15.4870: real time   15.6250
    CORREC:  cpu time   11.7354: real time   11.8457
    CHARGE:  cpu time    2.2794: real time    2.2955
    --------------------------------------------
      LOOP:  cpu time   35.8669: real time   36.1955

 eigenvalue-minimisations  :     0
 total energy-change (2. order) :-0.1202827E+02  (-0.1594373E+01)
 number of electron     216.0000000 magnetization 
 augmentation part       -0.5229915 magnetization 

 Free energy of the ion-electron system (eV)
  ---------------------------------------------------
  alpha Z        PSCENC =        59.93625244
  Ewald energy   TEWEN  =     30159.98826637
  -Hartree energ DENC   =    -37246.91353800
  -exchange      EXHF   =         0.00000000
  -V(xc)+E(xc)   XCENC  =       651.26027077
  PAW double counting   =    132016.27863699  -131876.75274180
  entropy T*S    EENTRO =        -0.00000000
  eigenvalues    EBANDS =     -2656.71553937
  atomic energy  EATOM  =      8369.52358910
  ---------------------------------------------------
  free energy    TOTEN  =      -523.39480350 eV

  energy without entropy =     -523.39480350  energy(sigma->0) =     -523.39480350


--------------------------------------------------------------------------------------------------------




--------------------------------------- Iteration      1(   8)  ---------------------------------------


    POTLOK:  cpu time    6.1279: real time    6.1709
    SETDIJ:  cpu time    0.1986: real time    0.1992
    TRIAL :  cpu time   15.4837: real time   15.6207
    CORREC:  cpu time   11.7343: real time   11.8310
    CHARGE:  cpu time    2.2701: real time    2.2914
    --------------------------------------------
      LOOP:  cpu time   35.8659: real time   36.1682

 eigenvalue-minimisations  :     0
 total energy-change (2. order) :-0.1594217E+01  (-0.5327283E+00)
 number of electron     216.0000000 magnetization 
 augmentation part       -0.5208576 magnetization 

 Free energy of the ion-electron system (eV)
  ---------------------------------------------------
  alpha Z        PSCENC =        59.93625244
  Ewald energy   TEWEN  =     30159.98826637
  -Hartree energ DENC   =    -37215.59912406
  -exchange      EXHF   =         0.00000000
  -V(xc)+E(xc)   XCENC  =       649.61937605
  PAW double counting   =    140037.18013461  -139897.16899810
  entropy T*S    EENTRO =        -0.00000000
  eigenvalues    EBANDS =     -2688.46851686
  atomic energy  EATOM  =      8369.52358910
  ---------------------------------------------------
  free energy    TOTEN  =      -524.98902045 eV

  energy without entropy =     -524.98902045  energy(sigma->0) =     -524.98902045


--------------------------------------------------------------------------------------------------------




--------------------------------------- Iteration      1(   9)  ---------------------------------------


    POTLOK:  cpu time    6.1255: real time    6.1692
    SETDIJ:  cpu time    0.1917: real time    0.1923
    TRIAL :  cpu time   15.4854: real time   15.6348
    CORREC:  cpu time   11.7461: real time   11.8524
    CHARGE:  cpu time    2.2807: real time    2.2971
    --------------------------------------------
      LOOP:  cpu time   35.8366: real time   36.1975

 eigenvalue-minimisations  :     0
 total energy-change (2. order) :-0.5323709E+00  (-0.2115672E+00)
 number of electron     216.0000000 magnetization 
 augmentation part       -0.5151868 magnetization 

 Free energy of the ion-electron system (eV)
  ---------------------------------------------------
  alpha Z        PSCENC =        59.93625244
  Ewald energy   TEWEN  =     30159.98826637
  -Hartree energ DENC   =    -37222.66834637
  -exchange      EXHF   =         0.00000000
  -V(xc)+E(xc)   XCENC  =       649.32783165
  PAW double counting   =    146418.59243323  -146278.37579038
  entropy T*S    EENTRO =        -0.00000000
  eigenvalues    EBANDS =     -2681.84562739
  atomic energy  EATOM  =      8369.52358910
  ---------------------------------------------------
  free energy    TOTEN  =      -525.52139135 eV

  energy without entropy =     -525.52139135  energy(sigma->0) =     -525.52139135


--------------------------------------------------------------------------------------------------------




--------------------------------------- Iteration      1(  10)  ---------------------------------------


    POTLOK:  cpu time    6.1256: real time    6.1673
    SETDIJ:  cpu time    0.2019: real time    0.2025
    TRIAL :  cpu time   15.4877: real time   15.6282
    CORREC:  cpu time   11.7734: real time   11.8639
    CHARGE:  cpu time    2.2738: real time    2.3006
    --------------------------------------------
      LOOP:  cpu time   35.9221: real time   36.2277

 eigenvalue-minimisations  :     0
 total energy-change (2. order) :-0.2112838E+00  (-0.8942377E-01)
 number of electron     216.0000000 magnetization 
 augmentation part       -0.5082552 magnetization 

 Free energy of the ion-electron system (eV)
  ---------------------------------------------------
  alpha Z        PSCENC =        59.93625244
  Ewald energy   TEWEN  =     30159.98826637
  -Hartree energ DENC   =    -37222.27254893
  -exchange      EXHF   =         0.00000000
  -V(xc)+E(xc)   XCENC  =       649.10119772
  PAW double counting   =    148904.50070465  -148764.18132498
  entropy T*S    EENTRO =        -0.00000000
  eigenvalues    EBANDS =     -2682.32881153
  atomic energy  EATOM  =      8369.52358910
  ---------------------------------------------------
  free energy    TOTEN  =      -525.73267517 eV

  energy without entropy =     -525.73267517  energy(sigma->0) =     -525.73267517


--------------------------------------------------------------------------------------------------------




--------------------------------------- Iteration      1(  11)  ---------------------------------------


    POTLOK:  cpu time    6.1330: real time    6.1711
    SETDIJ:  cpu time    0.2100: real time    0.2107
    TRIAL :  cpu time   15.4585: real time   15.6193
    CORREC:  cpu time   11.7419: real time   11.8436
    CHARGE:  cpu time    2.2749: real time    2.2937
    --------------------------------------------
      LOOP:  cpu time   35.8548: real time   36.1989

 eigenvalue-minimisations  :     0
 total energy-change (2. order) :-0.8915443E-01  (-0.3504705E-01)
 number of electron     216.0000000 magnetization 
 augmentation part       -0.5041533 magnetization 

 Free energy of the ion-electron system (eV)
  ---------------------------------------------------
  alpha Z        PSCENC =        59.93625244
  Ewald energy   TEWEN  =     30159.98826637
  -Hartree energ DENC   =    -37216.63577952
  -exchange      EXHF   =         0.00000000
  -V(xc)+E(xc)   XCENC  =       648.96803249
  PAW double counting   =    148724.92746206  -148584.60950842
  entropy T*S    EENTRO =        -0.00000000
  eigenvalues    EBANDS =     -2687.92014412
  atomic energy  EATOM  =      8369.52358910
  ---------------------------------------------------
  free energy    TOTEN  =      -525.82182960 eV

  energy without entropy =     -525.82182960  energy(sigma->0) =     -525.82182960


--------------------------------------------------------------------------------------------------------




--------------------------------------- Iteration      1(  12)  ---------------------------------------


    POTLOK:  cpu time    6.1500: real time    6.1888
    SETDIJ:  cpu time    0.1837: real time    0.1843
    TRIAL :  cpu time   15.4868: real time   15.6302
    CORREC:  cpu time   11.7383: real time   11.8454
    CHARGE:  cpu time    2.2726: real time    2.2964
    --------------------------------------------
      LOOP:  cpu time   35.8621: real time   36.1808

 eigenvalue-minimisations  :     0
 total energy-change (2. order) :-0.3496943E-01  (-0.1124785E-01)
 number of electron     216.0000000 magnetization 
 augmentation part       -0.5040931 magnetization 

 Free energy of the ion-electron system (eV)
  ---------------------------------------------------
  alpha Z        PSCENC =        59.93625244
  Ewald energy   TEWEN  =     30159.98826637
  -Hartree energ DENC   =    -37211.93036396
  -exchange      EXHF   =         0.00000000
  -V(xc)+E(xc)   XCENC  =       648.86856350
  PAW double counting   =    147967.01227118  -147826.72195881
  entropy T*S    EENTRO =        -0.00000000
  eigenvalues    EBANDS =     -2692.53341885
  atomic energy  EATOM  =      8369.52358910
  ---------------------------------------------------
  free energy    TOTEN  =      -525.85679903 eV

  energy without entropy =     -525.85679903  energy(sigma->0) =     -525.85679903


--------------------------------------------------------------------------------------------------------




--------------------------------------- Iteration      1(  13)  ---------------------------------------


    POTLOK:  cpu time    6.1488: real time    6.1958
    SETDIJ:  cpu time    0.1977: real time    0.2004
    TRIAL :  cpu time   15.4730: real time   15.6065
    CORREC:  cpu time   11.7821: real time   11.8797
    CHARGE:  cpu time    2.2817: real time    2.3030
    --------------------------------------------
      LOOP:  cpu time   35.9057: real time   36.2342

 eigenvalue-minimisations  :     0
 total energy-change (2. order) :-0.1123702E-01  (-0.3112506E-02)
 number of electron     216.0000000 magnetization 
 augmentation part       -0.5048015 magnetization 

 Free energy of the ion-electron system (eV)
  ---------------------------------------------------
  alpha Z        PSCENC =        59.93625244
  Ewald energy   TEWEN  =     30159.98826637
  -Hartree energ DENC   =    -37210.49024287
  -exchange      EXHF   =         0.00000000
  -V(xc)+E(xc)   XCENC  =       648.82164440
  PAW double counting   =    147386.33989710  -147246.06378656
  entropy T*S    EENTRO =        -0.00000000
  eigenvalues    EBANDS =     -2693.92365603
  atomic energy  EATOM  =      8369.52358910
  ---------------------------------------------------
  free energy    TOTEN  =      -525.86803605 eV

  energy without entropy =     -525.86803605  energy(sigma->0) =     -525.86803605


--------------------------------------------------------------------------------------------------------




--------------------------------------- Iteration      1(  14)  ---------------------------------------


    POTLOK:  cpu time    6.1204: real time    6.1666
    SETDIJ:  cpu time    0.1993: real time    0.2002
    TRIAL :  cpu time   15.4608: real time   15.6162
    CORREC:  cpu time   11.7555: real time   11.8648
    CHARGE:  cpu time    2.2725: real time    2.3011
    --------------------------------------------
      LOOP:  cpu time   35.8438: real time   36.2114

 eigenvalue-minimisations  :     0
 total energy-change (2. order) :-0.3116381E-02  (-0.8206912E-03)
 number of electron     216.0000000 magnetization 
 augmentation part       -0.5051098 magnetization 

 Free energy of the ion-electron system (eV)
  ---------------------------------------------------
  alpha Z        PSCENC =        59.93625244
  Ewald energy   TEWEN  =     30159.98826637
  -Hartree energ DENC   =    -37210.55812640
  -exchange      EXHF   =         0.00000000
  -V(xc)+E(xc)   XCENC  =       648.81992008
  PAW double counting   =    147123.44788671  -146983.17783418
  entropy T*S    EENTRO =        -0.00000000
  eigenvalues    EBANDS =     -2693.85110656
  atomic energy  EATOM  =      8369.52358910
  ---------------------------------------------------
  free energy    TOTEN  =      -525.87115243 eV

  energy without entropy =     -525.87115243  energy(sigma->0) =     -525.87115243


--------------------------------------------------------------------------------------------------------




--------------------------------------- Iteration      1(  15)  ---------------------------------------


    POTLOK:  cpu time    6.1314: real time    6.1731
    SETDIJ:  cpu time    0.1972: real time    0.1979
    TRIAL :  cpu time   15.4868: real time   15.6111
    CORREC:  cpu time   11.7630: real time   11.8768
    CHARGE:  cpu time    2.2745: real time    2.2932
    --------------------------------------------
      LOOP:  cpu time   35.8913: real time   36.1931

 eigenvalue-minimisations  :     0
 total energy-change (2. order) :-0.8269449E-03  (-0.2380777E-03)
 number of electron     216.0000000 magnetization 
 augmentation part       -0.5052651 magnetization 

 Free energy of the ion-electron system (eV)
  ---------------------------------------------------
  alpha Z        PSCENC =        59.93625244
  Ewald energy   TEWEN  =     30159.98826637
  -Hartree energ DENC   =    -37210.49147346
  -exchange      EXHF   =         0.00000000
  -V(xc)+E(xc)   XCENC  =       648.82170273
  PAW double counting   =    147023.51042335  -146883.24294658
  entropy T*S    EENTRO =        -0.00000000
  eigenvalues    EBANDS =     -2693.91779332
  atomic energy  EATOM  =      8369.52358910
  ---------------------------------------------------
  free energy    TOTEN  =      -525.87197938 eV

  energy without entropy =     -525.87197938  energy(sigma->0) =     -525.87197938


--------------------------------------------------------------------------------------------------------




--------------------------------------- Iteration      1(  16)  ---------------------------------------


    POTLOK:  cpu time    6.1418: real time    6.1786
    SETDIJ:  cpu time    0.1976: real time    0.1982
    TRIAL :  cpu time   15.4788: real time   15.6169
    CORREC:  cpu time   11.8716: real time   11.9522
    CHARGE:  cpu time    2.2821: real time    2.2987
    --------------------------------------------
      LOOP:  cpu time   36.0107: real time   36.2845

 eigenvalue-minimisations  :     0
 total energy-change (2. order) :-0.2413151E-03  (-0.9650662E-04)
 number of electron     216.0000000 magnetization 
 augmentation part       -0.5053412 magnetization 

 Free energy of the ion-electron system (eV)
  ---------------------------------------------------
  alpha Z        PSCENC =        59.93625244
  Ewald energy   TEWEN  =     30159.98826637
  -Hartree energ DENC   =    -37210.41204188
  -exchange      EXHF   =         0.00000000
  -V(xc)+E(xc)   XCENC  =       648.82118445
  PAW double counting   =    146964.07835912  -146823.81148343
  entropy T*S    EENTRO =        -0.00000000
  eigenvalues    EBANDS =     -2693.99634686
  atomic energy  EATOM  =      8369.52358910
  ---------------------------------------------------
  free energy    TOTEN  =      -525.87222069 eV

  energy without entropy =     -525.87222069  energy(sigma->0) =     -525.87222069


--------------------------------------------------------------------------------------------------------




--------------------------------------- Iteration      1(  17)  ---------------------------------------


    POTLOK:  cpu time    6.1483: real time    6.1928
    SETDIJ:  cpu time    0.1873: real time    0.1882
    TRIAL :  cpu time   15.4661: real time   15.6165
    CORREC:  cpu time   11.7560: real time   11.8591
    CHARGE:  cpu time    2.2791: real time    2.2983
    --------------------------------------------
      LOOP:  cpu time   35.8685: real time   36.1895

 eigenvalue-minimisations  :     0
 total energy-change (2. order) :-0.9361218E-04  (-0.4410423E-04)
 number of electron     216.0000000 magnetization 
 augmentation part       -0.5053822 magnetization 

 Free energy of the ion-electron system (eV)
  ---------------------------------------------------
  alpha Z        PSCENC =        59.93625244
  Ewald energy   TEWEN  =     30159.98826637
  -Hartree energ DENC   =    -37210.56238706
  -exchange      EXHF   =         0.00000000
  -V(xc)+E(xc)   XCENC  =       648.82949093
  PAW double counting   =    146915.47782630  -146775.21172474
  entropy T*S    EENTRO =        -0.00000000
  eigenvalues    EBANDS =     -2693.85362764
  atomic energy  EATOM  =      8369.52358910
  ---------------------------------------------------
  free energy    TOTEN  =      -525.87231430 eV

  energy without entropy =     -525.87231430  energy(sigma->0) =     -525.87231430


--------------------------------------------------------------------------------------------------------




--------------------------------------- Iteration      1(  18)  ---------------------------------------


    POTLOK:  cpu time    6.1365: real time    6.1827
    SETDIJ:  cpu time    0.2095: real time    0.2101
    TRIAL :  cpu time   15.4549: real time   15.6172
    CORREC:  cpu time   11.7308: real time   11.8251
    CHARGE:  cpu time    2.2929: real time    2.3118
    --------------------------------------------
      LOOP:  cpu time   35.8438: real time   36.1918

 eigenvalue-minimisations  :     0
 total energy-change (2. order) :-0.4182092E-04  (-0.1730503E-04)
 number of electron     216.0000000 magnetization 
 augmentation part       -0.5054248 magnetization 

 Free energy of the ion-electron system (eV)
  ---------------------------------------------------
  alpha Z        PSCENC =        59.93625244
  Ewald energy   TEWEN  =     30159.98826637
  -Hartree energ DENC   =    -37210.66883280
  -exchange      EXHF   =         0.00000000
  -V(xc)+E(xc)   XCENC  =       648.83445397
  PAW double counting   =    146896.05943379  -146755.79325393
  entropy T*S    EENTRO =        -0.00000000
  eigenvalues    EBANDS =     -2693.75226508
  atomic energy  EATOM  =      8369.52358910
  ---------------------------------------------------
  free energy    TOTEN  =      -525.87235613 eV

  energy without entropy =     -525.87235613  energy(sigma->0) =     -525.87235613


--------------------------------------------------------------------------------------------------------




--------------------------------------- Iteration      1(  19)  ---------------------------------------


    POTLOK:  cpu time    6.1449: real time    6.1830
    SETDIJ:  cpu time    0.2081: real time    0.2088
    TRIAL :  cpu time   15.4970: real time   15.6248
    CORREC:  cpu time   11.7705: real time   11.8518
    CHARGE:  cpu time    2.2762: real time    2.3060
    --------------------------------------------
      LOOP:  cpu time   35.9591: real time   36.2405

 eigenvalue-minimisations  :     0
 total energy-change (2. order) :-0.1721096E-04  (-0.1182857E-04)
 number of electron     216.0000000 magnetization 
 augmentation part       -0.5054331 magnetization 

 Free energy of the ion-electron system (eV)
  ---------------------------------------------------
  alpha Z        PSCENC =        59.93625244
  Ewald energy   TEWEN  =     30159.98826637
  -Hartree energ DENC   =    -37210.66139210
  -exchange      EXHF   =         0.00000000
  -V(xc)+E(xc)   XCENC  =       648.83317046
  PAW double counting   =    146904.66461618  -146764.39769736
  entropy T*S    EENTRO =        -0.00000000
  eigenvalues    EBANDS =     -2693.75917842
  atomic energy  EATOM  =      8369.52358910
  ---------------------------------------------------
  free energy    TOTEN  =      -525.87237334 eV

  energy without entropy =     -525.87237334  energy(sigma->0) =     -525.87237334


--------------------------------------------------------------------------------------------------------




--------------------------------------- Iteration      1(  20)  ---------------------------------------


    POTLOK:  cpu time    6.1366: real time    6.1960
    SETDIJ:  cpu time    0.1714: real time    0.1719
    TRIAL :  cpu time   15.4768: real time   15.6215
    CORREC:  cpu time   11.7559: real time   11.8498
    CHARGE:  cpu time    2.2798: real time    2.2956
    --------------------------------------------
      LOOP:  cpu time   35.8814: real time   36.1996

 eigenvalue-minimisations  :     0
 total energy-change (2. order) :-0.7225259E-05  (-0.4259126E-05)
 number of electron     216.0000000 magnetization 
 augmentation part       -0.5054309 magnetization 

 Free energy of the ion-electron system (eV)
  ---------------------------------------------------
  alpha Z        PSCENC =        59.93625244
  Ewald energy   TEWEN  =     30159.98826637
  -Hartree energ DENC   =    -37210.70128431
  -exchange      EXHF   =         0.00000000
  -V(xc)+E(xc)   XCENC  =       648.83420877
  PAW double counting   =    146926.72590175  -146786.45872989
  entropy T*S    EENTRO =        -0.00000000
  eigenvalues    EBANDS =     -2693.72058479
  atomic energy  EATOM  =      8369.52358910
  ---------------------------------------------------
  free energy    TOTEN  =      -525.87238056 eV

  energy without entropy =     -525.87238056  energy(sigma->0) =     -525.87238056


--------------------------------------------------------------------------------------------------------




--------------------------------------- Iteration      1(  21)  ---------------------------------------


    POTLOK:  cpu time    6.1286: real time    6.1795
    SETDIJ:  cpu time    0.2074: real time    0.2085
    TRIAL :  cpu time   15.4445: real time   15.6209
    CORREC:  cpu time   11.7183: real time   11.8481
    CHARGE:  cpu time    2.2851: real time    2.3024
    --------------------------------------------
      LOOP:  cpu time   35.8283: real time   36.2086

 eigenvalue-minimisations  :     0
 total energy-change (2. order) :-0.4046189E-05  (-0.7490783E-06)
 number of electron     216.0000000 magnetization 
 augmentation part       -0.5054186 magnetization 

 Free energy of the ion-electron system (eV)
  ---------------------------------------------------
  alpha Z        PSCENC =        59.93625244
  Ewald energy   TEWEN  =     30159.98826637
  -Hartree energ DENC   =    -37210.68160915
  -exchange      EXHF   =         0.00000000
  -V(xc)+E(xc)   XCENC  =       648.83302982
  PAW double counting   =    146926.39732582  -146786.13011345
  entropy T*S    EENTRO =        -0.00000000
  eigenvalues    EBANDS =     -2693.73912556
  atomic energy  EATOM  =      8369.52358910
  ---------------------------------------------------
  free energy    TOTEN  =      -525.87238461 eV

  energy without entropy =     -525.87238461  energy(sigma->0) =     -525.87238461


--------------------------------------------------------------------------------------------------------




--------------------------------------- Iteration      1(  22)  ---------------------------------------


    POTLOK:  cpu time    6.1488: real time    6.1936
    SETDIJ:  cpu time    0.1933: real time    0.1940
    TRIAL :  cpu time   15.4854: real time   15.6278
    CORREC:  cpu time   11.7457: real time   11.8555
    CHARGE:  cpu time    2.2857: real time    2.3020
    --------------------------------------------
      LOOP:  cpu time   35.8986: real time   36.2183

 eigenvalue-minimisations  :     0
 total energy-change (2. order) :-0.7118797E-06  (-0.2469335E-06)
 number of electron     216.0000000 magnetization 
 augmentation part       -0.5054106 magnetization 

 Free energy of the ion-electron system (eV)
  ---------------------------------------------------
  alpha Z        PSCENC =        59.93625244
  Ewald energy   TEWEN  =     30159.98826637
  -Hartree energ DENC   =    -37210.67954592
  -exchange      EXHF   =         0.00000000
  -V(xc)+E(xc)   XCENC  =       648.83301991
  PAW double counting   =    146926.33929057  -146786.07218971
  entropy T*S    EENTRO =        -0.00000000
  eigenvalues    EBANDS =     -2693.74106808
  atomic energy  EATOM  =      8369.52358910
  ---------------------------------------------------
  free energy    TOTEN  =      -525.87238532 eV

  energy without entropy =     -525.87238532  energy(sigma->0) =     -525.87238532


--------------------------------------------------------------------------------------------------------




--------------------------------------- Iteration      1(  23)  ---------------------------------------


    POTLOK:  cpu time    6.1532: real time    6.1922
    SETDIJ:  cpu time    0.1907: real time    0.1913
    TRIAL :  cpu time   15.4814: real time   15.6242
    CORREC:  cpu time   11.7795: real time   11.8670
    CHARGE:  cpu time    2.2742: real time    2.2935
    --------------------------------------------
      LOOP:  cpu time   35.9130: real time   36.2153

 eigenvalue-minimisations  :     0
 total energy-change (2. order) :-0.1740700E-06  (-0.6435139E-07)
 number of electron     216.0000000 magnetization 
 augmentation part       -0.5054095 magnetization 

 Free energy of the ion-electron system (eV)
  ---------------------------------------------------
  alpha Z        PSCENC =        59.93625244
  Ewald energy   TEWEN  =     30159.98826637
  -Hartree energ DENC   =    -37210.67696371
  -exchange      EXHF   =         0.00000000
  -V(xc)+E(xc)   XCENC  =       648.83296102
  PAW double counting   =    146926.65511887  -146786.38808513
  entropy T*S    EENTRO =        -0.00000000
  eigenvalues    EBANDS =     -2693.74352445
  atomic energy  EATOM  =      8369.52358910
  ---------------------------------------------------
  free energy    TOTEN  =      -525.87238549 eV

  energy without entropy =     -525.87238549  energy(sigma->0) =     -525.87238549


--------------------------------------------------------------------------------------------------------




--------------------------------------- Iteration      1(  24)  ---------------------------------------


    POTLOK:  cpu time    6.1469: real time    6.1840
    SETDIJ:  cpu time    0.2029: real time    0.2035
    TRIAL :  cpu time   15.4674: real time   15.6187
    CORREC:  cpu time   11.7766: real time   11.8622
    EDDIAG:  cpu time    3.2009: real time    3.2253
    CHARGE:  cpu time    2.2783: real time    2.2968
    --------------------------------------------
      LOOP:  cpu time   39.1056: real time   39.4333

 eigenvalue-minimisations  :     0
 total energy-change (2. order) :-0.4976755E-08  (-0.4437920E-07)
 number of electron     216.0000000 magnetization 
 augmentation part       -0.5054081 magnetization 

 Free energy of the ion-electron system (eV)
  ---------------------------------------------------
  alpha Z        PSCENC =        59.93625244
  Ewald energy   TEWEN  =     30159.98826637
  -Hartree energ DENC   =    -37210.67463377
  -exchange      EXHF   =         0.00000000
  -V(xc)+E(xc)   XCENC  =       648.83285232
  PAW double counting   =    146926.98461912  -146786.71758793
  entropy T*S    EENTRO =        -0.00000000
  eigenvalues    EBANDS =     -2693.74574315
  atomic energy  EATOM  =      8369.52358910
  ---------------------------------------------------
  free energy    TOTEN  =      -525.87238550 eV

  energy without entropy =     -525.87238550  energy(sigma->0) =     -525.87238550


--------------------------------------------------------------------------------------------------------


  average scaling for gradient   1.0436


 average (electrostatic) potential at core
  the test charge radii are     0.5770  0.5955
  (the norm of the test charge is              1.0000)
       1 -87.7258       2 -87.7239       3 -87.7258       4 -87.7252       5 -87.7212
       6 -87.7196       7 -87.7241       8 -87.7204       9 -87.7216      10 -87.7228
      11 -87.7185      12 -87.7197      13 -87.7220      14 -87.7180      15 -87.7183
      16 -87.7211      17 -87.7218      18 -87.7244      19 -87.7222      20 -87.7209
      21 -87.7207      22 -87.7169      23 -87.7236      24 -87.7222      25 -87.7205
      26 -87.7199      27 -87.7182      28 -87.7227      29 -87.7213      30 -87.7171
      31 -87.7205      32 -87.7213      33 -87.7214      34 -87.7215      35 -87.7174
      36 -87.7210      37 -87.7184      38 -87.7228      39 -87.7225      40 -87.7245
      41 -87.7255      42 -87.7261      43 -87.7234      44 -87.7245      45 -87.7204
      46 -87.7199      47 -87.7207      48 -87.7198      49 -87.7241      50 -87.7241
      51 -91.7834      52-123.9121      53-123.9139
 
 
 
 E-fermi :  -4.0762     XC(G=0):  -2.3705     alpha+bet : -2.1113

 Fermi energy:        -4.0762043623

 k-point     1 :       0.0000    0.0000    0.0000
  band No.  band energies     occupation 
      1     -28.8450      2.00000
      2     -27.8184      2.00000
      3     -23.2318      2.00000
      4     -22.2461      2.00000
      5     -22.2455      2.00000
      6     -22.2451      2.00000
      7     -22.2445      2.00000
      8     -22.2441      2.00000
      9     -22.2438      2.00000
     10     -20.3134      2.00000
     11     -20.3133      2.00000
     12     -20.3130      2.00000
     13     -20.3123      2.00000
     14     -20.3118      2.00000
     15     -20.3117      2.00000
     16     -19.3778      2.00000
     17     -19.3776      2.00000
     18     -19.3770      2.00000
     19     -19.3769      2.00000
     20     -19.3761      2.00000
     21     -19.3758      2.00000
     22     -17.1563      2.00000
     23     -17.1559      2.00000
     24     -17.1554      2.00000
     25     -17.1550      2.00000
     26     -17.1541      2.00000
     27     -17.1540      2.00000
     28     -15.9980      2.00000
     29     -15.9980      2.00000
     30     -15.9969      2.00000
     31     -15.9968      2.00000
     32     -15.9963      2.00000
     33     -15.9961      2.00000
     34     -14.6050      2.00000
     35     -14.6049      2.00000
     36     -14.6042      2.00000
     37     -14.6039      2.00000
     38     -14.6037      2.00000
     39     -14.6033      2.00000
     40     -12.7976      2.00000
     41     -12.1458      2.00000
     42     -12.1455      2.00000
     43     -12.1451      2.00000
     44     -12.1450      2.00000
     45     -12.1438      2.00000
     46     -12.1435      2.00000
     47     -11.9283      2.00000
     48     -11.9283      2.00000
     49     -11.9272      2.00000
     50     -11.9270      2.00000
     51     -11.9264      2.00000
     52     -11.9263      2.00000
     53     -11.5202      2.00000
     54     -11.2658      2.00000
     55     -11.2638      2.00000
     56     -10.5972      2.00000
     57     -10.4823      2.00000
     58     -10.4821      2.00000
     59     -10.4804      2.00000
     60     -10.4801      2.00000
     61     -10.4800      2.00000
     62     -10.4798      2.00000
     63      -9.4238      2.00000
     64      -9.4235      2.00000
     65      -9.4233      2.00000
     66      -9.4223      2.00000
     67      -9.4220      2.00000
     68      -9.4219      2.00000
     69      -9.1809      2.00000
     70      -9.1807      2.00000
     71      -9.1805      2.00000
     72      -9.1798      2.00000
     73      -9.1794      2.00000
     74      -9.1789      2.00000
     75      -9.1787      2.00000
     76      -9.1779      2.00000
     77      -9.1775      2.00000
     78      -9.1772      2.00000
     79      -9.1771      2.00000
     80      -9.1767      2.00000
     81      -7.6707      2.00000
     82      -7.6672      2.00000
     83      -7.4746      2.00000
     84      -7.4731      2.00000
     85      -7.4727      2.00000
     86      -7.4722      2.00000
     87      -7.4700      2.00000
     88      -7.4693      2.00000
     89      -7.1812      2.00000
     90      -7.1808      2.00000
     91      -7.1806      2.00000
     92      -7.1803      2.00000
     93      -7.1800      2.00000
     94      -7.1797      2.00000
     95      -6.2361      2.00000
     96      -6.2357      2.00000
     97      -6.2354      2.00000
     98      -6.2349      2.00000
     99      -6.2346      2.00000
    100      -6.2344      2.00000
    101      -5.9566      2.00000
    102      -5.9543      2.00000
    103      -4.1373      2.00000
    104      -4.1369      2.00000
    105      -4.1362      2.00000
    106      -4.1361      2.00000
    107      -4.1355      2.00000
    108      -4.1354      2.00000
    109      -1.1620      0.00000
    110      -1.1618      0.00000
    111      -1.1616      0.00000
    112      -1.1614      0.00000
    113      -1.1606      0.00000
    114      -1.1603      0.00000
    115       0.8166      0.00000
    116       0.8171      0.00000
    117       0.8175      0.00000
    118       0.8179      0.00000
    119       0.8180      0.00000
    120       0.8199      0.00000
    121       0.9284      0.00000
    122       1.3361      0.00000
    123       1.6084      0.00000
    124       1.6103      0.00000
    125       1.8116      0.00000
    126       2.1865      0.00000
    127       2.2505      0.00000
    128       2.2664      0.00000
    129       2.2791      0.00000
    130       2.2839      0.00000
    131       2.2869      0.00000
    132       2.4394      0.00000
    133       2.6976      0.00000
    134       2.6978      0.00000
    135       2.6982      0.00000
    136       2.6986      0.00000
    137       2.6988      0.00000
    138       2.6993      0.00000
    139       2.9575      0.00000
    140       2.9654      0.00000
    141       3.0423      0.00000
    142       3.0678      0.00000
    143       3.0721      0.00000
    144       3.0793      0.00000
    145       3.0922      0.00000
    146       3.1416      0.00000
    147       3.2348      0.00000
    148       3.2709      0.00000
    149       3.2873      0.00000
    150       3.3004      0.00000
    151       3.3122      0.00000
    152       4.4765      0.00000
    153       4.5719      0.00000
    154       4.7040      0.00000
    155       4.8083      0.00000
    156       4.8221      0.00000
    157       5.0677      0.00000
    158       5.2814      0.00000
    159       5.2949      0.00000
    160       5.2953      0.00000
    161       5.3012      0.00000
    162       5.3024      0.00000
    163       5.3029      0.00000
    164       5.3030      0.00000
    165       5.3998      0.00000
    166       5.4465      0.00000
    167       5.4879      0.00000
    168       5.5384      0.00000


--------------------------------------------------------------------------------------------------------


 soft charge-density along one line, spin component           1
         0         1         2         3         4         5         6         7         8         9
 total charge-density along one line
 
 pseudopotential strength for first ion, spin component:           1
 12.630  21.251  -0.000   0.000   0.000  -0.000   0.000   0.000
 21.251  35.754  -0.000   0.000   0.000  -0.000   0.000   0.000
 -0.000  -0.000  -3.234   0.000   0.000  -5.794   0.000   0.000
  0.000   0.000   0.000  -3.238   0.000   0.000  -5.800   0.000
  0.000   0.000   0.000   0.000  -3.234   0.000   0.000  -5.794
 -0.000  -0.000  -5.794   0.000   0.000 -10.358   0.000   0.000
  0.000   0.000   0.000  -5.800   0.000   0.000 -10.368   0.000
  0.000   0.000   0.000   0.000  -5.794   0.000   0.000 -10.358
 total augmentation occupancy for first ion, spin component:           1
  9.643  -3.599   0.000  -0.002  -0.001  -0.000   0.001   0.000
 -3.599   1.374  -0.000   0.001   0.000   0.000  -0.000  -0.000
  0.000  -0.000   8.197  -0.009   0.001  -2.896   0.004  -0.000
 -0.002   0.001  -0.009   3.783  -0.000   0.004  -1.107   0.000
 -0.001   0.000   0.001  -0.000   8.196  -0.000   0.000  -2.895
 -0.000   0.000  -2.896   0.004  -0.000   1.036  -0.001   0.000
  0.001  -0.000   0.004  -1.107   0.000  -0.001   0.329  -0.000
  0.000  -0.000  -0.000   0.000  -2.895   0.000  -0.000   1.035


------------------------ aborting loop because EDIFF is reached ----------------------------------------


    FORLOC:  cpu time    0.1030: real time    0.1037
    FORNL :  cpu time    2.9108: real time    2.9334
    FORCOR:  cpu time    6.1709: real time    6.2212
    OFIELD:  cpu time    0.0024: real time    0.0025

 VOLUME and BASIS-vectors are now :
 -----------------------------------------------------------------------------
  energy-cutoff  :     1000.00
  volume of cell :     2631.08
      direct lattice vectors                 reciprocal lattice vectors
    12.325000000  0.000000000  0.000000000     0.081135903  0.046843835  0.000000000
    -6.162500000 10.673763102  0.000000000     0.000000000  0.093687670  0.000000000
     0.000000000  0.000000000 20.000000000     0.000000000  0.000000000  0.050000000

  length of vectors
    12.325000000 12.325000000 20.000000000     0.093687670  0.093687670  0.050000000


 FORCES acting on ions:
    Electron-Ion                     Ewald-Force                    Non-Local-Force
 -----------------------------------------------------------------------------------------------
   0.143E+01 0.124E+01 0.119E+02   -.143E+01 -.124E+01 -.119E+02   -.347E-02 0.548E-02 0.619E-02
   0.199E+01 0.999E+00 0.133E+02   -.199E+01 -.101E+01 -.133E+02   -.311E-02 0.114E-01 -.578E-02
   0.799E+00 0.219E+01 0.138E+02   -.808E+00 -.220E+01 -.138E+02   0.944E-02 0.181E-01 -.166E-02
   0.101E+01 0.146E+01 0.168E+02   -.102E+01 -.147E+01 -.168E+02   0.191E-01 0.146E-01 -.151E-01
   0.155E+01 0.371E+00 0.123E+02   -.154E+01 -.381E+00 -.123E+02   -.115E-01 0.840E-02 0.513E-02
   0.157E+01 -.346E+00 0.125E+02   -.157E+01 0.340E+00 -.125E+02   -.108E-01 0.141E-01 -.218E-02
   0.196E+01 0.749E+00 0.165E+02   -.197E+01 -.759E+00 -.165E+02   0.134E-01 -.398E-02 -.416E-02
   0.195E+01 -.680E+00 0.177E+02   -.195E+01 0.674E+00 -.176E+02   -.541E-02 0.743E-02 -.348E-02
   -.991E+00 0.204E+01 0.141E+02   0.984E+00 -.205E+01 -.141E+02   0.165E-01 -.771E-02 -.400E-02
   -.136E+01 0.114E+01 0.169E+02   0.135E+01 -.115E+01 -.169E+02   -.144E-01 0.239E-01 0.608E-02
   0.408E+00 -.422E+00 0.112E+02   -.403E+00 0.423E+00 -.112E+02   0.208E-02 -.433E-02 0.177E-02
   0.372E+00 -.312E+00 0.109E+02   -.378E+00 0.319E+00 -.109E+02   0.524E-03 -.682E-02 0.815E-02
   0.685E+00 -.159E+01 0.187E+02   -.690E+00 0.158E+01 -.187E+02   0.307E-01 0.511E-03 0.878E-03
   0.423E+00 -.226E+01 0.152E+02   -.426E+00 0.227E+01 -.152E+02   0.272E-02 0.612E-02 -.134E-01
   -.142E+01 0.858E+00 0.118E+02   0.142E+01 -.862E+00 -.118E+02   0.642E-02 -.109E-02 0.103E-01
   -.185E+01 0.539E+00 0.123E+02   0.185E+01 -.540E+00 -.123E+02   -.306E-02 0.731E-02 -.687E-02
   -.267E+00 -.913E-01 0.104E+02   0.267E+00 0.102E+00 -.104E+02   0.592E-02 -.176E-01 0.332E-02
   0.109E+00 0.907E+00 0.107E+02   -.115E+00 -.899E+00 -.107E+02   0.620E-02 -.119E-01 0.104E-01
   -.360E+00 -.218E+01 0.134E+02   0.363E+00 0.219E+01 -.134E+02   -.703E-03 -.106E-01 0.110E-02
   -.200E+00 -.132E+01 0.115E+02   0.207E+00 0.132E+01 -.115E+02   -.151E-01 -.102E-01 0.162E-02
   0.202E+01 -.884E+00 0.143E+02   -.201E+01 0.879E+00 -.143E+02   -.332E-02 0.677E-02 -.184E-01
   0.141E+01 -.115E+01 0.130E+02   -.142E+01 0.115E+01 -.130E+02   -.410E-02 0.635E-02 0.297E-02
   -.364E+00 0.635E+00 0.191E+02   0.352E+00 -.641E+00 -.191E+02   -.455E-03 0.224E-01 0.546E-02
   -.488E+00 -.102E+01 0.190E+02   0.487E+00 0.101E+01 -.189E+02   0.174E-01 -.721E-02 -.928E-02
   0.769E+00 -.281E+00 0.113E+02   -.771E+00 0.285E+00 -.113E+02   0.105E-01 -.103E-01 -.365E-02
   0.194E+00 0.674E+00 0.112E+02   -.205E+00 -.668E+00 -.112E+02   0.103E-01 -.457E-02 0.858E-02
   -.224E+01 0.273E+00 0.147E+02   0.224E+01 -.279E+00 -.147E+02   0.175E-01 0.126E-01 0.316E-02
   -.212E+01 -.852E+00 0.140E+02   0.213E+01 0.852E+00 -.141E+02   -.951E-02 0.819E-02 0.545E-05
   0.802E+00 -.163E+01 0.132E+02   -.803E+00 0.163E+01 -.132E+02   0.514E-02 0.111E-02 -.867E-02
   0.695E-01 -.714E+00 0.117E+02   -.714E-01 0.719E+00 -.117E+02   -.542E-02 -.112E-02 0.268E-02
   -.152E+01 -.155E+01 0.155E+02   0.152E+01 0.155E+01 -.155E+02   -.126E-01 -.104E-01 -.119E-01
   -.109E+01 -.206E+01 0.134E+02   0.110E+01 0.207E+01 -.134E+02   -.670E-02 -.129E-01 0.363E-02
   0.108E+00 0.425E+00 0.108E+02   -.956E-01 -.429E+00 -.108E+02   -.131E-01 -.138E-03 0.935E-02
   0.267E+00 0.393E+00 0.111E+02   -.261E+00 -.398E+00 -.111E+02   -.153E-01 0.132E-01 -.661E-03
   -.968E+00 0.172E+00 0.114E+02   0.977E+00 -.177E+00 -.114E+02   -.447E-02 0.255E-02 0.114E-01
   -.866E+00 -.389E+00 0.113E+02   0.865E+00 0.389E+00 -.113E+02   -.520E-02 0.175E-02 0.311E-02
   -.164E+01 -.868E+00 0.118E+02   0.165E+01 0.874E+00 -.119E+02   -.191E-02 -.949E-02 0.837E-02
   -.109E+01 -.857E+00 0.111E+02   0.109E+01 0.868E+00 -.111E+02   -.400E-02 -.147E-01 0.105E-01
   -.982E+00 -.124E+01 0.114E+02   0.986E+00 0.125E+01 -.114E+02   -.900E-02 -.182E-01 0.667E-02
   -.142E+00 -.333E+00 0.108E+02   0.149E+00 0.341E+00 -.108E+02   -.615E-02 -.135E-01 0.820E-02
   0.371E+00 0.941E+00 0.108E+02   -.373E+00 -.935E+00 -.108E+02   -.322E-02 -.841E-02 0.713E-02
   0.112E+01 0.172E+01 0.120E+02   -.112E+01 -.173E+01 -.120E+02   0.265E-03 -.165E-04 0.711E-02
   0.108E+00 0.155E+01 0.112E+02   -.114E+00 -.155E+01 -.112E+02   0.153E-01 -.659E-02 0.292E-02
   -.301E-01 0.227E+01 0.131E+02   0.204E-01 -.227E+01 -.131E+02   0.814E-02 0.292E-02 0.598E-02
   -.302E+00 0.552E+00 0.115E+02   0.297E+00 -.555E+00 -.115E+02   0.139E-01 -.408E-02 0.143E-02
   -.110E+01 0.135E+01 0.122E+02   0.109E+01 -.135E+01 -.122E+02   0.479E-02 -.544E-04 -.766E-03
   -.282E+00 -.677E+00 0.113E+02   0.289E+00 0.677E+00 -.113E+02   -.436E-02 -.330E-02 0.680E-02
   -.602E+00 0.220E+00 0.108E+02   0.609E+00 -.218E+00 -.108E+02   -.166E-01 0.240E-02 -.250E-02
   0.741E-01 -.413E+00 0.108E+02   -.651E-01 0.419E+00 -.108E+02   -.105E-01 -.114E-01 0.708E-02
   0.677E+00 0.474E+00 0.108E+02   -.669E+00 -.472E+00 -.108E+02   -.162E-01 0.223E-02 0.387E-02
   0.509E-02 0.141E-01 -.161E+03   -.628E-02 -.185E-01 0.161E+03   -.172E-01 0.174E-01 -.765E-02
   -.228E+03 0.155E+03 -.253E+03   0.279E+03 -.190E+03 0.256E+03   -.527E+02 0.358E+02 -.353E+01
   0.228E+03 -.155E+03 -.233E+03   -.279E+03 0.190E+03 0.230E+03   0.527E+02 -.359E+02 0.318E+01
 -----------------------------------------------------------------------------------------------
   -.162E-01 0.152E-01 0.336E+00   0.000E+00 0.568E-13 0.568E-13   -.497E-02 -.404E-02 -.281E+00
 
 
 POSITION                                       TOTAL-FORCE (eV/Angst)
 -----------------------------------------------------------------------------------
     11.98348      0.00342      0.01417        -0.006523      0.006283     -0.003876
     -0.34154      1.42665      0.01100        -0.013512      0.018391     -0.004935
      2.12355      0.00315      0.01249         0.009941      0.017840     -0.009555
      2.12326      1.42653      0.00641         0.027243      0.018787     -0.009160
     10.75099      2.13819      0.01213        -0.007447      0.016897     -0.000731
     -1.57382      3.56123      0.01110        -0.026094      0.013996     -0.001372
      0.89078      2.13854      0.00548         0.010239      0.009073      0.002949
      0.89099      3.56147      0.00181        -0.010953      0.009517      0.013373
      4.58864      0.00346      0.01135         0.026407     -0.018397     -0.004103
      4.58894      1.42623      0.00646         0.002639      0.028178      0.015369
      9.51854      4.27281      0.01369         0.016942      0.001334      0.000589
     -2.80632      5.69591      0.01434        -0.005713     -0.017670      0.000699
      2.12300      4.27302      0.00000         0.023195      0.015842      0.022367
      2.12335      5.69594      0.00581         0.004122      0.005648     -0.000196
      7.05344      0.00333      0.01399         0.008760     -0.015521      0.000053
      7.05353      1.42635      0.01368        -0.002652      0.014134     -0.005130
      8.28610      6.40752      0.01601         0.019166     -0.021779     -0.001612
     -4.03885      7.83070      0.01636         0.007555     -0.019474     -0.002083
      3.35586      6.40753      0.01007        -0.014608     -0.010838     -0.001499
      3.35599      7.83072      0.01320        -0.018175     -0.007880     -0.000850
     -0.34146      4.27290      0.00723         0.000626      0.019748     -0.004384
     -0.34138      5.69591      0.00946        -0.012518      0.004069      0.001597
      3.35624      2.13791      0.00222        -0.006115      0.031209      0.017620
      3.35573      3.56155      0.00139         0.031559     -0.009191      0.009633
     -1.57395      6.40758      0.01311         0.025691     -0.014781     -0.000932
     -1.57385      7.83068      0.01438         0.010756     -0.002853     -0.000287
      5.82093      2.13784      0.01033         0.020485      0.007231     -0.000403
      5.82114      3.56097      0.01156         0.001286      0.002193     -0.005308
      0.89092      6.40755      0.00907         0.004339      0.000510     -0.003305
      0.89106      7.83068      0.01235        -0.007387      0.009080      0.002836
      4.58871      4.27293      0.00850        -0.023721     -0.002961     -0.010420
      4.58852      5.69606      0.01149         0.001566     -0.023747     -0.004285
      9.51845      0.00337      0.01490        -0.018049     -0.006033     -0.000896
      9.51855      1.42644      0.01438        -0.031080      0.020974     -0.000461
      8.28593      2.13803      0.01453         0.002334      0.000477      0.002318
      8.28613      3.56115      0.01464        -0.012435     -0.003644     -0.001321
      7.05356      4.27269      0.01457         0.004158     -0.008524      0.000906
      7.05362      5.69588      0.01553        -0.001785     -0.029534     -0.000692
      5.82112      6.40755      0.01489        -0.015992     -0.018384     -0.001129
      5.82102      7.83073      0.01579        -0.004847     -0.020525     -0.002216
      7.05363      8.54227      0.01631        -0.003114     -0.010893     -0.001425
     -5.27149      9.96549      0.01495         0.001632     -0.001157     -0.005498
     -2.80638      8.54234      0.01558         0.029767     -0.015532     -0.002272
     -2.80627      9.96553      0.01362         0.017313      0.004555     -0.005796
     -0.34149      8.54239      0.01378         0.023730     -0.016992     -0.000356
     -0.34138      9.96550      0.01354         0.011582      0.010883     -0.001390
      2.12343      8.54232      0.01336        -0.013057     -0.013771      0.000333
      2.12354      9.96544      0.01469        -0.024440      0.014411     -0.001904
      4.58846      8.54235      0.01505        -0.020483     -0.016596     -0.000143
      4.58853      9.96550      0.01517        -0.025096      0.007708     -0.001526
      3.04930      2.68154      7.07107        -0.034526      0.021962      0.036197
      4.02070      2.02068      7.13549        -1.651461      1.103375     -0.114076
      2.07767      3.34267      7.01161         1.668749     -1.107631      0.088689
 -----------------------------------------------------------------------------------
    total drift:                               -0.021160      0.011124      0.054863


--------------------------------------------------------------------------------------------------------



  FREE ENERGIE OF THE ION-ELECTRON SYSTEM (eV)
  ---------------------------------------------------
  free  energy   TOTEN  =      -525.87238550 eV

  energy  without entropy=     -525.87238550  energy(sigma->0) =     -525.87238550
 


--------------------------------------------------------------------------------------------------------


    POTLOK:  cpu time    6.3434: real time    6.3905


--------------------------------------------------------------------------------------------------------


 writing wavefunctions
     LOOP+:  cpu time  856.8261: real time  865.0824
    4ORBIT:  cpu time    0.0000: real time    0.0000

 total amount of memory used by VASP MPI-rank0   556209. kBytes
=======================================================================

   base      :      30000. kBytes
   nonl-proj :     184518. kBytes
   fftplans  :      31725. kBytes
   grid      :     282516. kBytes
   one-center:        162. kBytes
   wavefun   :      27288. kBytes
 
  
  
 General timing and accounting informations for this job:
 ========================================================
  
                  Total CPU time used (sec):      894.238
                            User time (sec):      862.901
                          System time (sec):       31.337
                         Elapsed time (sec):      904.617
  
                   Maximum memory used (kb):     1191668.
                   Average memory used (kb):          N/A
  
                          Minor page faults:       462430
                          Major page faults:          124
                 Voluntary context switches:         3855
