 vasp.6.2.1 16May21 (build Nov 06 2021 14:46:37) complex                        
  
 executed on             LinuxIFC date 2025.04.16  18:08:27
 running on  112 total cores
 distrk:  each k-point on   56 cores,    2 groups
 distr:  one band on NCORE=   1 cores,   56 groups


--------------------------------------------------------------------------------------------------------


 INCAR:
   ALGO = Conjugate
   KPAR = 2
   NCORE = 32
   ISMEAR = 0
   SIGMA = 0.01
   PREC = Accurate
   EDIFF = 1E-7
   ENCUT = 1000
   ISIF = 0
   METAGGA = SCAN
   LUSE_VDW = .TRUE.
   BPARAM = 15.7
   LASPH = .TRUE.
   SYMPREC = 1E-7
   NELM = 200

 POTCAR:    PAW_PBE C_h 06Feb2004                 
 POTCAR:    PAW_PBE O_h 06Feb2004                 
 -----------------------------------------------------------------------------
|                                                                             |
|           W    W    AA    RRRRR   N    N  II  N    N   GGGG   !!!           |
|           W    W   A  A   R    R  NN   N  II  NN   N  G    G  !!!           |
|           W    W  A    A  R    R  N N  N  II  N N  N  G       !!!           |
|           W WW W  AAAAAA  RRRRR   N  N N  II  N  N N  G  GGG   !            |
|           WW  WW  A    A  R   R   N   NN  II  N   NN  G    G                |
|           W    W  A    A  R    R  N    N  II  N    N   GGGG   !!!           |
|                                                                             |
|     The value NCORE = 32 specified in the INCAR file was overwritten,       |
|     because it was not compatible with the 56 processes available:          |
|     NCORE = 1                                                               |
|     was used instead, please check that this makes sense for your           |
|     machine.                                                                |
|                                                                             |
 -----------------------------------------------------------------------------

 -----------------------------------------------------------------------------
|                                                                             |
|           W    W    AA    RRRRR   N    N  II  N    N   GGGG   !!!           |
|           W    W   A  A   R    R  NN   N  II  NN   N  G    G  !!!           |
|           W    W  A    A  R    R  N N  N  II  N N  N  G       !!!           |
|           W WW W  AAAAAA  RRRRR   N  N N  II  N  N N  G  GGG   !            |
|           WW  WW  A    A  R   R   N   NN  II  N   NN  G    G                |
|           W    W  A    A  R    R  N    N  II  N    N   GGGG   !!!           |
|                                                                             |
|     For optimal performance we recommend to set                             |
|       NCORE = 2 up to number-of-cores-per-socket                            |
|     NCORE specifies how many cores store one orbital (NPAR=cpu/NCORE).      |
|     This setting can greatly improve the performance of VASP for DFT.       |
|     The default, NCORE=1 might be grossly inefficient on modern             |
|     multi-core architectures or massively parallel machines. Do your        |
|     own testing! More info at https://www.vasp.at/wiki/index.php/NCORE      |
|     Unfortunately you need to use the default for GW and RPA                |
|     calculations (for HF NCORE is supported but not extensively tested      |
|     yet).                                                                   |
|                                                                             |
 -----------------------------------------------------------------------------

 -----------------------------------------------------------------------------
|                                                                             |
|               ----> ADVICE to this user running VASP <----                  |
|                                                                             |
|     You have switched on vdW-DFT.                                           |
|     This routine was written and supplied by Jiri Klimes. We recommend      |
|     that you carefully read and cite the following publications:            |
|       J. Klimes, D.R. Bowler, A. Michelides                                 |
|          J. Phys.: Cond Matt. 22 022201 (2010)                              |
|       J. Klimes, D.R. Bowler, A. Michelides                                 |
|          Phys. Rev. B. 83, 195131 (2011)                                    |
|     and references therein.                                                 |
|                                                                             |
 -----------------------------------------------------------------------------

 POTCAR:    PAW_PBE C_h 06Feb2004                 
   VRHFIN =C: s2p2                                                                                  
   LEXCH  = PE                                                                                      
   EATOM  =   147.1560 eV,   10.8157 Ry                                                             
                                                                                                    
   TITEL  = PAW_PBE C_h 06Feb2004                                                                   
   LULTRA =        F    use ultrasoft PP ?                                                          
   IUNSCR =        1    unscreen: 0-lin 1-nonlin 2-no                                               
   RPACOR =    0.800    partial core radius                                                         
   POMASS =   12.011; ZVAL   =    4.000    mass and valenz                                          
   RCORE  =    1.100    outmost cutoff radius                                                       
   RWIGS  =    1.630; RWIGS  =    0.863    wigner-seitz radius (au A)                               
   ENMAX  =  700.000; ENMIN  =  500.000 eV                                                          
   ICORE  =        2    local potential                                                             
   LCOR   =        T    correct aug charges                                                         
   LPAW   =        T    paw PP                                                                      
   EAUG   =  946.768                                                                                
   DEXC   =    0.000                                                                                
   RMAX   =    1.128    core radius for proj-oper                                                   
   RAUG   =    1.300    factor for augmentation sphere                                              
   RDEP   =    1.162    radius for radial grids                                                     
   RDEPT  =    1.088    core radius for aug-charge                                                  
                                                                                                    
   Atomic configuration                                                                             
    4 entries                                                                                       
     n  l   j            E        occ.                                                              
     1  0  0.50      -273.3789   2.0000                                                             
     2  0  0.50       -13.7508   2.0000                                                             
     2  1  0.50        -5.2854   2.0000                                                             
     3  2  1.50        -5.4423   0.0000                                                             
   Description                                                                                      
     l       E           TYP  RCUT    TYP  RCUT                                                     
     0    -13.7508458     23  1.100                                                                 
     0     -8.2022199     23  1.100                                                                 
     1     -5.2854383     23  1.100                                                                 
     1      1.1560700     23  1.100                                                                 
     2     -5.4423304      7  1.100                                                                 
  local pseudopotential read in
  partial core-charges read in
  partial kinetic energy density read in
  atomic valenz-charges read in
  non local Contribution for L=           0  read in
    real space projection operators read in
  non local Contribution for L=           0  read in
    real space projection operators read in
  non local Contribution for L=           1  read in
    real space projection operators read in
  non local Contribution for L=           1  read in
    real space projection operators read in
    PAW grid and wavefunctions read in
 
   number of l-projection  operators is LMAX  =           4
   number of lm-projection operators is LMMAX =           8
 
 POTCAR:    PAW_PBE O_h 06Feb2004                 
   VRHFIN =O: s2p4                                                                                  
   LEXCH  = PE                                                                                      
   EATOM  =   432.3788 eV,   31.7789 Ry                                                             
                                                                                                    
   TITEL  = PAW_PBE O_h 06Feb2004                                                                   
   LULTRA =        F    use ultrasoft PP ?                                                          
   IUNSCR =        1    unscreen: 0-lin 1-nonlin 2-no                                               
   RPACOR =    0.800    partial core radius                                                         
   POMASS =   16.000; ZVAL   =    6.000    mass and valenz                                          
   RCORE  =    1.100    outmost cutoff radius                                                       
   RWIGS  =    1.400; RWIGS  =    0.741    wigner-seitz radius (au A)                               
   ENMAX  =  700.000; ENMIN  =  500.000 eV                                                          
   ICORE  =        2    local potential                                                             
   LCOR   =        T    correct aug charges                                                         
   LPAW   =        T    paw PP                                                                      
   EAUG   =  888.804                                                                                
   DEXC   =    0.000                                                                                
   RMAX   =    1.128    core radius for proj-oper                                                   
   RAUG   =    1.300    factor for augmentation sphere                                              
   RDEP   =    1.125    radius for radial grids                                                     
   RDEPT  =    1.088    core radius for aug-charge                                                  
                                                                                                    
   Atomic configuration                                                                             
    4 entries                                                                                       
     n  l   j            E        occ.                                                              
     1  0  0.50      -514.6923   2.0000                                                             
     2  0  0.50       -23.9615   2.0000                                                             
     2  1  0.50        -9.0305   4.0000                                                             
     3  2  1.50        -9.5241   0.0000                                                             
   Description                                                                                      
     l       E           TYP  RCUT    TYP  RCUT                                                     
     0    -23.9615319     23  1.100                                                                 
     0    -25.3221145     23  1.100                                                                 
     1     -9.0304911     23  1.100                                                                 
     1     -5.4802209     23  1.100                                                                 
     2     -9.5240782      7  1.100                                                                 
  local pseudopotential read in
  partial core-charges read in
  partial kinetic energy density read in
  atomic valenz-charges read in
  non local Contribution for L=           0  read in
    real space projection operators read in
  non local Contribution for L=           0  read in
    real space projection operators read in
  non local Contribution for L=           1  read in
    real space projection operators read in
  non local Contribution for L=           1  read in
    real space projection operators read in
    PAW grid and wavefunctions read in
 
   number of l-projection  operators is LMAX  =           4
   number of lm-projection operators is LMMAX =           8
 
 -----------------------------------------------------------------------------
|                                                                             |
|               ----> ADVICE to this user running VASP <----                  |
|                                                                             |
|     You have a (more or less) 'large supercell' and for larger cells it     |
|     might be more efficient to use real-space projection operators.         |
|     Therefore, try LREAL= Auto in the INCAR file.                           |
|     Mind: For very accurate calculation, you might also keep the            |
|     reciprocal projection scheme (i.e. LREAL=.FALSE.).                      |
|                                                                             |
 -----------------------------------------------------------------------------

  PAW_PBE C_h 06Feb2004                 :
 energy of atom  1       EATOM= -147.1560
 kinetic energy error for atom=    0.0031 (will be added to EATOM!!)
  PAW_PBE O_h 06Feb2004                 :
 energy of atom  2       EATOM= -432.3788
 kinetic energy error for atom=    0.0171 (will be added to EATOM!!)
 
 
 POSCAR:  C  O
  positions in cartesian coordinates
  No initial velocities read in

 METAGGA = SCAN     LMAXTAU =  6    LMIXTAU =  F

 exchange correlation table for  LEXCH =        8
   RHO(1)=    0.500       N(1)  =     2000
   RHO(2)=  100.500       N(2)  =     4000
 


--------------------------------------------------------------------------------------------------------


 ion  position               nearest neighbor table
   1  0.972  0.000  0.001-  50 1.42   2 1.42  42 1.42
   2  0.039  0.134  0.000-   5 1.42   7 1.42   1 1.42
   3  0.172  0.000  0.000-  42 1.42  44 1.42   4 1.42
   4  0.239  0.134  0.000-   7 1.42   3 1.42  23 1.42
   5  0.972  0.200  0.000-   6 1.42   2 1.42  34 1.42
   6  0.039  0.334  0.000-   5 1.42  21 1.42  11 1.42
   7  0.172  0.200  0.000-   8 1.42   2 1.42   4 1.42
   8  0.239  0.334  0.000-  13 1.42   7 1.42  21 1.42
   9  0.372  0.000  0.000-  10 1.42  44 1.42  46 1.42
  10  0.439  0.134  0.000-  27 1.42   9 1.42  23 1.42
  11  0.972  0.400  0.001-  12 1.42  36 1.42   6 1.42
  12  0.039  0.534  0.001-  25 1.42  11 1.42  17 1.42
  13  0.372  0.400  0.000-   8 1.42  14 1.42  24 1.42
  14  0.439  0.534  0.000-  13 1.42  29 1.42  19 1.42
  15  0.572  0.000  0.001-  46 1.42  16 1.42  48 1.42
  16  0.639  0.134  0.001-  15 1.42  35 1.42  27 1.42
  17  0.972  0.600  0.001-  38 1.42  18 1.42  12 1.42
  18  0.039  0.734  0.001-  43 1.42  41 1.42  17 1.42
  19  0.572  0.600  0.000-  14 1.42  20 1.42  32 1.42
  20  0.639  0.734  0.001-  49 1.42  19 1.42  47 1.42
  21  0.172  0.400  0.000-  22 1.42   8 1.42   6 1.42
  22  0.239  0.534  0.000-  21 1.42  29 1.42  25 1.42
  23  0.372  0.200  0.000-  10 1.42   4 1.42  24 1.42
  24  0.439  0.334  0.000-  13 1.42  31 1.42  23 1.42
  25  0.172  0.600  0.001-  26 1.42  12 1.42  22 1.42
  26  0.239  0.734  0.001-  25 1.42  45 1.42  43 1.42
  27  0.572  0.200  0.000-  10 1.42  28 1.42  16 1.42
  28  0.639  0.334  0.000-  27 1.42  37 1.42  31 1.42
  29  0.372  0.600  0.000-  22 1.42  14 1.42  30 1.42
  30  0.439  0.734  0.000-  47 1.42  29 1.42  45 1.42
  31  0.572  0.400  0.000-  32 1.42  28 1.42  24 1.42
  32  0.639  0.534  0.000-  31 1.42  39 1.42  19 1.42
  33  0.772  0.000  0.001-  34 1.42  48 1.42  50 1.42
  34  0.839  0.134  0.001-  33 1.42   5 1.42  35 1.42
  35  0.772  0.200  0.001-  36 1.42  16 1.42  34 1.42
  36  0.839  0.334  0.001-  35 1.42  11 1.42  37 1.42
  37  0.772  0.400  0.001-  28 1.42  38 1.42  36 1.42
  38  0.839  0.534  0.001-  17 1.42  37 1.42  39 1.42
  39  0.772  0.600  0.001-  40 1.42  38 1.42  32 1.42
  40  0.839  0.734  0.001-  39 1.42  49 1.42  41 1.42
  41  0.972  0.800  0.001-  18 1.42  42 1.42  40 1.42
  42  0.039  0.934  0.001-   3 1.42  41 1.42   1 1.42
  43  0.172  0.800  0.001-  18 1.42  44 1.42  26 1.42
  44  0.239  0.934  0.001-   9 1.42  43 1.42   3 1.42
  45  0.372  0.800  0.001-  26 1.42  46 1.42  30 1.42
  46  0.439  0.934  0.001-  15 1.42  45 1.42   9 1.42
  47  0.572  0.800  0.001-  30 1.42  48 1.42  20 1.42
  48  0.639  0.934  0.001-  47 1.42  33 1.42  15 1.42
  49  0.772  0.800  0.001-  50 1.42  20 1.42  40 1.42
  50  0.839  0.934  0.001-  49 1.42   1 1.42  33 1.42
  51  0.373  0.251  0.100-  52 1.18  53 1.18
  52  0.421  0.189  0.103-  51 1.18
  53  0.325  0.313  0.098-  51 1.18
 
  LATTYP: Found a hexagonal cell.
 ALAT       =    12.3250000000
 C/A-ratio  =     2.0283975659
  
  Lattice vectors:
  
 A1 = (  12.3250000000,   0.0000000000,   0.0000000000)
 A2 = (  -6.1625000000,  10.6737631016,   0.0000000000)
 A3 = (   0.0000000000,   0.0000000000,  25.0000000000)


Analysis of symmetry for initial positions (statically):
=====================================================================
 Subroutine PRICEL returns:
 Original cell was already a primitive cell.
 

 Routine SETGRP: Setting up the symmetry group for a 
 hexagonal supercell.


 Subroutine GETGRP returns: Found  1 space group operations
 (whereof  1 operations were pure point group operations)
 out of a pool of 24 trial point group operations.


The static configuration has the point symmetry C_1 .


Analysis of symmetry for dynamics (positions and initial velocities):
=====================================================================
 Subroutine PRICEL returns:
 Original cell was already a primitive cell.
 

 Routine SETGRP: Setting up the symmetry group for a 
 hexagonal supercell.


 Subroutine GETGRP returns: Found  1 space group operations
 (whereof  1 operations were pure point group operations)
 out of a pool of 24 trial point group operations.


The dynamic configuration has the point symmetry C_1 .


 Subroutine INISYM returns: Found  1 space group operations
 (whereof  1 operations are pure point group operations),
 and found     1 'primitive' translations


----------------------------------------------------------------------------------------

                                     Primitive cell                                     

  volume of cell :    3288.8533

  direct lattice vectors                    reciprocal lattice vectors
    12.325000000  0.000000000  0.000000000     0.081135903  0.046843835  0.000000000
    -6.162500000 10.673763102  0.000000000     0.000000000  0.093687670  0.000000000
     0.000000000  0.000000000 25.000000000     0.000000000  0.000000000  0.040000000

  length of vectors
    12.325000000 12.325000000 25.000000000     0.093687670  0.093687670  0.040000000

  position of ions in fractional coordinates (direct lattice)
     0.972450841  0.000320818  0.000566711
     0.039118382  0.133659505  0.000440173
     0.172443627  0.000295449  0.000499628
     0.239096278  0.133647917  0.000256468
     0.972452058  0.200322012  0.000485219
     0.039128360  0.333643771  0.000444150
     0.172451764  0.200354552  0.000219167
     0.239124359  0.333665720  0.000072260
     0.372465565  0.000324403  0.000453913
     0.439137473  0.133619939  0.000258338
     0.972449824  0.400309362  0.000547611
     0.039124981  0.533636789  0.000573410
     0.372416176  0.400329481  0.000000000
     0.439099602  0.533638981  0.000232414
     0.572443676  0.000312125  0.000559580
     0.639110207  0.133631751  0.000547275
     0.972452703  0.600305653  0.000640289
     0.039124495  0.733640359  0.000654513
     0.572433471  0.600306242  0.000402895
     0.639111888  0.733641879  0.000527905
     0.172454630  0.400318228  0.000289045
     0.239120185  0.533636548  0.000378509
     0.372459750  0.200295993  0.000088997
     0.439107096  0.333673419  0.000055762
     0.172452155  0.600311506  0.000524340
     0.239123371  0.733638574  0.000575129
     0.572431082  0.200289171  0.000413296
     0.639112773  0.333618630  0.000462376
     0.372439808  0.600308022  0.000362844
     0.439116090  0.733637858  0.000494190
     0.572469358  0.400320504  0.000339918
     0.639119408  0.533650873  0.000459610
     0.772445723  0.000315427  0.000596161
     0.839116277  0.133640203  0.000575306
     0.772440513  0.200307432  0.000581033
     0.839120241  0.333635728  0.000585467
     0.772446320  0.400298367  0.000582978
     0.839118980  0.533633964  0.000621100
     0.772456143  0.600308173  0.000595712
     0.839115033  0.733643180  0.000631512
     0.972455313  0.800305582  0.000652233
     0.039114714  0.933643289  0.000598051
     0.172457971  0.800312211  0.000623372
     0.239134551  0.933647193  0.000544850
     0.372451396  0.800316674  0.000551399
     0.439124489  0.933644769  0.000541430
     0.572441101  0.800310054  0.000534535
     0.639115067  0.933638985  0.000587644
     0.772445098  0.800313187  0.000602062
     0.839116614  0.933644338  0.000606830
     0.373021009  0.251226878  0.100000000
     0.420879805  0.189313152  0.102576874
     0.325156981  0.313167186  0.097621805

  ion indices of the primitive-cell ions
   primitive index   ion index
                 1           1
                 2           2
                 3           3
                 4           4
                 5           5
                 6           6
                 7           7
                 8           8
                 9           9
                10          10
                11          11
                12          12
                13          13
                14          14
                15          15
                16          16
                17          17
                18          18
                19          19
                20          20
                21          21
                22          22
                23          23
                24          24
                25          25
                26          26
                27          27
                28          28
                29          29
                30          30
                31          31
                32          32
                33          33
                34          34
                35          35
                36          36
                37          37
                38          38
                39          39
                40          40
                41          41
                42          42
                43          43
                44          44
                45          45
                46          46
                47          47
                48          48
                49          49
                50          50
                51          51
                52          52
                53          53

----------------------------------------------------------------------------------------

 
 
 KPOINTS: auto                                    

Automatic generation of k-mesh.
 Grid dimensions read from file:
 generate k-points for:    1    1    1

 Generating k-lattice:

  Cartesian coordinates                     Fractional coordinates (reciprocal lattice)
     0.081135903  0.046843835  0.000000000     1.000000000 -0.000000000  0.000000000
     0.000000000  0.093687670  0.000000000     0.000000000  1.000000000  0.000000000
     0.000000000  0.000000000  0.040000000     0.000000000  0.000000000  1.000000000

  Length of vectors
     0.093687670  0.093687670  0.040000000

  Shift w.r.t. Gamma in fractional coordinates (k-lattice)
     0.000000000  0.000000000  0.000000000

 
 Subroutine IBZKPT returns following result:
 ===========================================
 
 Found      1 irreducible k-points:
 
 Following reciprocal coordinates:
            Coordinates               Weight
  0.000000  0.000000  0.000000      1.000000
 
 Following cartesian coordinates:
            Coordinates               Weight
  0.000000  0.000000  0.000000      1.000000
 


--------------------------------------------------------------------------------------------------------




 Dimension of arrays:
   k-points           NKPTS =      1   k-points in BZ     NKDIM =      1   number of bands    NBANDS=    168
   number of dos      NEDOS =    301   number of ions     NIONS =     53
   non local maximal  LDIM  =      4   non local SUM 2l+1 LMDIM =      8
   total plane-waves  NPLWV = ******
   max r-space proj   IRMAX =      1   max aug-charges    IRDMAX=  10008
   dimension x,y,z NGX =   128 NGY =  128 NGZ =  270
   dimension x,y,z NGXF=   256 NGYF=  256 NGZF=  540
   support grid    NGXF=   256 NGYF=  256 NGZF=  540
   ions per type =              51   2
   NGX,Y,Z   is equivalent  to a cutoff of  17.27, 17.27, 17.95 a.u.
   NGXF,Y,Z  is equivalent  to a cutoff of  34.53, 34.53, 35.91 a.u.

 SYSTEM =  unknown system                          
 POSCAR =   C  O                                   

 Startparameter for this run:
   NWRITE =      2    write-flag & timer
   PREC   = accura    normal or accurate (medium, high low for compatibility)
   ISTART =      0    job   : 0-new  1-cont  2-samecut
   ICHARG =      2    charge: 1-file 2-atom 10-const
   ISPIN  =      1    spin polarized calculation?
   LNONCOLLINEAR =      F non collinear calculations
   LSORBIT =      F    spin-orbit coupling
   INIWAV =      1    electr: 0-lowe 1-rand  2-diag
   LASPH  =      T    aspherical Exc in radial PAW
 Electronic Relaxation 1
   ENCUT  = 1000.0 eV  73.50 Ry    8.57 a.u.  31.78 31.78 64.46*2*pi/ulx,y,z
   ENINI  = 1000.0     initial cutoff
   ENAUG  =  946.8 eV  augmentation charge cutoff
   NELM   =    200;   NELMIN=  2; NELMDL= -5     # of ELM steps 
   EDIFF  = 0.1E-06   stopping-criterion for ELM
   LREAL  =      F    real-space projection
   NLSPLINE    = F    spline interpolate recip. space projectors
   LCOMPAT=      F    compatible to vasp.4.4
   GGA_COMPAT  = T    GGA compatible to vasp.4.4-vasp.4.6
   LMAXPAW     = -100 max onsite density
   LMAXMIX     =    2 max onsite mixed and CHGCAR
   VOSKOWN=      0    Vosko Wilk Nusair interpolation
   ROPT   =    0.00000   0.00000
 Ionic relaxation
   EDIFFG = 0.1E-05   stopping-criterion for IOM
   NSW    =      0    number of steps for IOM
   NBLOCK =      1;   KBLOCK =      1    inner block; outer block 
   IBRION =     -1    ionic relax: 0-MD 1-quasi-New 2-CG
   NFREE  =      0    steps in history (QN), initial steepest desc. (CG)
   ISIF   =      0    stress and relaxation
   IWAVPR =     10    prediction:  0-non 1-charg 2-wave 3-comb
   ISYM   =      2    0-nonsym 1-usesym 2-fastsym
   LCORR  =      T    Harris-Foulkes like correction to forces

   POTIM  = 0.5000    time-step for ionic-motion
   TEIN   =    0.0    initial temperature
   TEBEG  =    0.0;   TEEND  =   0.0 temperature during run
   SMASS  =  -3.00    Nose mass-parameter (am)
   estimated Nose-frequenzy (Omega)   =  0.10E-29 period in steps = 0.13E+47 mass=  -0.347E-26a.u.
   SCALEE = 1.0000    scale energy and forces
   NPACO  =    256;   APACO  = 16.0  distance and # of slots for P.C.
   PSTRESS=    0.0 pullay stress

  Mass of Ions in am
   POMASS =  12.01 16.00
  Ionic Valenz
   ZVAL   =   4.00  6.00
  Atomic Wigner-Seitz radii
   RWIGS  =  -1.00 -1.00
  virtual crystal weights 
   VCA    =   1.00  1.00
   NELECT =     216.0000    total number of electrons
   NUPDOWN=      -1.0000    fix difference up-down

 DOS related values:
   EMIN   =  10.00;   EMAX   =-10.00  energy-range for DOS
   EFERMI =   0.00
   ISMEAR =     0;   SIGMA  =   0.01  broadening in eV -4-tet -1-fermi 0-gaus

 Electronic relaxation 2 (details)
   IALGO  =     58    algorithm
   LDIAG  =      T    sub-space diagonalisation (order eigenvalues)
   LSUBROT=      F    optimize rotation matrix (better conditioning)
   TURBO    =      0    0=normal 1=particle mesh
   IRESTART =      0    0=no restart 2=restart with 2 vectors
   NREBOOT  =      0    no. of reboots
   NMIN     =      0    reboot dimension
   EREF     =   0.00    reference energy to select bands
   IMIX   =      4    mixing-type and parameters
     AMIX     =   0.40;   BMIX     =  1.00
     AMIX_MAG =   1.60;   BMIX_MAG =  1.00
     AMIN     =   0.10
     WC   =   100.;   INIMIX=   1;  MIXPRE=   1;  MAXMIX= -45

 Intra band minimization:
   WEIMIN = 0.0000     energy-eigenvalue tresh-hold
   EBREAK =  0.15E-09  absolut break condition
   DEPER  =   0.30     relativ break condition  

   TIME   =   0.40     timestep for ELM

  volume/ion in A,a.u.               =      62.05       418.76
  Fermi-wavevector in a.u.,A,eV,Ry     =   0.660508  1.248179  5.935820  0.436270
  Thomas-Fermi vector in A             =   1.732977
 
 Write flags
   LWAVE        =      T    write WAVECAR
   LDOWNSAMPLE  =      F    k-point downsampling of WAVECAR
   LCHARG       =      T    write CHGCAR
   LVTOT        =      F    write LOCPOT, total local potential
   LVHAR        =      F    write LOCPOT, Hartree potential only
   LELF         =      F    write electronic localiz. function (ELF)
   LORBIT       =      0    0 simple, 1 ext, 2 COOP (PROOUT), +10 PAW based schemes


 Dipole corrections
   LMONO  =      F    monopole corrections only (constant potential shift)
   LDIPOL =      F    correct potential (dipole corrections)
   IDIPOL =      0    1-x, 2-y, 3-z, 4-all directions 
   EPSILON=  1.0000000 bulk dielectric constant

 Exchange correlation treatment:
   GGA     =    --    GGA type
   LEXCH   =     8    internal setting for exchange type
   VOSKOWN=      0    Vosko Wilk Nusair interpolation
   LHFCALC =     F    Hartree Fock is set to
   LHFONE  =     F    Hartree Fock one center treatment
   AEXX    =    0.0000 exact exchange contribution

 vdW DFT:
   LUSE_VDW   =     T    switch on vdW DFT
   Zab_VDW    =-.8491    correlation parameter
   PARAM1     =0.1234
   PARAM2     =1.0000
   PARAM3     =0.0000
   -- rVV10 --
   BPARAM     =15.7000
   CPARAM     = 0.0093

 Linear response parameters
   LEPSILON=     F    determine dielectric tensor
   LRPA    =     F    only Hartree local field effects (RPA)
   LNABLA  =     F    use nabla operator in PAW spheres
   LVEL    =     F    velocity operator in full k-point grid
   LINTERFAST=   F  fast interpolation
   KINTER  =     0    interpolate to denser k-point grid
   CSHIFT  =0.1000    complex shift for real part using Kramers Kronig
   OMEGAMAX=  -1.0    maximum frequency
   DEG_THRESHOLD= 0.2000000E-02 threshold for treating states as degnerate
   RTIME   =   -0.100 relaxation time in fs
  (WPLASMAI=    0.000 imaginary part of plasma frequency in eV, 0.658/RTIME)
   DFIELD  = 0.0000000 0.0000000 0.0000000 field for delta impulse in time
 
 Orbital magnetization related:
   ORBITALMAG=     F  switch on orbital magnetization
   LCHIMAG   =     F  perturbation theory with respect to B field
   DQ        =  0.001000  dq finite difference perturbation B field
   LLRAUG    =     F  two centre corrections for induced B field



--------------------------------------------------------------------------------------------------------


 Static calculation
 charge density and potential will be updated during run
 non-spin polarized calculation
 Conjugate gradient for all bands (Freysoldt, et al. PRB 79, 241103 (2009))
 preconditioned conjugated gradient                                        
 perform sub-space diagonalisation
    before iterative eigenvector-optimisation
 modified Broyden-mixing scheme, WC =      100.0
 initial mixing is a Kerker type mixing with AMIX =  0.4000 and BMIX =      1.0000
 Hartree-type preconditioning will be used
 using additional bands           60
 reciprocal scheme for non local part
 use partial core corrections
 no Harris-corrections to forces 
 use gradient corrections 
 use of overlap-Matrix (Vanderbilt PP)
 Gauss-broadening in eV      SIGMA  =   0.01


--------------------------------------------------------------------------------------------------------


  energy-cutoff  :     1000.00
  volume of cell :     3288.85
      direct lattice vectors                 reciprocal lattice vectors
    12.325000000  0.000000000  0.000000000     0.081135903  0.046843835  0.000000000
    -6.162500000 10.673763102  0.000000000     0.000000000  0.093687670  0.000000000
     0.000000000  0.000000000 25.000000000     0.000000000  0.000000000  0.040000000

  length of vectors
    12.325000000 12.325000000 25.000000000     0.093687670  0.093687670  0.040000000


 
 k-points in units of 2pi/SCALE and weight: auto                                    
   0.00000000  0.00000000  0.00000000       1.000
 
 k-points in reciprocal lattice and weights: auto                                    
   0.00000000  0.00000000  0.00000000       1.000
 
 position of ions in fractional coordinates (direct lattice) 
   0.97245084  0.00032082  0.00056671
   0.03911838  0.13365950  0.00044017
   0.17244363  0.00029545  0.00049963
   0.23909628  0.13364792  0.00025647
   0.97245206  0.20032201  0.00048522
   0.03912836  0.33364377  0.00044415
   0.17245176  0.20035455  0.00021917
   0.23912436  0.33366572  0.00007226
   0.37246557  0.00032440  0.00045391
   0.43913747  0.13361994  0.00025834
   0.97244982  0.40030936  0.00054761
   0.03912498  0.53363679  0.00057341
   0.37241618  0.40032948  0.00000000
   0.43909960  0.53363898  0.00023241
   0.57244368  0.00031213  0.00055958
   0.63911021  0.13363175  0.00054727
   0.97245270  0.60030565  0.00064029
   0.03912449  0.73364036  0.00065451
   0.57243347  0.60030624  0.00040289
   0.63911189  0.73364188  0.00052791
   0.17245463  0.40031823  0.00028904
   0.23912018  0.53363655  0.00037851
   0.37245975  0.20029599  0.00008900
   0.43910710  0.33367342  0.00005576
   0.17245216  0.60031151  0.00052434
   0.23912337  0.73363857  0.00057513
   0.57243108  0.20028917  0.00041330
   0.63911277  0.33361863  0.00046238
   0.37243981  0.60030802  0.00036284
   0.43911609  0.73363786  0.00049419
   0.57246936  0.40032050  0.00033992
   0.63911941  0.53365087  0.00045961
   0.77244572  0.00031543  0.00059616
   0.83911628  0.13364020  0.00057531
   0.77244051  0.20030743  0.00058103
   0.83912024  0.33363573  0.00058547
   0.77244632  0.40029837  0.00058298
   0.83911898  0.53363396  0.00062110
   0.77245614  0.60030817  0.00059571
   0.83911503  0.73364318  0.00063151
   0.97245531  0.80030558  0.00065223
   0.03911471  0.93364329  0.00059805
   0.17245797  0.80031221  0.00062337
   0.23913455  0.93364719  0.00054485
   0.37245140  0.80031667  0.00055140
   0.43912449  0.93364477  0.00054143
   0.57244110  0.80031005  0.00053453
   0.63911507  0.93363899  0.00058764
   0.77244510  0.80031319  0.00060206
   0.83911661  0.93364434  0.00060683
   0.37302101  0.25122688  0.10000000
   0.42087980  0.18931315  0.10257687
   0.32515698  0.31316719  0.09762181
 
 position of ions in cartesian coordinates  (Angst):
  11.98347958  0.00342433  0.01416777
  -0.34154264  1.42664989  0.01100432
   2.12354700  0.00315355  0.01249070
   2.12325634  1.42652621  0.00641170
  10.75098721  2.13818970  0.01213047
  -1.57382270  3.56123457  0.01110375
   0.89078307  2.13853702  0.00547917
   0.89099273  3.56146885  0.00180651
   4.58863896  0.00346260  0.01134782
   4.58893648  1.42622757  0.00645846
   9.51853763  4.27280730  0.01369027
  -2.80632132  5.69591267  0.01433526
   2.12299894  4.27302204  0.00000000
   2.12335237  5.69593607  0.00581036
   7.05344483  0.00333155  0.01398950
   7.05352764  1.42635365  0.01368187
   8.28609598  6.40752033  0.01600723
  -4.03884931  7.83070339  0.01636283
   3.35585531  6.40752662  0.01007237
   3.35598594  7.83071962  0.01319763
  -0.34145776  4.27290193  0.00722612
  -0.34137895  5.69591010  0.00946273
   3.35624236  2.13791198  0.00222492
   3.35573251  3.56155103  0.00139405
  -1.57394684  6.40758280  0.01310850
  -1.57385216  7.83068434  0.01437823
   5.82093107  2.13783916  0.01033241
   5.82114012  3.56096622  0.01155939
   0.89092245  6.40754561  0.00907111
   0.89106251  7.83067670  0.01235474
   4.58870974  4.27292622  0.00849795
   4.58852320  5.69606300  0.01149026
   9.51844972  0.00336679  0.01490402
   9.51855036  1.42644387  0.01438264
   8.28593477  2.13803408  0.01452582
   8.28612680  3.56114872  0.01463668
   7.05356221  4.27268994  0.01457444
   7.05362213  5.69588251  0.01552751
   5.82112285  6.40754723  0.01489279
   5.82101669  7.83073350  0.01578780
   7.05362858  8.54227219  0.01630582
  -5.27148792  9.96548729  0.01495127
  -2.80637951  8.54234295  0.01558431
  -2.80626749  9.96552896  0.01362126
  -0.34148805  8.54239058  0.01378498
  -0.34137657  9.96550309  0.01353576
   2.12342586  8.54231992  0.01336337
   2.12354296  9.96544135  0.01469111
   4.58845581  8.54235337  0.01505154
   4.58852904  9.96549848  0.01517076
   3.04929830  2.68153618  2.50000000
   4.02070129  2.02068374  2.56442186
   2.07766701  3.34267235  2.44054513
 


--------------------------------------------------------------------------------------------------------


 k-point   1 :   0.0000 0.0000 0.0000  plane waves:  236157

 maximum and minimum number of plane-waves per node :    236157   236157

 maximum number of plane-waves:    236157
 maximum index in each direction: 
   IXMAX=   31   IYMAX=   31   IZMAX=   64
   IXMIN=  -31   IYMIN=  -31   IZMIN=  -64


 serial   3D FFT for wavefunctions
 parallel 3D FFT for charge:
    minimum data exchange during FFTs selected (reduces bandwidth)


 total amount of memory used by VASP MPI-rank0   698619. kBytes
=======================================================================

   base      :      30000. kBytes
   nonl-proj :     230539. kBytes
   fftplans  :      40716. kBytes
   grid      :     363125. kBytes
   one-center:        162. kBytes
   wavefun   :      34077. kBytes
 
     INWAV:  cpu time    0.0000: real time    0.0000
 Broyden mixing: mesh for mixing (old mesh)
   NGX = 63   NGY = 63   NGZ =129
  (NGX  =256   NGY  =256   NGZ  =540)
  gives a total of 512001 points

 initial charge density was supplied:
 charge density of overlapping atoms calculated
 number of electron     216.0000000 magnetization 
 keeping initial charge density in first step


--------------------------------------------------------------------------------------------------------


 Maximum index for augmentation-charges          471 (set IRDMAX)


--------------------------------------------------------------------------------------------------------


 First call to EWALD:  gamma=   0.119
 Maximum number of real-space cells 4x 4x 2
 Maximum number of reciprocal cells 2x 2x 4

    FEWALD:  cpu time    0.0022: real time    0.0022


--------------------------------------- Iteration      1(   1)  ---------------------------------------


    POTLOK:  cpu time    8.4154: real time    8.4981
    SETDIJ:  cpu time    0.0033: real time    0.0054
    TRIAL :  cpu time   31.5942: real time   31.9090
    CORREC:  cpu time    0.0007: real time    0.0007
    --------------------------------------------
      LOOP:  cpu time   40.0186: real time   40.4601

 eigenvalue-minimisations  :   336
 total energy-change (2. order) : 0.2560268E+04  (-0.1079283E+05)
 number of electron     216.0000000 magnetization 
 augmentation part      216.0000000 magnetization 

 Free energy of the ion-electron system (eV)
  ---------------------------------------------------
  alpha Z        PSCENC =        47.94900195
  Ewald energy   TEWEN  =     48644.60191082
  -Hartree energ DENC   =    -54710.66706681
  -exchange      EXHF   =         0.00000000
  -V(xc)+E(xc)   XCENC  =       605.12016533
  PAW double counting   =      6339.73130699    -6197.22120962
  entropy T*S    EENTRO =        -0.00000000
  eigenvalues    EBANDS =      -538.76981847
  atomic energy  EATOM  =      8369.52358910
  ---------------------------------------------------
  free energy    TOTEN  =      2560.26787929 eV

  energy without entropy =     2560.26787929  energy(sigma->0) =     2560.26787929


--------------------------------------------------------------------------------------------------------




--------------------------------------- Iteration      1(   2)  ---------------------------------------


    TRIAL :  cpu time   44.8608: real time   45.3139
    CORREC:  cpu time    0.0001: real time    0.0001
    --------------------------------------------
      LOOP:  cpu time   44.8727: real time   45.3336

 eigenvalue-minimisations  :   560
 total energy-change (2. order) :-0.2493541E+04  (-0.2328192E+04)
 number of electron     216.0000000 magnetization 
 augmentation part      216.0000000 magnetization 

 Free energy of the ion-electron system (eV)
  ---------------------------------------------------
  alpha Z        PSCENC =        47.94900195
  Ewald energy   TEWEN  =     48644.60191082
  -Hartree energ DENC   =    -54710.66706681
  -exchange      EXHF   =         0.00000000
  -V(xc)+E(xc)   XCENC  =       605.12016533
  PAW double counting   =      6339.73130699    -6197.22120962
  entropy T*S    EENTRO =        -0.00000000
  eigenvalues    EBANDS =     -3032.31097720
  atomic energy  EATOM  =      8369.52358910
  ---------------------------------------------------
  free energy    TOTEN  =        66.72672057 eV

  energy without entropy =       66.72672057  energy(sigma->0) =       66.72672057


--------------------------------------------------------------------------------------------------------




--------------------------------------- Iteration      1(   3)  ---------------------------------------


    TRIAL :  cpu time   34.7946: real time   35.1925
    CORREC:  cpu time    0.0001: real time    0.0001
    --------------------------------------------
      LOOP:  cpu time   34.8398: real time   35.2777

 eigenvalue-minimisations  :   392
 total energy-change (2. order) :-0.6457048E+03  (-0.6421155E+03)
 number of electron     216.0000000 magnetization 
 augmentation part      216.0000000 magnetization 

 Free energy of the ion-electron system (eV)
  ---------------------------------------------------
  alpha Z        PSCENC =        47.94900195
  Ewald energy   TEWEN  =     48644.60191082
  -Hartree energ DENC   =    -54710.66706681
  -exchange      EXHF   =         0.00000000
  -V(xc)+E(xc)   XCENC  =       605.12016533
  PAW double counting   =      6339.73130699    -6197.22120962
  entropy T*S    EENTRO =        -0.00000000
  eigenvalues    EBANDS =     -3678.01574682
  atomic energy  EATOM  =      8369.52358910
  ---------------------------------------------------
  free energy    TOTEN  =      -578.97804906 eV

  energy without entropy =     -578.97804906  energy(sigma->0) =     -578.97804906


--------------------------------------------------------------------------------------------------------




--------------------------------------- Iteration      1(   4)  ---------------------------------------


    TRIAL :  cpu time   38.2035: real time   38.5130
    CORREC:  cpu time    0.0001: real time    0.0001
    --------------------------------------------
      LOOP:  cpu time   38.2106: real time   38.5654

 eigenvalue-minimisations  :   448
 total energy-change (2. order) :-0.3460156E+02  (-0.3433818E+02)
 number of electron     216.0000000 magnetization 
 augmentation part      216.0000000 magnetization 

 Free energy of the ion-electron system (eV)
  ---------------------------------------------------
  alpha Z        PSCENC =        47.94900195
  Ewald energy   TEWEN  =     48644.60191082
  -Hartree energ DENC   =    -54710.66706681
  -exchange      EXHF   =         0.00000000
  -V(xc)+E(xc)   XCENC  =       605.12016533
  PAW double counting   =      6339.73130699    -6197.22120962
  entropy T*S    EENTRO =        -0.00000000
  eigenvalues    EBANDS =     -3712.61730637
  atomic energy  EATOM  =      8369.52358910
  ---------------------------------------------------
  free energy    TOTEN  =      -613.57960861 eV

  energy without entropy =     -613.57960861  energy(sigma->0) =     -613.57960861


--------------------------------------------------------------------------------------------------------




--------------------------------------- Iteration      1(   5)  ---------------------------------------


    TRIAL :  cpu time   38.1875: real time   38.5339
    CORREC:  cpu time    0.0003: real time    0.0005
    CHARGE:  cpu time    3.2492: real time    3.2768
    --------------------------------------------
      LOOP:  cpu time   41.4870: real time   41.8631

 eigenvalue-minimisations  :   448
 total energy-change (2. order) :-0.1167351E+01  (-0.1162408E+01)
 number of electron     216.0000000 magnetization 
 augmentation part       -0.4365332 magnetization 

 Free energy of the ion-electron system (eV)
  ---------------------------------------------------
  alpha Z        PSCENC =        47.94900195
  Ewald energy   TEWEN  =     48644.60191082
  -Hartree energ DENC   =    -54710.66706681
  -exchange      EXHF   =         0.00000000
  -V(xc)+E(xc)   XCENC  =       605.12016533
  PAW double counting   =      6339.73130699    -6197.22120962
  entropy T*S    EENTRO =        -0.00000000
  eigenvalues    EBANDS =     -3713.78465708
  atomic energy  EATOM  =      8369.52358910
  ---------------------------------------------------
  free energy    TOTEN  =      -614.74695931 eV

  energy without entropy =     -614.74695931  energy(sigma->0) =     -614.74695931


--------------------------------------------------------------------------------------------------------




--------------------------------------- Iteration      1(   6)  ---------------------------------------


    POTLOK:  cpu time    8.3649: real time    8.4426
    SETDIJ:  cpu time    0.0020: real time    0.0020
    TRIAL :  cpu time   23.1388: real time   23.3583
    CORREC:  cpu time   16.1273: real time   16.2833
    CHARGE:  cpu time    3.2549: real time    3.2779
    --------------------------------------------
      LOOP:  cpu time   50.8909: real time   51.4145

 eigenvalue-minimisations  :     0
 total energy-change (2. order) : 0.1033894E+03  (-0.1192507E+02)
 number of electron     216.0000000 magnetization 
 augmentation part       -0.4919024 magnetization 

 Free energy of the ion-electron system (eV)
  ---------------------------------------------------
  alpha Z        PSCENC =        47.94900195
  Ewald energy   TEWEN  =     48644.60191082
  -Hartree energ DENC   =    -56071.57017355
  -exchange      EXHF   =         0.00000000
  -V(xc)+E(xc)   XCENC  =       671.03569827
  PAW double counting   =    114479.62486912  -114342.79870922
  entropy T*S    EENTRO =        -0.00000000
  eigenvalues    EBANDS =     -2309.72370454
  atomic energy  EATOM  =      8369.52358910
  ---------------------------------------------------
  free energy    TOTEN  =      -511.35751803 eV

  energy without entropy =     -511.35751803  energy(sigma->0) =     -511.35751803


--------------------------------------------------------------------------------------------------------




--------------------------------------- Iteration      1(   7)  ---------------------------------------


    POTLOK:  cpu time    8.3768: real time    8.4338
    SETDIJ:  cpu time    0.0023: real time    0.0023
    TRIAL :  cpu time   22.4016: real time   22.5792
    CORREC:  cpu time   16.1648: real time   16.2808
    CHARGE:  cpu time    3.2449: real time    3.2685
    --------------------------------------------
      LOOP:  cpu time   50.2800: real time   50.6812

 eigenvalue-minimisations  :     0
 total energy-change (2. order) :-0.1193231E+02  (-0.1486782E+01)
 number of electron     216.0000000 magnetization 
 augmentation part       -0.5205379 magnetization 

 Free energy of the ion-electron system (eV)
  ---------------------------------------------------
  alpha Z        PSCENC =        47.94900195
  Ewald energy   TEWEN  =     48644.60191082
  -Hartree energ DENC   =    -55634.24315857
  -exchange      EXHF   =         0.00000000
  -V(xc)+E(xc)   XCENC  =       651.40600153
  PAW double counting   =    132901.56744079  -132762.01232302
  entropy T*S    EENTRO =        -0.00000000
  eigenvalues    EBANDS =     -2742.08229059
  atomic energy  EATOM  =      8369.52358910
  ---------------------------------------------------
  free energy    TOTEN  =      -523.28982799 eV

  energy without entropy =     -523.28982799  energy(sigma->0) =     -523.28982799


--------------------------------------------------------------------------------------------------------




--------------------------------------- Iteration      1(   8)  ---------------------------------------


    POTLOK:  cpu time    8.3991: real time    8.4509
    SETDIJ:  cpu time    0.0022: real time    0.0022
    TRIAL :  cpu time   22.3549: real time   22.5379
    CORREC:  cpu time   16.1589: real time   16.2692
    CHARGE:  cpu time    3.2464: real time    3.2686
    --------------------------------------------
      LOOP:  cpu time   50.1830: real time   50.5561

 eigenvalue-minimisations  :     0
 total energy-change (2. order) :-0.1487820E+01  (-0.4783547E+00)
 number of electron     216.0000000 magnetization 
 augmentation part       -0.5184882 magnetization 

 Free energy of the ion-electron system (eV)
  ---------------------------------------------------
  alpha Z        PSCENC =        47.94900195
  Ewald energy   TEWEN  =     48644.60191082
  -Hartree energ DENC   =    -55613.87577522
  -exchange      EXHF   =         0.00000000
  -V(xc)+E(xc)   XCENC  =       649.99949126
  PAW double counting   =    141000.57008457  -140860.55611700
  entropy T*S    EENTRO =        -0.00000000
  eigenvalues    EBANDS =     -2762.98983332
  atomic energy  EATOM  =      8369.52358910
  ---------------------------------------------------
  free energy    TOTEN  =      -524.77764783 eV

  energy without entropy =     -524.77764783  energy(sigma->0) =     -524.77764783


--------------------------------------------------------------------------------------------------------




--------------------------------------- Iteration      1(   9)  ---------------------------------------


    POTLOK:  cpu time    8.3938: real time    8.4626
    SETDIJ:  cpu time    0.0020: real time    0.0020
    TRIAL :  cpu time   22.3622: real time   22.5444
    CORREC:  cpu time   16.1388: real time   16.2604
    CHARGE:  cpu time    3.2391: real time    3.2678
    --------------------------------------------
      LOOP:  cpu time   50.1654: real time   50.6014

 eigenvalue-minimisations  :     0
 total energy-change (2. order) :-0.4780344E+00  (-0.1831383E+00)
 number of electron     216.0000000 magnetization 
 augmentation part       -0.5128499 magnetization 

 Free energy of the ion-electron system (eV)
  ---------------------------------------------------
  alpha Z        PSCENC =        47.94900195
  Ewald energy   TEWEN  =     48644.60191082
  -Hartree energ DENC   =    -55620.53033760
  -exchange      EXHF   =         0.00000000
  -V(xc)+E(xc)   XCENC  =       649.75204563
  PAW double counting   =    146904.44795347  -146764.24286972
  entropy T*S    EENTRO =        -0.00000000
  eigenvalues    EBANDS =     -2756.75697584
  atomic energy  EATOM  =      8369.52358910
  ---------------------------------------------------
  free energy    TOTEN  =      -525.25568218 eV

  energy without entropy =     -525.25568218  energy(sigma->0) =     -525.25568218


--------------------------------------------------------------------------------------------------------




--------------------------------------- Iteration      1(  10)  ---------------------------------------


    POTLOK:  cpu time    8.3905: real time    8.4445
    SETDIJ:  cpu time    0.0020: real time    0.0020
    TRIAL :  cpu time   22.6252: real time   22.8155
    CORREC:  cpu time   16.2198: real time   16.3645
    CHARGE:  cpu time    3.2431: real time    3.2677
    --------------------------------------------
      LOOP:  cpu time   50.5483: real time   50.9660

 eigenvalue-minimisations  :     0
 total energy-change (2. order) :-0.1829959E+00  (-0.7712487E-01)
 number of electron     216.0000000 magnetization 
 augmentation part       -0.5072507 magnetization 

 Free energy of the ion-electron system (eV)
  ---------------------------------------------------
  alpha Z        PSCENC =        47.94900195
  Ewald energy   TEWEN  =     48644.60191082
  -Hartree energ DENC   =    -55618.45550411
  -exchange      EXHF   =         0.00000000
  -V(xc)+E(xc)   XCENC  =       649.55722700
  PAW double counting   =    149110.43457131  -148970.14239736
  entropy T*S    EENTRO =        -0.00000000
  eigenvalues    EBANDS =     -2758.90707679
  atomic energy  EATOM  =      8369.52358910
  ---------------------------------------------------
  free energy    TOTEN  =      -525.43867807 eV

  energy without entropy =     -525.43867807  energy(sigma->0) =     -525.43867807


--------------------------------------------------------------------------------------------------------




--------------------------------------- Iteration      1(  11)  ---------------------------------------


    POTLOK:  cpu time    8.4035: real time    8.4641
    SETDIJ:  cpu time    0.0024: real time    0.0024
    TRIAL :  cpu time   22.3377: real time   22.5328
    CORREC:  cpu time   16.1611: real time   16.2758
    CHARGE:  cpu time    3.2489: real time    3.2737
    --------------------------------------------
      LOOP:  cpu time   50.2192: real time   50.6287

 eigenvalue-minimisations  :     0
 total energy-change (2. order) :-0.7690366E-01  (-0.3058660E-01)
 number of electron     216.0000000 magnetization 
 augmentation part       -0.5041581 magnetization 

 Free energy of the ion-electron system (eV)
  ---------------------------------------------------
  alpha Z        PSCENC =        47.94900195
  Ewald energy   TEWEN  =     48644.60191082
  -Hartree energ DENC   =    -55612.72931987
  -exchange      EXHF   =         0.00000000
  -V(xc)+E(xc)   XCENC  =       649.43312306
  PAW double counting   =    149005.89838141  -148865.60560728
  entropy T*S    EENTRO =        -0.00000000
  eigenvalues    EBANDS =     -2764.58666093
  atomic energy  EATOM  =      8369.52358910
  ---------------------------------------------------
  free energy    TOTEN  =      -525.51558174 eV

  energy without entropy =     -525.51558174  energy(sigma->0) =     -525.51558174


--------------------------------------------------------------------------------------------------------




--------------------------------------- Iteration      1(  12)  ---------------------------------------


    POTLOK:  cpu time    8.3819: real time    8.4532
    SETDIJ:  cpu time    0.0020: real time    0.0020
    TRIAL :  cpu time   22.3916: real time   22.5697
    CORREC:  cpu time   16.1182: real time   16.2612
    CHARGE:  cpu time    3.2572: real time    3.2814
    --------------------------------------------
      LOOP:  cpu time   50.2016: real time   50.6255

 eigenvalue-minimisations  :     0
 total energy-change (2. order) :-0.3048725E-01  (-0.9930474E-02)
 number of electron     216.0000000 magnetization 
 augmentation part       -0.5042177 magnetization 

 Free energy of the ion-electron system (eV)
  ---------------------------------------------------
  alpha Z        PSCENC =        47.94900195
  Ewald energy   TEWEN  =     48644.60191082
  -Hartree energ DENC   =    -55608.22687979
  -exchange      EXHF   =         0.00000000
  -V(xc)+E(xc)   XCENC  =       649.33658344
  PAW double counting   =    148318.46799764  -148178.19836867
  entropy T*S    EENTRO =        -0.00000000
  eigenvalues    EBANDS =     -2768.99990348
  atomic energy  EATOM  =      8369.52358910
  ---------------------------------------------------
  free energy    TOTEN  =      -525.54606899 eV

  energy without entropy =     -525.54606899  energy(sigma->0) =     -525.54606899


--------------------------------------------------------------------------------------------------------




--------------------------------------- Iteration      1(  13)  ---------------------------------------


    POTLOK:  cpu time    8.3825: real time    8.4372
    SETDIJ:  cpu time    0.0020: real time    0.0021
    TRIAL :  cpu time   22.3958: real time   22.5558
    CORREC:  cpu time   16.1755: real time   16.2878
    CHARGE:  cpu time    3.2459: real time    3.2691
    --------------------------------------------
      LOOP:  cpu time   50.2634: real time   50.6155

 eigenvalue-minimisations  :     0
 total energy-change (2. order) :-0.9914018E-02  (-0.2731680E-02)
 number of electron     216.0000000 magnetization 
 augmentation part       -0.5048175 magnetization 

 Free energy of the ion-electron system (eV)
  ---------------------------------------------------
  alpha Z        PSCENC =        47.94900195
  Ewald energy   TEWEN  =     48644.60191082
  -Hartree energ DENC   =    -55606.61514695
  -exchange      EXHF   =         0.00000000
  -V(xc)+E(xc)   XCENC  =       649.28394286
  PAW double counting   =    147801.27749731  -147661.01956222
  entropy T*S    EENTRO =        -0.00000000
  eigenvalues    EBANDS =     -2770.55721588
  atomic energy  EATOM  =      8369.52358910
  ---------------------------------------------------
  free energy    TOTEN  =      -525.55598300 eV

  energy without entropy =     -525.55598300  energy(sigma->0) =     -525.55598300


--------------------------------------------------------------------------------------------------------




--------------------------------------- Iteration      1(  14)  ---------------------------------------


    POTLOK:  cpu time    8.4091: real time    8.4620
    SETDIJ:  cpu time    0.0021: real time    0.0021
    TRIAL :  cpu time   22.3686: real time   22.5479
    CORREC:  cpu time   16.1634: real time   16.2739
    CHARGE:  cpu time    3.2502: real time    3.2781
    --------------------------------------------
      LOOP:  cpu time   50.2972: real time   50.6690

 eigenvalue-minimisations  :     0
 total energy-change (2. order) :-0.2734432E-02  (-0.7005487E-03)
 number of electron     216.0000000 magnetization 
 augmentation part       -0.5050605 magnetization 

 Free energy of the ion-electron system (eV)
  ---------------------------------------------------
  alpha Z        PSCENC =        47.94900195
  Ewald energy   TEWEN  =     48644.60191082
  -Hartree energ DENC   =    -55606.62009271
  -exchange      EXHF   =         0.00000000
  -V(xc)+E(xc)   XCENC  =       649.28032663
  PAW double counting   =    147573.24934894  -147432.99686157
  entropy T*S    EENTRO =        -0.00000000
  eigenvalues    EBANDS =     -2770.54594060
  atomic energy  EATOM  =      8369.52358910
  ---------------------------------------------------
  free energy    TOTEN  =      -525.55871743 eV

  energy without entropy =     -525.55871743  energy(sigma->0) =     -525.55871743


--------------------------------------------------------------------------------------------------------




--------------------------------------- Iteration      1(  15)  ---------------------------------------


    POTLOK:  cpu time    8.3948: real time    8.4499
    SETDIJ:  cpu time    0.0021: real time    0.0021
    TRIAL :  cpu time   22.3638: real time   22.5440
    CORREC:  cpu time   16.1588: real time   16.2713
    CHARGE:  cpu time    3.2540: real time    3.2771
    --------------------------------------------
      LOOP:  cpu time   50.1884: real time   50.5617

 eigenvalue-minimisations  :     0
 total energy-change (2. order) :-0.7062167E-03  (-0.1829373E-03)
 number of electron     216.0000000 magnetization 
 augmentation part       -0.5051532 magnetization 

 Free energy of the ion-electron system (eV)
  ---------------------------------------------------
  alpha Z        PSCENC =        47.94900195
  Ewald energy   TEWEN  =     48644.60191082
  -Hartree energ DENC   =    -55606.56461824
  -exchange      EXHF   =         0.00000000
  -V(xc)+E(xc)   XCENC  =       649.28192316
  PAW double counting   =    147485.00302038  -147344.75291877
  entropy T*S    EENTRO =        -0.00000000
  eigenvalues    EBANDS =     -2770.60133205
  atomic energy  EATOM  =      8369.52358910
  ---------------------------------------------------
  free energy    TOTEN  =      -525.55942365 eV

  energy without entropy =     -525.55942365  energy(sigma->0) =     -525.55942365


--------------------------------------------------------------------------------------------------------




--------------------------------------- Iteration      1(  16)  ---------------------------------------


    POTLOK:  cpu time    8.4104: real time    8.4630
    SETDIJ:  cpu time    0.0021: real time    0.0021
    TRIAL :  cpu time   22.3743: real time   22.5454
    CORREC:  cpu time   16.1431: real time   16.3012
    CHARGE:  cpu time    3.2548: real time    3.2861
    --------------------------------------------
      LOOP:  cpu time   50.2330: real time   50.6470

 eigenvalue-minimisations  :     0
 total energy-change (2. order) :-0.1870468E-03  (-0.6202718E-04)
 number of electron     216.0000000 magnetization 
 augmentation part       -0.5051761 magnetization 

 Free energy of the ion-electron system (eV)
  ---------------------------------------------------
  alpha Z        PSCENC =        47.94900195
  Ewald energy   TEWEN  =     48644.60191082
  -Hartree energ DENC   =    -55606.48214928
  -exchange      EXHF   =         0.00000000
  -V(xc)+E(xc)   XCENC  =       649.28156690
  PAW double counting   =    147435.08718266  -147294.83761194
  entropy T*S    EENTRO =        -0.00000000
  eigenvalues    EBANDS =     -2770.68310093
  atomic energy  EATOM  =      8369.52358910
  ---------------------------------------------------
  free energy    TOTEN  =      -525.55961070 eV

  energy without entropy =     -525.55961070  energy(sigma->0) =     -525.55961070


--------------------------------------------------------------------------------------------------------




--------------------------------------- Iteration      1(  17)  ---------------------------------------


    POTLOK:  cpu time    8.3959: real time    8.4488
    SETDIJ:  cpu time    0.0021: real time    0.0021
    TRIAL :  cpu time   22.3714: real time   22.5443
    CORREC:  cpu time   16.1657: real time   16.2707
    CHARGE:  cpu time    3.2448: real time    3.2713
    --------------------------------------------
      LOOP:  cpu time   50.1925: real time   50.5677

 eigenvalue-minimisations  :     0
 total energy-change (2. order) :-0.6223028E-04  (-0.2472871E-04)
 number of electron     216.0000000 magnetization 
 augmentation part       -0.5051859 magnetization 

 Free energy of the ion-electron system (eV)
  ---------------------------------------------------
  alpha Z        PSCENC =        47.94900195
  Ewald energy   TEWEN  =     48644.60191082
  -Hartree energ DENC   =    -55606.60966275
  -exchange      EXHF   =         0.00000000
  -V(xc)+E(xc)   XCENC  =       649.28766678
  PAW double counting   =    147395.43594314  -147255.18696737
  entropy T*S    EENTRO =        -0.00000000
  eigenvalues    EBANDS =     -2770.56115461
  atomic energy  EATOM  =      8369.52358910
  ---------------------------------------------------
  free energy    TOTEN  =      -525.55967293 eV

  energy without entropy =     -525.55967293  energy(sigma->0) =     -525.55967293


--------------------------------------------------------------------------------------------------------




--------------------------------------- Iteration      1(  18)  ---------------------------------------


    POTLOK:  cpu time    8.4064: real time    8.4729
    SETDIJ:  cpu time    0.0020: real time    0.0020
    TRIAL :  cpu time   22.3890: real time   22.5598
    CORREC:  cpu time   16.1603: real time   16.2798
    CHARGE:  cpu time    3.2584: real time    3.2814
    --------------------------------------------
      LOOP:  cpu time   50.2422: real time   50.6285

 eigenvalue-minimisations  :     0
 total energy-change (2. order) :-0.2406072E-04  (-0.8892261E-05)
 number of electron     216.0000000 magnetization 
 augmentation part       -0.5052128 magnetization 

 Free energy of the ion-electron system (eV)
  ---------------------------------------------------
  alpha Z        PSCENC =        47.94900195
  Ewald energy   TEWEN  =     48644.60191082
  -Hartree energ DENC   =    -55606.71874437
  -exchange      EXHF   =         0.00000000
  -V(xc)+E(xc)   XCENC  =       649.29185196
  PAW double counting   =    147374.29146847  -147234.04256066
  entropy T*S    EENTRO =        -0.00000000
  eigenvalues    EBANDS =     -2770.45621426
  atomic energy  EATOM  =      8369.52358910
  ---------------------------------------------------
  free energy    TOTEN  =      -525.55969699 eV

  energy without entropy =     -525.55969699  energy(sigma->0) =     -525.55969699


--------------------------------------------------------------------------------------------------------




--------------------------------------- Iteration      1(  19)  ---------------------------------------


    POTLOK:  cpu time    8.4004: real time    8.4586
    SETDIJ:  cpu time    0.0022: real time    0.0022
    TRIAL :  cpu time   22.3680: real time   22.5341
    CORREC:  cpu time   16.1473: real time   16.2930
    CHARGE:  cpu time    3.2349: real time    3.2744
    --------------------------------------------
      LOOP:  cpu time   50.2635: real time   50.6773

 eigenvalue-minimisations  :     0
 total energy-change (2. order) :-0.9065203E-05  (-0.8127496E-05)
 number of electron     216.0000000 magnetization 
 augmentation part       -0.5052433 magnetization 

 Free energy of the ion-electron system (eV)
  ---------------------------------------------------
  alpha Z        PSCENC =        47.94900195
  Ewald energy   TEWEN  =     48644.60191082
  -Hartree energ DENC   =    -55606.72763121
  -exchange      EXHF   =         0.00000000
  -V(xc)+E(xc)   XCENC  =       649.29165003
  PAW double counting   =    147373.86737896  -147233.61803322
  entropy T*S    EENTRO =        -0.00000000
  eigenvalues    EBANDS =     -2770.44757249
  atomic energy  EATOM  =      8369.52358910
  ---------------------------------------------------
  free energy    TOTEN  =      -525.55970605 eV

  energy without entropy =     -525.55970605  energy(sigma->0) =     -525.55970605


--------------------------------------------------------------------------------------------------------




--------------------------------------- Iteration      1(  20)  ---------------------------------------


    POTLOK:  cpu time    8.3911: real time    8.4442
    SETDIJ:  cpu time    0.0021: real time    0.0021
    TRIAL :  cpu time   22.3432: real time   22.5293
    CORREC:  cpu time   16.1602: real time   16.2751
    CHARGE:  cpu time    3.2396: real time    3.2626
    --------------------------------------------
      LOOP:  cpu time   50.1897: real time   50.5711

 eigenvalue-minimisations  :     0
 total energy-change (2. order) :-0.1163135E-05  (-0.5360549E-05)
 number of electron     216.0000000 magnetization 
 augmentation part       -0.5052387 magnetization 

 Free energy of the ion-electron system (eV)
  ---------------------------------------------------
  alpha Z        PSCENC =        47.94900195
  Ewald energy   TEWEN  =     48644.60191082
  -Hartree energ DENC   =    -55606.76680951
  -exchange      EXHF   =         0.00000000
  -V(xc)+E(xc)   XCENC  =       649.29233987
  PAW double counting   =    147389.55263204  -147249.30287303
  entropy T*S    EENTRO =        -0.00000000
  eigenvalues    EBANDS =     -2770.40949846
  atomic energy  EATOM  =      8369.52358910
  ---------------------------------------------------
  free energy    TOTEN  =      -525.55970722 eV

  energy without entropy =     -525.55970722  energy(sigma->0) =     -525.55970722


--------------------------------------------------------------------------------------------------------




--------------------------------------- Iteration      1(  21)  ---------------------------------------


    POTLOK:  cpu time    8.4051: real time    8.4648
    SETDIJ:  cpu time    0.0022: real time    0.0022
    TRIAL :  cpu time   22.3752: real time   22.5478
    CORREC:  cpu time   16.1360: real time   16.2893
    CHARGE:  cpu time    3.2452: real time    3.2691
    --------------------------------------------
      LOOP:  cpu time   50.2129: real time   50.6419

 eigenvalue-minimisations  :     0
 total energy-change (2. order) :-0.5249545E-05  (-0.8094382E-06)
 number of electron     216.0000000 magnetization 
 augmentation part       -0.5052264 magnetization 

 Free energy of the ion-electron system (eV)
  ---------------------------------------------------
  alpha Z        PSCENC =        47.94900195
  Ewald energy   TEWEN  =     48644.60191082
  -Hartree energ DENC   =    -55606.75529208
  -exchange      EXHF   =         0.00000000
  -V(xc)+E(xc)   XCENC  =       649.29182952
  PAW double counting   =    147388.03454438  -147247.78483031
  entropy T*S    EENTRO =        -0.00000000
  eigenvalues    EBANDS =     -2770.42046585
  atomic energy  EATOM  =      8369.52358910
  ---------------------------------------------------
  free energy    TOTEN  =      -525.55971247 eV

  energy without entropy =     -525.55971247  energy(sigma->0) =     -525.55971247


--------------------------------------------------------------------------------------------------------




--------------------------------------- Iteration      1(  22)  ---------------------------------------


    POTLOK:  cpu time    8.4287: real time    8.4873
    SETDIJ:  cpu time    0.0020: real time    0.0020
    TRIAL :  cpu time   22.3669: real time   22.5485
    CORREC:  cpu time   16.1581: real time   16.2898
    CHARGE:  cpu time    3.3847: real time    3.4096
    --------------------------------------------
      LOOP:  cpu time   50.4040: real time   50.8038

 eigenvalue-minimisations  :     0
 total energy-change (2. order) :-0.7936032E-06  (-0.8599339E-07)
 number of electron     216.0000000 magnetization 
 augmentation part       -0.5052250 magnetization 

 Free energy of the ion-electron system (eV)
  ---------------------------------------------------
  alpha Z        PSCENC =        47.94900195
  Ewald energy   TEWEN  =     48644.60191082
  -Hartree energ DENC   =    -55606.75569081
  -exchange      EXHF   =         0.00000000
  -V(xc)+E(xc)   XCENC  =       649.29194747
  PAW double counting   =    147387.09590020  -147246.84634021
  entropy T*S    EENTRO =        -0.00000000
  eigenvalues    EBANDS =     -2770.42003178
  atomic energy  EATOM  =      8369.52358910
  ---------------------------------------------------
  free energy    TOTEN  =      -525.55971326 eV

  energy without entropy =     -525.55971326  energy(sigma->0) =     -525.55971326


--------------------------------------------------------------------------------------------------------




--------------------------------------- Iteration      1(  23)  ---------------------------------------


    POTLOK:  cpu time    9.9770: real time   10.0330
    SETDIJ:  cpu time    0.0039: real time    0.0319
    TRIAL :  cpu time   22.4009: real time   22.5896
    CORREC:  cpu time   16.1682: real time   16.2918
    EDDIAG:  cpu time    4.6154: real time    4.6528
    CHARGE:  cpu time    3.2460: real time    3.2707
    --------------------------------------------
      LOOP:  cpu time   56.4577: real time   56.9232

 eigenvalue-minimisations  :     0
 total energy-change (2. order) :-0.7392373E-08  (-0.4301225E-07)
 number of electron     216.0000000 magnetization 
 augmentation part       -0.5052250 magnetization 

 Free energy of the ion-electron system (eV)
  ---------------------------------------------------
  alpha Z        PSCENC =        47.94900195
  Ewald energy   TEWEN  =     48644.60191082
  -Hartree energ DENC   =    -55606.75164165
  -exchange      EXHF   =         0.00000000
  -V(xc)+E(xc)   XCENC  =       649.29182256
  PAW double counting   =    147387.21511391  -147246.96556944
  entropy T*S    EENTRO =        -0.00000000
  eigenvalues    EBANDS =     -2770.42394052
  atomic energy  EATOM  =      8369.52358910
  ---------------------------------------------------
  free energy    TOTEN  =      -525.55971327 eV

  energy without entropy =     -525.55971327  energy(sigma->0) =     -525.55971327


--------------------------------------------------------------------------------------------------------


  average scaling for gradient   0.8469


 average (electrostatic) potential at core
  the test charge radii are     0.5770  0.5955
  (the norm of the test charge is              1.0000)
       1 -88.0907       2 -88.0796       3 -88.0992       4 -88.0989       5 -88.0750
       6 -88.0675       7 -88.0789       8 -88.0405       9 -88.0672      10 -88.0600
      11 -88.0724      12 -88.0831      13 -88.0613      14 -88.0574      15 -88.0726
      16 -88.0700      17 -88.0770      18 -88.0788      19 -88.0854      20 -88.0777
      21 -88.0567      22 -88.0607      23 -88.0975      24 -88.0773      25 -88.0735
      26 -88.0752      27 -88.0629      28 -88.0907      29 -88.0685      30 -88.0702
      31 -88.1025      32 -88.0838      33 -88.0901      34 -88.0777      35 -88.0689
      36 -88.0777      37 -88.0754      38 -88.0831      39 -88.0825      40 -88.0789
      41 -88.0826      42 -88.0878      43 -88.0779      44 -88.0877      45 -88.0714
      46 -88.0689      47 -88.0850      48 -88.0776      49 -88.0829      50 -88.0816
      51 -92.0532      52-124.1379      53-124.1589
 
 
 
 E-fermi :  -4.3936     XC(G=0):  -1.8346     alpha+bet : -1.6890

 Fermi energy:        -4.3936223937

 k-point     1 :       0.0000    0.0000    0.0000
  band No.  band energies     occupation 
      1     -29.1529      2.00000
      2     -28.1133      2.00000
      3     -23.5912      2.00000
      4     -22.6302      2.00000
      5     -22.6103      2.00000
      6     -22.6016      2.00000
      7     -22.5995      2.00000
      8     -22.5967      2.00000
      9     -22.5903      2.00000
     10     -20.6924      2.00000
     11     -20.6810      2.00000
     12     -20.6689      2.00000
     13     -20.6683      2.00000
     14     -20.6648      2.00000
     15     -20.6642      2.00000
     16     -19.7520      2.00000
     17     -19.7425      2.00000
     18     -19.7360      2.00000
     19     -19.7341      2.00000
     20     -19.7312      2.00000
     21     -19.7300      2.00000
     22     -17.5310      2.00000
     23     -17.5249      2.00000
     24     -17.5165      2.00000
     25     -17.5128      2.00000
     26     -17.5074      2.00000
     27     -17.5061      2.00000
     28     -16.3698      2.00000
     29     -16.3646      2.00000
     30     -16.3569      2.00000
     31     -16.3551      2.00000
     32     -16.3523      2.00000
     33     -16.3506      2.00000
     34     -14.9741      2.00000
     35     -14.9688      2.00000
     36     -14.9667      2.00000
     37     -14.9631      2.00000
     38     -14.9611      2.00000
     39     -14.9605      2.00000
     40     -13.1785      2.00000
     41     -12.5175      2.00000
     42     -12.5135      2.00000
     43     -12.5032      2.00000
     44     -12.5016      2.00000
     45     -12.5005      2.00000
     46     -12.4943      2.00000
     47     -12.3054      2.00000
     48     -12.2939      2.00000
     49     -12.2895      2.00000
     50     -12.2875      2.00000
     51     -12.2807      2.00000
     52     -12.2790      2.00000
     53     -11.9835      2.00000
     54     -11.8989      2.00000
     55     -11.6343      2.00000
     56     -10.8554      2.00000
     57     -10.8425      2.00000
     58     -10.8406      2.00000
     59     -10.8390      2.00000
     60     -10.8381      2.00000
     61     -10.8360      2.00000
     62     -10.8268      2.00000
     63      -9.7847      2.00000
     64      -9.7769      2.00000
     65      -9.7753      2.00000
     66      -9.7726      2.00000
     67      -9.7649      2.00000
     68      -9.5545      2.00000
     69      -9.5486      2.00000
     70      -9.5452      2.00000
     71      -9.5412      2.00000
     72      -9.5380      2.00000
     73      -9.5362      2.00000
     74      -9.5356      2.00000
     75      -9.5340      2.00000
     76      -9.5331      2.00000
     77      -9.5324      2.00000
     78      -9.5312      2.00000
     79      -9.5292      2.00000
     80      -9.4804      2.00000
     81      -8.2575      2.00000
     82      -8.0677      2.00000
     83      -7.8364      2.00000
     84      -7.8343      2.00000
     85      -7.8328      2.00000
     86      -7.8263      2.00000
     87      -7.8257      2.00000
     88      -7.8242      2.00000
     89      -7.5447      2.00000
     90      -7.5305      2.00000
     91      -7.5270      2.00000
     92      -7.4939      2.00000
     93      -7.4694      2.00000
     94      -7.2935      2.00000
     95      -6.6009      2.00000
     96      -6.5956      2.00000
     97      -6.5874      2.00000
     98      -6.5717      2.00000
     99      -6.5495      2.00000
    100      -6.4203      2.00000
    101      -6.3151      2.00000
    102      -6.3121      2.00000
    103      -4.5164      2.00000
    104      -4.5062      2.00000
    105      -4.4889      2.00000
    106      -4.4865      2.00000
    107      -4.4860      2.00000
    108      -4.4665      2.00000
    109      -1.5713      0.00000
    110      -1.5558      0.00000
    111      -1.5226      0.00000
    112      -1.5166      0.00000
    113      -1.5131      0.00000
    114      -1.4938      0.00000
    115       0.3668      0.00000
    116       0.4090      0.00000
    117       0.4409      0.00000
    118       0.4560      0.00000
    119       0.4653      0.00000
    120       0.4799      0.00000
    121       0.5799      0.00000
    122       1.2727      0.00000
    123       1.2765      0.00000
    124       1.3924      0.00000
    125       1.5349      0.00000
    126       1.7100      0.00000
    127       1.9120      0.00000
    128       1.9366      0.00000
    129       1.9378      0.00000
    130       1.9445      0.00000
    131       2.0665      0.00000
    132       2.1016      0.00000
    133       2.3076      0.00000
    134       2.3251      0.00000
    135       2.3427      0.00000
    136       2.3447      0.00000
    137       2.3586      0.00000
    138       2.3720      0.00000
    139       2.4378      0.00000
    140       2.5651      0.00000
    141       2.6333      0.00000
    142       2.6964      0.00000
    143       2.7028      0.00000
    144       2.7038      0.00000
    145       2.7353      0.00000
    146       2.8501      0.00000
    147       2.8520      0.00000
    148       2.8649      0.00000
    149       2.8828      0.00000
    150       2.9289      0.00000
    151       3.2667      0.00000
    152       3.5285      0.00000
    153       3.6137      0.00000
    154       3.6736      0.00000
    155       3.6975      0.00000
    156       3.9310      0.00000
    157       4.1660      0.00000
    158       4.3808      0.00000
    159       4.6016      0.00000
    160       4.7895      0.00000
    161       4.9081      0.00000
    162       4.9109      0.00000
    163       4.9232      0.00000
    164       4.9261      0.00000
    165       4.9369      0.00000
    166       4.9424      0.00000
    167       5.0182      0.00000
    168       5.2430      0.00000


--------------------------------------------------------------------------------------------------------


 soft charge-density along one line, spin component           1
         0         1         2         3         4         5         6         7         8         9
 total charge-density along one line
 
 pseudopotential strength for first ion, spin component:           1
 12.644  21.274  -0.000   0.000   0.000  -0.000   0.000   0.000
 21.274  35.794  -0.000   0.000   0.000  -0.000   0.000   0.000
 -0.000  -0.000  -3.240   0.000   0.000  -5.804   0.000   0.000
  0.000   0.000   0.000  -3.243   0.000   0.000  -5.810   0.000
  0.000   0.000   0.000   0.000  -3.240   0.000   0.000  -5.804
 -0.000  -0.000  -5.804   0.000   0.000 -10.376   0.000   0.000
  0.000   0.000   0.000  -5.810   0.000   0.000 -10.386   0.000
  0.000   0.000   0.000   0.000  -5.804   0.000   0.000 -10.376
 total augmentation occupancy for first ion, spin component:           1
  9.641  -3.598   0.000  -0.002  -0.000  -0.000   0.001   0.000
 -3.598   1.373  -0.000   0.001   0.000   0.000  -0.000  -0.000
  0.000  -0.000   8.196  -0.009   0.001  -2.895   0.003  -0.000
 -0.002   0.001  -0.009   3.779  -0.000   0.003  -1.105  -0.000
 -0.000   0.000   0.001  -0.000   8.194  -0.000   0.000  -2.894
 -0.000   0.000  -2.895   0.003  -0.000   1.035  -0.001   0.000
  0.001  -0.000   0.003  -1.105   0.000  -0.001   0.329   0.000
  0.000  -0.000  -0.000  -0.000  -2.894   0.000   0.000   1.035


------------------------ aborting loop because EDIFF is reached ----------------------------------------


    FORLOC:  cpu time    0.1436: real time    0.1446
    FORNL :  cpu time    4.1485: real time    4.1814
    FORCOR:  cpu time    8.2893: real time    8.3521
    OFIELD:  cpu time    0.0033: real time    0.0034

 VOLUME and BASIS-vectors are now :
 -----------------------------------------------------------------------------
  energy-cutoff  :     1000.00
  volume of cell :     3288.85
      direct lattice vectors                 reciprocal lattice vectors
    12.325000000  0.000000000  0.000000000     0.081135903  0.046843835  0.000000000
    -6.162500000 10.673763102  0.000000000     0.000000000  0.093687670  0.000000000
     0.000000000  0.000000000 25.000000000     0.000000000  0.000000000  0.040000000

  length of vectors
    12.325000000 12.325000000 25.000000000     0.093687670  0.093687670  0.040000000


 FORCES acting on ions:
    Electron-Ion                     Ewald-Force                    Non-Local-Force
 -----------------------------------------------------------------------------------------------
   0.147E+02 0.130E+02 0.238E+02   -.147E+02 -.130E+02 -.238E+02   0.428E-02 -.512E-02 0.229E-01
   0.257E+02 0.130E+02 0.333E+02   -.257E+02 -.129E+02 -.333E+02   0.269E-01 -.167E-04 -.447E-03
   0.137E+02 0.341E+02 0.439E+02   -.137E+02 -.342E+02 -.439E+02   0.143E-01 0.825E-01 0.768E-01
   0.247E+02 0.365E+02 0.824E+02   -.249E+02 -.366E+02 -.826E+02   0.159E+00 0.816E-01 0.927E-01
   0.162E+02 0.387E+01 0.239E+02   -.162E+02 -.385E+01 -.239E+02   -.131E-01 -.109E-01 -.266E-02
   0.172E+02 -.279E+01 0.246E+02   -.172E+02 0.280E+01 -.246E+02   -.444E-01 0.873E-05 -.961E-02
   0.398E+02 0.176E+02 0.674E+02   -.400E+02 -.175E+02 -.674E+02   0.611E-01 -.116E+00 -.125E+00
   0.408E+02 -.131E+02 0.750E+02   -.408E+02 0.132E+02 -.748E+02   -.774E-01 -.123E-01 -.443E+00
   -.148E+02 0.327E+02 0.467E+02   0.148E+02 -.326E+02 -.467E+02   -.102E-01 0.909E-02 -.846E-01
   -.307E+02 0.267E+02 0.831E+02   0.308E+02 -.267E+02 -.829E+02   -.433E-01 0.162E-01 -.523E+00
   0.387E+01 -.330E+01 0.184E+02   -.384E+01 0.327E+01 -.184E+02   -.134E-01 0.747E-02 -.874E-02
   0.298E+01 -.239E+01 0.169E+02   -.299E+01 0.240E+01 -.169E+02   -.122E-01 -.157E-02 0.996E-03
   0.146E+02 -.393E+02 0.896E+02   -.148E+02 0.394E+02 -.894E+02   0.155E+00 0.921E-01 -.553E+00
   0.600E+01 -.351E+02 0.451E+02   -.605E+01 0.350E+02 -.451E+02   0.363E-01 -.354E-01 -.557E-01
   -.146E+02 0.923E+01 0.236E+02   0.146E+02 -.921E+01 -.236E+02   0.245E-01 -.115E-01 -.527E-02
   -.225E+02 0.619E+01 0.289E+02   0.225E+02 -.619E+01 -.288E+02   0.474E-02 0.543E-02 -.300E-01
   -.201E+01 -.824E+00 0.162E+02   0.202E+01 0.833E+00 -.162E+02   0.599E-02 -.270E-01 0.283E-02
   0.116E+01 0.758E+01 0.175E+02   -.117E+01 -.757E+01 -.175E+02   -.264E-02 -.630E-02 0.104E-01
   -.475E+01 -.266E+02 0.313E+02   0.473E+01 0.266E+02 -.313E+02   0.420E-01 -.337E-02 0.322E-01
   -.182E+01 -.119E+02 0.197E+02   0.183E+01 0.119E+02 -.197E+02   -.175E-01 -.147E-01 0.177E-03
   0.278E+02 -.120E+02 0.373E+02   -.277E+02 0.119E+02 -.372E+02   -.675E-02 -.137E-03 -.545E-01
   0.154E+02 -.134E+02 0.269E+02   -.153E+02 0.134E+02 -.269E+02   -.191E-01 0.370E-01 -.441E-02
   -.709E+01 0.189E+02 0.119E+03   0.730E+01 -.191E+02 -.119E+03   -.236E+00 0.170E+00 -.375E+00
   -.161E+02 -.304E+02 0.108E+03   0.160E+02 0.306E+02 -.108E+03   0.182E+00 -.152E+00 -.270E+00
   0.665E+01 -.302E+01 0.186E+02   -.661E+01 0.302E+01 -.186E+02   -.154E-01 -.268E-02 -.134E-01
   0.113E+01 0.601E+01 0.188E+02   -.113E+01 -.601E+01 -.188E+02   0.218E-03 -.230E-02 -.124E-02
   -.385E+02 0.378E+01 0.538E+02   0.384E+02 -.387E+01 -.537E+02   0.132E-01 0.444E-01 -.126E+00
   -.335E+02 -.150E+02 0.457E+02   0.335E+02 0.149E+02 -.457E+02   -.593E-01 0.568E-01 0.427E-01
   0.939E+01 -.195E+02 0.285E+02   -.941E+01 0.195E+02 -.285E+02   0.335E-02 0.244E-01 -.185E-01
   0.863E+00 -.673E+01 0.200E+02   -.891E+00 0.670E+01 -.200E+02   0.108E-01 0.148E-01 -.880E-02
   -.287E+02 -.316E+02 0.599E+02   0.288E+02 0.316E+02 -.600E+02   -.100E+00 -.767E-01 0.145E+00
   -.146E+02 -.264E+02 0.341E+02   0.146E+02 0.265E+02 -.341E+02   -.140E-01 -.574E-01 0.366E-01
   0.750E+00 0.309E+01 0.168E+02   -.735E+00 -.310E+01 -.168E+02   -.617E-02 -.731E-02 0.494E-02
   0.219E+01 0.318E+01 0.184E+02   -.219E+01 -.314E+01 -.183E+02   -.106E-01 -.865E-02 -.855E-02
   -.100E+02 0.113E+01 0.206E+02   0.100E+02 -.114E+01 -.206E+02   0.846E-02 0.624E-02 -.181E-02
   -.850E+01 -.334E+01 0.199E+02   0.851E+01 0.333E+01 -.199E+02   -.134E-01 0.107E-01 -.105E-01
   -.177E+02 -.932E+01 0.247E+02   0.178E+02 0.932E+01 -.247E+02   -.237E-01 -.879E-02 0.656E-03
   -.978E+01 -.798E+01 0.195E+02   0.979E+01 0.799E+01 -.195E+02   -.125E-01 -.114E-01 0.106E-01
   -.930E+01 -.122E+02 0.213E+02   0.932E+01 0.122E+02 -.213E+02   -.176E-01 -.339E-01 0.604E-02
   -.134E+01 -.280E+01 0.174E+02   0.134E+01 0.282E+01 -.174E+02   -.119E-01 -.137E-01 0.938E-02
   0.349E+01 0.821E+01 0.184E+02   -.348E+01 -.823E+01 -.184E+02   -.366E-03 0.615E-02 0.912E-02
   0.121E+02 0.189E+02 0.258E+02   -.121E+02 -.189E+02 -.258E+02   0.191E-01 0.287E-01 0.166E-01
   0.928E+00 0.151E+02 0.211E+02   -.931E+00 -.151E+02 -.211E+02   0.911E-02 0.854E-02 -.296E-03
   0.499E+00 0.310E+02 0.361E+02   -.477E+00 -.311E+02 -.361E+02   -.446E-01 0.134E-01 0.412E-01
   -.288E+01 0.577E+01 0.201E+02   0.288E+01 -.576E+01 -.201E+02   0.116E-01 -.108E-01 -.115E-01
   -.127E+02 0.164E+02 0.271E+02   0.127E+02 -.164E+02 -.271E+02   0.124E-01 -.551E-02 -.203E-01
   -.192E+01 -.555E+01 0.182E+02   0.192E+01 0.555E+01 -.182E+02   0.673E-02 0.297E-02 -.165E-02
   -.521E+01 0.217E+01 0.174E+02   0.519E+01 -.217E+01 -.174E+02   0.580E-02 -.500E-02 -.102E-01
   0.387E+00 -.343E+01 0.170E+02   -.362E+00 0.342E+01 -.170E+02   -.725E-02 -.924E-02 0.599E-02
   0.544E+01 0.401E+01 0.173E+02   -.543E+01 -.401E+01 -.173E+02   -.163E-01 0.143E-01 0.618E-02
   0.563E+00 -.283E+00 -.438E+03   -.545E+00 0.257E+00 0.439E+03   -.692E-01 0.358E-01 -.146E+00
   -.228E+03 0.155E+03 -.673E+03   0.279E+03 -.189E+03 0.675E+03   -.520E+02 0.356E+02 -.172E+01
   0.229E+03 -.154E+03 -.649E+03   -.279E+03 0.189E+03 0.645E+03   0.520E+02 -.357E+02 0.478E+01
 -----------------------------------------------------------------------------------------------
   0.653E-01 0.489E-01 -.727E+00   0.171E-12 -.142E-12 -.796E-12   -.926E-01 -.196E-01 0.707E+00
 
 
 POSITION                                       TOTAL-FORCE (eV/Angst)
 -----------------------------------------------------------------------------------
     11.98348      0.00342      0.01417        -0.010772     -0.001605      0.000823
     -0.34154      1.42665      0.01100         0.016100      0.039280      0.002581
      2.12355      0.00315      0.01249         0.025147     -0.025924      0.018591
      2.12326      1.42653      0.00641         0.006951      0.029116     -0.092894
     10.75099      2.13819      0.01213        -0.012870      0.021026      0.005329
     -1.57382      3.56123      0.01110        -0.030048      0.016226      0.003464
      0.89078      2.13854      0.00548        -0.049641      0.043731     -0.083376
      0.89099      3.56147      0.00181        -0.060932      0.063988     -0.233489
      4.58864      0.00346      0.01135         0.040278      0.089086     -0.014996
      4.58894      1.42623      0.00646         0.106250     -0.055252     -0.323485
      9.51854      4.27281      0.01369         0.021115     -0.018953     -0.000395
     -2.80632      5.69591      0.01434        -0.024112     -0.006109      0.000590
      2.12300      4.27302      0.00000        -0.047433      0.165533     -0.398913
      2.12335      5.69594      0.00581        -0.007548     -0.115430     -0.013250
      7.05344      0.00333      0.01399         0.000038     -0.010576      0.004509
      7.05353      1.42635      0.01368        -0.008862      0.015966      0.001229
      8.28610      6.40752      0.01601         0.024287     -0.032502      0.000731
     -4.03885      7.83070      0.01636        -0.004984     -0.004151      0.000884
      3.35586      6.40753      0.01007         0.009788      0.000450      0.007468
      3.35599      7.83072      0.01320        -0.017804     -0.021968      0.002185
     -0.34146      4.27290      0.00723         0.063526     -0.015404     -0.004096
     -0.34138      5.69591      0.00946        -0.010547      0.013664      0.011524
      3.35624      2.13791      0.00222        -0.014248     -0.010824     -0.648045
      3.35573      3.56155      0.00139         0.076162      0.081144     -0.436731
     -1.57395      6.40758      0.01311         0.043786     -0.009864     -0.002366
     -1.57385      7.83068      0.01438         0.009283     -0.004071      0.001106
      5.82093      2.13784      0.01033        -0.046952     -0.047871     -0.037689
      5.82114      3.56097      0.01156         0.013632     -0.003379      0.013999
      0.89092      6.40755      0.00907        -0.010879      0.001299      0.007495
      0.89106      7.83068      0.01235        -0.017199     -0.005049      0.001409
      4.58871      4.27293      0.00850        -0.018188     -0.026269      0.005552
      4.58852      5.69606      0.01149        -0.005306      0.013574      0.007256
      9.51845      0.00337      0.01490        -0.007433     -0.014122      0.001139
      9.51855      1.42644      0.01438        -0.029631      0.036445     -0.000695
      8.28593      2.13803      0.01453        -0.002894     -0.010230      0.002872
      8.28613      3.56115      0.01464        -0.011657     -0.002756     -0.001831
      7.05356      4.27269      0.01457        -0.004726     -0.013022      0.003619
      7.05362      5.69588      0.01553        -0.003050     -0.025327     -0.000809
      5.82112      6.40755      0.01489        -0.014357     -0.026689     -0.000740
      5.82102      7.83073      0.01579        -0.022796     -0.009035      0.001034
      7.05363      8.54227      0.01631         0.014438     -0.020207      0.001773
     -5.27149      9.96549      0.01495         0.000716      0.003786     -0.001737
     -2.80638      8.54234      0.01558         0.026232     -0.005084      0.001151
     -2.80627      9.96553      0.01362        -0.002997     -0.005250      0.015155
     -0.34149      8.54239      0.01378         0.026337     -0.008322     -0.000850
     -0.34138      9.96550      0.01354         0.012185      0.014179      0.005121
      2.12343      8.54232      0.01336        -0.008315     -0.009256     -0.000471
      2.12354      9.96544      0.01469        -0.028876      0.008368     -0.002720
      4.58846      8.54235      0.01505        -0.000443     -0.029503      0.002724
      4.58853      9.96550      0.01517        -0.021945      0.017639      0.002575
      3.04930      2.68154      2.50000        -0.065792      0.017343      0.423117
      4.02070      2.02068      2.56442        -1.556790      1.106416      0.701877
      2.07767      3.34267      2.44055         1.643775     -1.204256      1.040694
 -----------------------------------------------------------------------------------
    total drift:                               -0.027256      0.029282     -0.020063


--------------------------------------------------------------------------------------------------------



  FREE ENERGIE OF THE ION-ELECTRON SYSTEM (eV)
  ---------------------------------------------------
  free  energy   TOTEN  =      -525.55971327 eV

  energy  without entropy=     -525.55971327  energy(sigma->0) =     -525.55971327
 


--------------------------------------------------------------------------------------------------------


    POTLOK:  cpu time    8.4069: real time    8.4800


--------------------------------------------------------------------------------------------------------


 writing wavefunctions
     LOOP+:  cpu time 1161.7874: real time 1171.7817
    4ORBIT:  cpu time    0.0000: real time    0.0000

 total amount of memory used by VASP MPI-rank0   698619. kBytes
=======================================================================

   base      :      30000. kBytes
   nonl-proj :     230539. kBytes
   fftplans  :      40716. kBytes
   grid      :     363125. kBytes
   one-center:        162. kBytes
   wavefun   :      34077. kBytes
 
  
  
 General timing and accounting informations for this job:
 ========================================================
  
                  Total CPU time used (sec):     1208.335
                            User time (sec):     1170.466
                          System time (sec):       37.870
                         Elapsed time (sec):     1219.944
  
                   Maximum memory used (kb):     1471404.
                   Average memory used (kb):          N/A
  
                          Minor page faults:       373978
                          Major page faults:          596
                 Voluntary context switches:         4793
