 vasp.6.2.1 16May21 (build Nov 06 2021 14:46:37) complex                        
  
 executed on             LinuxIFC date 2025.04.16  22:04:13
 running on  112 total cores
 distrk:  each k-point on  112 cores,    1 groups
 distr:  one band on NCORE=   4 cores,   28 groups


--------------------------------------------------------------------------------------------------------


 INCAR:
   ALGO = Conjugate
   NCORE = 4
   ISMEAR = 0
   SIGMA = 0.01
   PREC = Accurate
   EDIFF = 1E-6
   ENCUT = 1000
   ISIF = 0
   IVDW = 11
   LWAVE = .FALSE.
   LCHARGE = .FALSE.
   SYMPREC = 1E-6

 POTCAR:    PAW_PBE C_h 06Feb2004                 
 POTCAR:    PAW_PBE O_h 06Feb2004                 
 -----------------------------------------------------------------------------
|                                                                             |
|           W    W    AA    RRRRR   N    N  II  N    N   GGGG   !!!           |
|           W    W   A  A   R    R  NN   N  II  NN   N  G    G  !!!           |
|           W    W  A    A  R    R  N N  N  II  N N  N  G       !!!           |
|           W WW W  AAAAAA  RRRRR   N  N N  II  N  N N  G  GGG   !            |
|           WW  WW  A    A  R   R   N   NN  II  N   NN  G    G                |
|           W    W  A    A  R    R  N    N  II  N    N   GGGG   !!!           |
|                                                                             |
|     For optimal performance we recommend to set                             |
|       NCORE = 2 up to number-of-cores-per-socket                            |
|     NCORE specifies how many cores store one orbital (NPAR=cpu/NCORE).      |
|     This setting can greatly improve the performance of VASP for DFT.       |
|     The default, NCORE=1 might be grossly inefficient on modern             |
|     multi-core architectures or massively parallel machines. Do your        |
|     own testing! More info at https://www.vasp.at/wiki/index.php/NCORE      |
|     Unfortunately you need to use the default for GW and RPA                |
|     calculations (for HF NCORE is supported but not extensively tested      |
|     yet).                                                                   |
|                                                                             |
 -----------------------------------------------------------------------------

 POTCAR:    PAW_PBE C_h 06Feb2004                 
   VRHFIN =C: s2p2                                                                                  
   LEXCH  = PE                                                                                      
   EATOM  =   147.1560 eV,   10.8157 Ry                                                             
                                                                                                    
   TITEL  = PAW_PBE C_h 06Feb2004                                                                   
   LULTRA =        F    use ultrasoft PP ?                                                          
   IUNSCR =        1    unscreen: 0-lin 1-nonlin 2-no                                               
   RPACOR =    0.800    partial core radius                                                         
   POMASS =   12.011; ZVAL   =    4.000    mass and valenz                                          
   RCORE  =    1.100    outmost cutoff radius                                                       
   RWIGS  =    1.630; RWIGS  =    0.863    wigner-seitz radius (au A)                               
   ENMAX  =  700.000; ENMIN  =  500.000 eV                                                          
   ICORE  =        2    local potential                                                             
   LCOR   =        T    correct aug charges                                                         
   LPAW   =        T    paw PP                                                                      
   EAUG   =  946.768                                                                                
   DEXC   =    0.000                                                                                
   RMAX   =    1.128    core radius for proj-oper                                                   
   RAUG   =    1.300    factor for augmentation sphere                                              
   RDEP   =    1.162    radius for radial grids                                                     
   RDEPT  =    1.088    core radius for aug-charge                                                  
                                                                                                    
   Atomic configuration                                                                             
    4 entries                                                                                       
     n  l   j            E        occ.                                                              
     1  0  0.50      -273.3789   2.0000                                                             
     2  0  0.50       -13.7508   2.0000                                                             
     2  1  0.50        -5.2854   2.0000                                                             
     3  2  1.50        -5.4423   0.0000                                                             
   Description                                                                                      
     l       E           TYP  RCUT    TYP  RCUT                                                     
     0    -13.7508458     23  1.100                                                                 
     0     -8.2022199     23  1.100                                                                 
     1     -5.2854383     23  1.100                                                                 
     1      1.1560700     23  1.100                                                                 
     2     -5.4423304      7  1.100                                                                 
  local pseudopotential read in
  partial core-charges read in
  partial kinetic energy density read in
  atomic valenz-charges read in
  non local Contribution for L=           0  read in
    real space projection operators read in
  non local Contribution for L=           0  read in
    real space projection operators read in
  non local Contribution for L=           1  read in
    real space projection operators read in
  non local Contribution for L=           1  read in
    real space projection operators read in
    PAW grid and wavefunctions read in
 
   number of l-projection  operators is LMAX  =           4
   number of lm-projection operators is LMMAX =           8
 
 POTCAR:    PAW_PBE O_h 06Feb2004                 
   VRHFIN =O: s2p4                                                                                  
   LEXCH  = PE                                                                                      
   EATOM  =   432.3788 eV,   31.7789 Ry                                                             
                                                                                                    
   TITEL  = PAW_PBE O_h 06Feb2004                                                                   
   LULTRA =        F    use ultrasoft PP ?                                                          
   IUNSCR =        1    unscreen: 0-lin 1-nonlin 2-no                                               
   RPACOR =    0.800    partial core radius                                                         
   POMASS =   16.000; ZVAL   =    6.000    mass and valenz                                          
   RCORE  =    1.100    outmost cutoff radius                                                       
   RWIGS  =    1.400; RWIGS  =    0.741    wigner-seitz radius (au A)                               
   ENMAX  =  700.000; ENMIN  =  500.000 eV                                                          
   ICORE  =        2    local potential                                                             
   LCOR   =        T    correct aug charges                                                         
   LPAW   =        T    paw PP                                                                      
   EAUG   =  888.804                                                                                
   DEXC   =    0.000                                                                                
   RMAX   =    1.128    core radius for proj-oper                                                   
   RAUG   =    1.300    factor for augmentation sphere                                              
   RDEP   =    1.125    radius for radial grids                                                     
   RDEPT  =    1.088    core radius for aug-charge                                                  
                                                                                                    
   Atomic configuration                                                                             
    4 entries                                                                                       
     n  l   j            E        occ.                                                              
     1  0  0.50      -514.6923   2.0000                                                             
     2  0  0.50       -23.9615   2.0000                                                             
     2  1  0.50        -9.0305   4.0000                                                             
     3  2  1.50        -9.5241   0.0000                                                             
   Description                                                                                      
     l       E           TYP  RCUT    TYP  RCUT                                                     
     0    -23.9615319     23  1.100                                                                 
     0    -25.3221145     23  1.100                                                                 
     1     -9.0304911     23  1.100                                                                 
     1     -5.4802209     23  1.100                                                                 
     2     -9.5240782      7  1.100                                                                 
  local pseudopotential read in
  partial core-charges read in
  partial kinetic energy density read in
  atomic valenz-charges read in
  non local Contribution for L=           0  read in
    real space projection operators read in
  non local Contribution for L=           0  read in
    real space projection operators read in
  non local Contribution for L=           1  read in
    real space projection operators read in
  non local Contribution for L=           1  read in
    real space projection operators read in
    PAW grid and wavefunctions read in
 
   number of l-projection  operators is LMAX  =           4
   number of lm-projection operators is LMMAX =           8
 
 -----------------------------------------------------------------------------
|                                                                             |
|               ----> ADVICE to this user running VASP <----                  |
|                                                                             |
|     You have a (more or less) 'large supercell' and for larger cells it     |
|     might be more efficient to use real-space projection operators.         |
|     Therefore, try LREAL= Auto in the INCAR file.                           |
|     Mind: For very accurate calculation, you might also keep the            |
|     reciprocal projection scheme (i.e. LREAL=.FALSE.).                      |
|                                                                             |
 -----------------------------------------------------------------------------

  PAW_PBE C_h 06Feb2004                 :
 energy of atom  1       EATOM= -147.1560
 kinetic energy error for atom=    0.0031 (will be added to EATOM!!)
  PAW_PBE O_h 06Feb2004                 :
 energy of atom  2       EATOM= -432.3788
 kinetic energy error for atom=    0.0171 (will be added to EATOM!!)
 
 
 POSCAR:  C  O
  positions in cartesian coordinates
  No initial velocities read in
 exchange correlation table for  LEXCH =        8
   RHO(1)=    0.500       N(1)  =     2000
   RHO(2)=  100.500       N(2)  =     4000
 


--------------------------------------------------------------------------------------------------------


 ion  position               nearest neighbor table
   1  0.972  0.000  0.001-  50 1.42   2 1.42  42 1.42
   2  0.039  0.134  0.000-   5 1.42   7 1.42   1 1.42
   3  0.172  0.000  0.000-  42 1.42  44 1.42   4 1.42
   4  0.239  0.134  0.000-   7 1.42   3 1.42  23 1.42
   5  0.972  0.200  0.000-   6 1.42   2 1.42  34 1.42
   6  0.039  0.334  0.000-   5 1.42  21 1.42  11 1.42
   7  0.172  0.200  0.000-   8 1.42   2 1.42   4 1.42
   8  0.239  0.334  0.000-  13 1.42   7 1.42  21 1.42
   9  0.372  0.000  0.000-  10 1.42  44 1.42  46 1.42
  10  0.439  0.134  0.000-  27 1.42   9 1.42  23 1.42
  11  0.972  0.400  0.001-  12 1.42  36 1.42   6 1.42
  12  0.039  0.534  0.001-  25 1.42  11 1.42  17 1.42
  13  0.372  0.400  0.000-   8 1.42  14 1.42  24 1.42
  14  0.439  0.534  0.000-  13 1.42  29 1.42  19 1.42
  15  0.572  0.000  0.001-  46 1.42  16 1.42  48 1.42
  16  0.639  0.134  0.001-  15 1.42  35 1.42  27 1.42
  17  0.972  0.600  0.001-  38 1.42  18 1.42  12 1.42
  18  0.039  0.734  0.001-  43 1.42  41 1.42  17 1.42
  19  0.572  0.600  0.000-  14 1.42  20 1.42  32 1.42
  20  0.639  0.734  0.001-  49 1.42  19 1.42  47 1.42
  21  0.172  0.400  0.000-  22 1.42   8 1.42   6 1.42
  22  0.239  0.534  0.000-  21 1.42  29 1.42  25 1.42
  23  0.372  0.200  0.000-  10 1.42   4 1.42  24 1.42
  24  0.439  0.334  0.000-  13 1.42  31 1.42  23 1.42
  25  0.172  0.600  0.001-  26 1.42  12 1.42  22 1.42
  26  0.239  0.734  0.001-  25 1.42  45 1.42  43 1.42
  27  0.572  0.200  0.000-  10 1.42  28 1.42  16 1.42
  28  0.639  0.334  0.000-  27 1.42  37 1.42  31 1.42
  29  0.372  0.600  0.000-  22 1.42  14 1.42  30 1.42
  30  0.439  0.734  0.000-  47 1.42  29 1.42  45 1.42
  31  0.572  0.400  0.000-  32 1.42  28 1.42  24 1.42
  32  0.639  0.534  0.000-  31 1.42  39 1.42  19 1.42
  33  0.772  0.000  0.001-  34 1.42  48 1.42  50 1.42
  34  0.839  0.134  0.001-  33 1.42   5 1.42  35 1.42
  35  0.772  0.200  0.001-  36 1.42  16 1.42  34 1.42
  36  0.839  0.334  0.001-  35 1.42  11 1.42  37 1.42
  37  0.772  0.400  0.001-  28 1.42  38 1.42  36 1.42
  38  0.839  0.534  0.001-  17 1.42  37 1.42  39 1.42
  39  0.772  0.600  0.001-  40 1.42  38 1.42  32 1.42
  40  0.839  0.734  0.001-  39 1.42  49 1.42  41 1.42
  41  0.972  0.800  0.001-  18 1.42  42 1.42  40 1.42
  42  0.039  0.934  0.001-   3 1.42  41 1.42   1 1.42
  43  0.172  0.800  0.001-  18 1.42  44 1.42  26 1.42
  44  0.239  0.934  0.001-   9 1.42  43 1.42   3 1.42
  45  0.372  0.800  0.001-  26 1.42  46 1.42  30 1.42
  46  0.439  0.934  0.001-  15 1.42  45 1.42   9 1.42
  47  0.572  0.800  0.001-  30 1.42  48 1.42  20 1.42
  48  0.639  0.934  0.001-  47 1.42  33 1.42  15 1.42
  49  0.772  0.800  0.001-  50 1.42  20 1.42  40 1.42
  50  0.839  0.934  0.001-  49 1.42   1 1.42  33 1.42
  51  0.373  0.251  0.112-  52 1.18  53 1.18
  52  0.421  0.189  0.115-  51 1.18
  53  0.325  0.313  0.110-  51 1.18
 
  LATTYP: Found a hexagonal cell.
 ALAT       =    12.3250000000
 C/A-ratio  =     2.0283975659
  
  Lattice vectors:
  
 A1 = (  12.3250000000,   0.0000000000,   0.0000000000)
 A2 = (  -6.1625000000,  10.6737631016,   0.0000000000)
 A3 = (   0.0000000000,   0.0000000000,  25.0000000000)


Analysis of symmetry for initial positions (statically):
=====================================================================
 Subroutine PRICEL returns:
 Original cell was already a primitive cell.
 

 Routine SETGRP: Setting up the symmetry group for a 
 hexagonal supercell.


 Subroutine GETGRP returns: Found  1 space group operations
 (whereof  1 operations were pure point group operations)
 out of a pool of 24 trial point group operations.


The static configuration has the point symmetry C_1 .


Analysis of symmetry for dynamics (positions and initial velocities):
=====================================================================
 Subroutine PRICEL returns:
 Original cell was already a primitive cell.
 

 Routine SETGRP: Setting up the symmetry group for a 
 hexagonal supercell.


 Subroutine GETGRP returns: Found  1 space group operations
 (whereof  1 operations were pure point group operations)
 out of a pool of 24 trial point group operations.


The dynamic configuration has the point symmetry C_1 .


 Subroutine INISYM returns: Found  1 space group operations
 (whereof  1 operations are pure point group operations),
 and found     1 'primitive' translations


----------------------------------------------------------------------------------------

                                     Primitive cell                                     

  volume of cell :    3288.8533

  direct lattice vectors                    reciprocal lattice vectors
    12.325000000  0.000000000  0.000000000     0.081135903  0.046843835  0.000000000
    -6.162500000 10.673763102  0.000000000     0.000000000  0.093687670  0.000000000
     0.000000000  0.000000000 25.000000000     0.000000000  0.000000000  0.040000000

  length of vectors
    12.325000000 12.325000000 25.000000000     0.093687670  0.093687670  0.040000000

  position of ions in fractional coordinates (direct lattice)
     0.972450841  0.000320818  0.000566711
     0.039118382  0.133659505  0.000440173
     0.172443627  0.000295449  0.000499628
     0.239096278  0.133647917  0.000256468
     0.972452058  0.200322012  0.000485219
     0.039128360  0.333643771  0.000444150
     0.172451764  0.200354552  0.000219167
     0.239124359  0.333665720  0.000072260
     0.372465565  0.000324403  0.000453913
     0.439137473  0.133619939  0.000258338
     0.972449824  0.400309362  0.000547611
     0.039124981  0.533636789  0.000573410
     0.372416176  0.400329481  0.000000000
     0.439099602  0.533638981  0.000232414
     0.572443676  0.000312125  0.000559580
     0.639110207  0.133631751  0.000547275
     0.972452703  0.600305653  0.000640289
     0.039124495  0.733640359  0.000654513
     0.572433471  0.600306242  0.000402895
     0.639111888  0.733641879  0.000527905
     0.172454630  0.400318228  0.000289045
     0.239120185  0.533636548  0.000378509
     0.372459750  0.200295993  0.000088997
     0.439107096  0.333673419  0.000055762
     0.172452155  0.600311506  0.000524340
     0.239123371  0.733638574  0.000575129
     0.572431082  0.200289171  0.000413296
     0.639112773  0.333618630  0.000462376
     0.372439808  0.600308022  0.000362844
     0.439116090  0.733637858  0.000494190
     0.572469358  0.400320504  0.000339918
     0.639119408  0.533650873  0.000459610
     0.772445723  0.000315427  0.000596161
     0.839116277  0.133640203  0.000575306
     0.772440513  0.200307432  0.000581033
     0.839120241  0.333635728  0.000585467
     0.772446320  0.400298367  0.000582978
     0.839118980  0.533633964  0.000621100
     0.772456143  0.600308173  0.000595712
     0.839115033  0.733643180  0.000631512
     0.972455313  0.800305582  0.000652233
     0.039114714  0.933643289  0.000598051
     0.172457971  0.800312211  0.000623372
     0.239134551  0.933647193  0.000544850
     0.372451396  0.800316674  0.000551399
     0.439124489  0.933644769  0.000541430
     0.572441101  0.800310054  0.000534535
     0.639115067  0.933638985  0.000587644
     0.772445098  0.800313187  0.000602062
     0.839116614  0.933644338  0.000606830
     0.373021009  0.251226878  0.112246205
     0.420879805  0.189313152  0.114823079
     0.325156981  0.313167186  0.109868010

  ion indices of the primitive-cell ions
   primitive index   ion index
                 1           1
                 2           2
                 3           3
                 4           4
                 5           5
                 6           6
                 7           7
                 8           8
                 9           9
                10          10
                11          11
                12          12
                13          13
                14          14
                15          15
                16          16
                17          17
                18          18
                19          19
                20          20
                21          21
                22          22
                23          23
                24          24
                25          25
                26          26
                27          27
                28          28
                29          29
                30          30
                31          31
                32          32
                33          33
                34          34
                35          35
                36          36
                37          37
                38          38
                39          39
                40          40
                41          41
                42          42
                43          43
                44          44
                45          45
                46          46
                47          47
                48          48
                49          49
                50          50
                51          51
                52          52
                53          53

----------------------------------------------------------------------------------------

 
 
 KPOINTS: auto                                    

Automatic generation of k-mesh.
 Grid dimensions read from file:
 generate k-points for:    1    1    1

 Generating k-lattice:

  Cartesian coordinates                     Fractional coordinates (reciprocal lattice)
     0.081135903  0.046843835  0.000000000     1.000000000 -0.000000000  0.000000000
     0.000000000  0.093687670  0.000000000     0.000000000  1.000000000  0.000000000
     0.000000000  0.000000000  0.040000000     0.000000000  0.000000000  1.000000000

  Length of vectors
     0.093687670  0.093687670  0.040000000

  Shift w.r.t. Gamma in fractional coordinates (k-lattice)
     0.000000000  0.000000000  0.000000000

 
 Subroutine IBZKPT returns following result:
 ===========================================
 
 Found      1 irreducible k-points:
 
 Following reciprocal coordinates:
            Coordinates               Weight
  0.000000  0.000000  0.000000      1.000000
 
 Following cartesian coordinates:
            Coordinates               Weight
  0.000000  0.000000  0.000000      1.000000
 


--------------------------------------------------------------------------------------------------------




 Dimension of arrays:
   k-points           NKPTS =      1   k-points in BZ     NKDIM =      1   number of bands    NBANDS=    140
   number of dos      NEDOS =    301   number of ions     NIONS =     53
   non local maximal  LDIM  =      4   non local SUM 2l+1 LMDIM =      8
   total plane-waves  NPLWV = ******
   max r-space proj   IRMAX =      1   max aug-charges    IRDMAX=  10008
   dimension x,y,z NGX =   128 NGY =  128 NGZ =  270
   dimension x,y,z NGXF=   256 NGYF=  256 NGZF=  540
   support grid    NGXF=   256 NGYF=  256 NGZF=  540
   ions per type =              51   2
   NGX,Y,Z   is equivalent  to a cutoff of  17.27, 17.27, 17.95 a.u.
   NGXF,Y,Z  is equivalent  to a cutoff of  34.53, 34.53, 35.91 a.u.

 SYSTEM =  unknown system                          
 POSCAR =   C  O                                   

 Startparameter for this run:
   NWRITE =      2    write-flag & timer
   PREC   = accura    normal or accurate (medium, high low for compatibility)
   ISTART =      0    job   : 0-new  1-cont  2-samecut
   ICHARG =      2    charge: 1-file 2-atom 10-const
   ISPIN  =      1    spin polarized calculation?
   LNONCOLLINEAR =      F non collinear calculations
   LSORBIT =      F    spin-orbit coupling
   INIWAV =      1    electr: 0-lowe 1-rand  2-diag
   LASPH  =      F    aspherical Exc in radial PAW
 Electronic Relaxation 1
   ENCUT  = 1000.0 eV  73.50 Ry    8.57 a.u.  31.78 31.78 64.46*2*pi/ulx,y,z
   ENINI  = 1000.0     initial cutoff
   ENAUG  =  946.8 eV  augmentation charge cutoff
   NELM   =     60;   NELMIN=  2; NELMDL= -5     # of ELM steps 
   EDIFF  = 0.1E-05   stopping-criterion for ELM
   LREAL  =      F    real-space projection
   NLSPLINE    = F    spline interpolate recip. space projectors
   LCOMPAT=      F    compatible to vasp.4.4
   GGA_COMPAT  = T    GGA compatible to vasp.4.4-vasp.4.6
   LMAXPAW     = -100 max onsite density
   LMAXMIX     =    2 max onsite mixed and CHGCAR
   VOSKOWN=      0    Vosko Wilk Nusair interpolation
   ROPT   =    0.00000   0.00000
 Ionic relaxation
   EDIFFG = 0.1E-04   stopping-criterion for IOM
   NSW    =      0    number of steps for IOM
   NBLOCK =      1;   KBLOCK =      1    inner block; outer block 
   IBRION =     -1    ionic relax: 0-MD 1-quasi-New 2-CG
   NFREE  =      0    steps in history (QN), initial steepest desc. (CG)
   ISIF   =      0    stress and relaxation
   IWAVPR =     10    prediction:  0-non 1-charg 2-wave 3-comb
   ISYM   =      2    0-nonsym 1-usesym 2-fastsym
   LCORR  =      T    Harris-Foulkes like correction to forces

   POTIM  = 0.5000    time-step for ionic-motion
   TEIN   =    0.0    initial temperature
   TEBEG  =    0.0;   TEEND  =   0.0 temperature during run
   SMASS  =  -3.00    Nose mass-parameter (am)
   estimated Nose-frequenzy (Omega)   =  0.10E-29 period in steps = 0.13E+47 mass=  -0.347E-26a.u.
   SCALEE = 1.0000    scale energy and forces
   NPACO  =    256;   APACO  = 16.0  distance and # of slots for P.C.
   PSTRESS=    0.0 pullay stress

  Mass of Ions in am
   POMASS =  12.01 16.00
  Ionic Valenz
   ZVAL   =   4.00  6.00
  Atomic Wigner-Seitz radii
   RWIGS  =  -1.00 -1.00
  virtual crystal weights 
   VCA    =   1.00  1.00
   NELECT =     216.0000    total number of electrons
   NUPDOWN=      -1.0000    fix difference up-down

 DOS related values:
   EMIN   =  10.00;   EMAX   =-10.00  energy-range for DOS
   EFERMI =   0.00
   ISMEAR =     0;   SIGMA  =   0.01  broadening in eV -4-tet -1-fermi 0-gaus

 Electronic relaxation 2 (details)
   IALGO  =     58    algorithm
   LDIAG  =      T    sub-space diagonalisation (order eigenvalues)
   LSUBROT=      F    optimize rotation matrix (better conditioning)
   TURBO    =      0    0=normal 1=particle mesh
   IRESTART =      0    0=no restart 2=restart with 2 vectors
   NREBOOT  =      0    no. of reboots
   NMIN     =      0    reboot dimension
   EREF     =   0.00    reference energy to select bands
   IMIX   =      4    mixing-type and parameters
     AMIX     =   0.40;   BMIX     =  1.00
     AMIX_MAG =   1.60;   BMIX_MAG =  1.00
     AMIN     =   0.10
     WC   =   100.;   INIMIX=   1;  MIXPRE=   1;  MAXMIX= -45

 Intra band minimization:
   WEIMIN = 0.0000     energy-eigenvalue tresh-hold
   EBREAK =  0.18E-08  absolut break condition
   DEPER  =   0.30     relativ break condition  

   TIME   =   0.40     timestep for ELM

  volume/ion in A,a.u.               =      62.05       418.76
  Fermi-wavevector in a.u.,A,eV,Ry     =   0.660508  1.248179  5.935820  0.436270
  Thomas-Fermi vector in A             =   1.732977
 
 Write flags
   LWAVE        =      F    write WAVECAR
   LDOWNSAMPLE  =      F    k-point downsampling of WAVECAR
   LCHARG       =      T    write CHGCAR
   LVTOT        =      F    write LOCPOT, total local potential
   LVHAR        =      F    write LOCPOT, Hartree potential only
   LELF         =      F    write electronic localiz. function (ELF)
   LORBIT       =      0    0 simple, 1 ext, 2 COOP (PROOUT), +10 PAW based schemes


 Dipole corrections
   LMONO  =      F    monopole corrections only (constant potential shift)
   LDIPOL =      F    correct potential (dipole corrections)
   IDIPOL =      0    1-x, 2-y, 3-z, 4-all directions 
   EPSILON=  1.0000000 bulk dielectric constant

 Exchange correlation treatment:
   GGA     =    --    GGA type
   LEXCH   =     8    internal setting for exchange type
   VOSKOWN=      0    Vosko Wilk Nusair interpolation
   LHFCALC =     F    Hartree Fock is set to
   LHFONE  =     F    Hartree Fock one center treatment
   AEXX    =    0.0000 exact exchange contribution

 Linear response parameters
   LEPSILON=     F    determine dielectric tensor
   LRPA    =     F    only Hartree local field effects (RPA)
   LNABLA  =     F    use nabla operator in PAW spheres
   LVEL    =     F    velocity operator in full k-point grid
   LINTERFAST=   F  fast interpolation
   KINTER  =     0    interpolate to denser k-point grid
   CSHIFT  =0.1000    complex shift for real part using Kramers Kronig
   OMEGAMAX=  -1.0    maximum frequency
   DEG_THRESHOLD= 0.2000000E-02 threshold for treating states as degnerate
   RTIME   =   -0.100 relaxation time in fs
  (WPLASMAI=    0.000 imaginary part of plasma frequency in eV, 0.658/RTIME)
   DFIELD  = 0.0000000 0.0000000 0.0000000 field for delta impulse in time
 
 Orbital magnetization related:
   ORBITALMAG=     F  switch on orbital magnetization
   LCHIMAG   =     F  perturbation theory with respect to B field
   DQ        =  0.001000  dq finite difference perturbation B field
   LLRAUG    =     F  two centre corrections for induced B field



--------------------------------------------------------------------------------------------------------


 Static calculation
 charge density and potential will be updated during run
 non-spin polarized calculation
 Conjugate gradient for all bands (Freysoldt, et al. PRB 79, 241103 (2009))
 preconditioned conjugated gradient                                        
 perform sub-space diagonalisation
    before iterative eigenvector-optimisation
 modified Broyden-mixing scheme, WC =      100.0
 initial mixing is a Kerker type mixing with AMIX =  0.4000 and BMIX =      1.0000
 Hartree-type preconditioning will be used
 using additional bands           32
 reciprocal scheme for non local part
 use partial core corrections
 no Harris-corrections to forces 
 use gradient corrections 
 use of overlap-Matrix (Vanderbilt PP)
 Gauss-broadening in eV      SIGMA  =   0.01


--------------------------------------------------------------------------------------------------------


  energy-cutoff  :     1000.00
  volume of cell :     3288.85
      direct lattice vectors                 reciprocal lattice vectors
    12.325000000  0.000000000  0.000000000     0.081135903  0.046843835  0.000000000
    -6.162500000 10.673763102  0.000000000     0.000000000  0.093687670  0.000000000
     0.000000000  0.000000000 25.000000000     0.000000000  0.000000000  0.040000000

  length of vectors
    12.325000000 12.325000000 25.000000000     0.093687670  0.093687670  0.040000000


 
 k-points in units of 2pi/SCALE and weight: auto                                    
   0.00000000  0.00000000  0.00000000       1.000
 
 k-points in reciprocal lattice and weights: auto                                    
   0.00000000  0.00000000  0.00000000       1.000
 
 position of ions in fractional coordinates (direct lattice) 
   0.97245084  0.00032082  0.00056671
   0.03911838  0.13365950  0.00044017
   0.17244363  0.00029545  0.00049963
   0.23909628  0.13364792  0.00025647
   0.97245206  0.20032201  0.00048522
   0.03912836  0.33364377  0.00044415
   0.17245176  0.20035455  0.00021917
   0.23912436  0.33366572  0.00007226
   0.37246557  0.00032440  0.00045391
   0.43913747  0.13361994  0.00025834
   0.97244982  0.40030936  0.00054761
   0.03912498  0.53363679  0.00057341
   0.37241618  0.40032948  0.00000000
   0.43909960  0.53363898  0.00023241
   0.57244368  0.00031213  0.00055958
   0.63911021  0.13363175  0.00054727
   0.97245270  0.60030565  0.00064029
   0.03912449  0.73364036  0.00065451
   0.57243347  0.60030624  0.00040289
   0.63911189  0.73364188  0.00052791
   0.17245463  0.40031823  0.00028904
   0.23912018  0.53363655  0.00037851
   0.37245975  0.20029599  0.00008900
   0.43910710  0.33367342  0.00005576
   0.17245216  0.60031151  0.00052434
   0.23912337  0.73363857  0.00057513
   0.57243108  0.20028917  0.00041330
   0.63911277  0.33361863  0.00046238
   0.37243981  0.60030802  0.00036284
   0.43911609  0.73363786  0.00049419
   0.57246936  0.40032050  0.00033992
   0.63911941  0.53365087  0.00045961
   0.77244572  0.00031543  0.00059616
   0.83911628  0.13364020  0.00057531
   0.77244051  0.20030743  0.00058103
   0.83912024  0.33363573  0.00058547
   0.77244632  0.40029837  0.00058298
   0.83911898  0.53363396  0.00062110
   0.77245614  0.60030817  0.00059571
   0.83911503  0.73364318  0.00063151
   0.97245531  0.80030558  0.00065223
   0.03911471  0.93364329  0.00059805
   0.17245797  0.80031221  0.00062337
   0.23913455  0.93364719  0.00054485
   0.37245140  0.80031667  0.00055140
   0.43912449  0.93364477  0.00054143
   0.57244110  0.80031005  0.00053453
   0.63911507  0.93363899  0.00058764
   0.77244510  0.80031319  0.00060206
   0.83911661  0.93364434  0.00060683
   0.37302101  0.25122688  0.11224620
   0.42087980  0.18931315  0.11482308
   0.32515698  0.31316719  0.10986801
 
 position of ions in cartesian coordinates  (Angst):
  11.98347958  0.00342433  0.01416777
  -0.34154264  1.42664989  0.01100432
   2.12354700  0.00315355  0.01249070
   2.12325634  1.42652621  0.00641170
  10.75098721  2.13818970  0.01213047
  -1.57382270  3.56123457  0.01110375
   0.89078307  2.13853702  0.00547917
   0.89099273  3.56146885  0.00180651
   4.58863896  0.00346260  0.01134782
   4.58893648  1.42622757  0.00645846
   9.51853763  4.27280730  0.01369027
  -2.80632132  5.69591267  0.01433526
   2.12299894  4.27302204  0.00000000
   2.12335237  5.69593607  0.00581036
   7.05344483  0.00333155  0.01398950
   7.05352764  1.42635365  0.01368187
   8.28609598  6.40752033  0.01600723
  -4.03884931  7.83070339  0.01636283
   3.35585531  6.40752662  0.01007237
   3.35598594  7.83071962  0.01319763
  -0.34145776  4.27290193  0.00722612
  -0.34137895  5.69591010  0.00946273
   3.35624236  2.13791198  0.00222492
   3.35573251  3.56155103  0.00139405
  -1.57394684  6.40758280  0.01310850
  -1.57385216  7.83068434  0.01437823
   5.82093107  2.13783916  0.01033241
   5.82114012  3.56096622  0.01155939
   0.89092245  6.40754561  0.00907111
   0.89106251  7.83067670  0.01235474
   4.58870974  4.27292622  0.00849795
   4.58852320  5.69606300  0.01149026
   9.51844972  0.00336679  0.01490402
   9.51855036  1.42644387  0.01438264
   8.28593477  2.13803408  0.01452582
   8.28612680  3.56114872  0.01463668
   7.05356221  4.27268994  0.01457444
   7.05362213  5.69588251  0.01552751
   5.82112285  6.40754723  0.01489279
   5.82101669  7.83073350  0.01578780
   7.05362858  8.54227219  0.01630582
  -5.27148792  9.96548729  0.01495127
  -2.80637951  8.54234295  0.01558431
  -2.80626749  9.96552896  0.01362126
  -0.34148805  8.54239058  0.01378498
  -0.34137657  9.96550309  0.01353576
   2.12342586  8.54231992  0.01336337
   2.12354296  9.96544135  0.01469111
   4.58845581  8.54235337  0.01505154
   4.58852904  9.96549848  0.01517076
   3.04929830  2.68153618  2.80615512
   4.02070129  2.02068374  2.87057698
   2.07766701  3.34267235  2.74670025
 


--------------------------------------------------------------------------------------------------------


 k-point   1 :   0.0000 0.0000 0.0000  plane waves:  236157

 maximum and minimum number of plane-waves per node :     59046    59034

 maximum number of plane-waves:    236157
 maximum index in each direction: 
   IXMAX=   31   IYMAX=   31   IZMAX=   64
   IXMIN=  -31   IYMIN=  -31   IZMIN=  -64


 parallel 3D FFT for wavefunctions:
    minimum data exchange during FFTs selected (reduces bandwidth)
 parallel 3D FFT for charge:
    minimum data exchange during FFTs selected (reduces bandwidth)


 total amount of memory used by VASP MPI-rank0   215378. kBytes
=======================================================================

   base      :      30000. kBytes
   nonl-proj :      57634. kBytes
   fftplans  :      45914. kBytes
   grid      :      67588. kBytes
   one-center:         43. kBytes
   wavefun   :      14199. kBytes
 
     INWAV:  cpu time    0.0000: real time    0.0000
 Broyden mixing: mesh for mixing (old mesh)
   NGX = 63   NGY = 63   NGZ =129
  (NGX  =256   NGY  =256   NGZ  =540)
  gives a total of 512001 points

 initial charge density was supplied:
 charge density of overlapping atoms calculated
 number of electron     216.0000000 magnetization 
 keeping initial charge density in first step


--------------------------------------------------------------------------------------------------------


 Maximum index for augmentation-charges          471 (set IRDMAX)


--------------------------------------------------------------------------------------------------------


 First call to EWALD:  gamma=   0.119
 Maximum number of real-space cells 4x 4x 2
 Maximum number of reciprocal cells 2x 2x 4

    FEWALD:  cpu time    0.0025: real time    0.0025


--------------------------------------- Iteration      1(   1)  ---------------------------------------


    POTLOK:  cpu time    0.4056: real time    0.4104
    SETDIJ:  cpu time    0.0056: real time    0.0059
    TRIAL :  cpu time    5.5845: real time    5.6413
    CORREC:  cpu time    0.0006: real time    0.0008
    --------------------------------------------
      LOOP:  cpu time    5.9992: real time    6.0832

 eigenvalue-minimisations  :   280
 total energy-change (2. order) : 0.2786949E+04  (-0.1023548E+05)
 number of electron     216.0000000 magnetization 
 augmentation part      216.0000000 magnetization 

 Free energy of the ion-electron system (eV)
  ---------------------------------------------------
  alpha Z        PSCENC =        47.94900195
  Ewald energy   TEWEN  =     48114.18302124
  -Hartree energ DENC   =    -54181.92891958
  -exchange      EXHF   =         0.00000000
  -V(xc)+E(xc)   XCENC  =       421.27876347
  PAW double counting   =      6525.96553977    -6260.36035765
  entropy T*S    EENTRO =        -0.00001430
  eigenvalues    EBANDS =      -249.66212230
  atomic energy  EATOM  =      8369.52358910
  ---------------------------------------------------
  free energy    TOTEN  =      2786.94850171 eV

  energy without entropy =     2786.94851600  energy(sigma->0) =     2786.94850886


--------------------------------------------------------------------------------------------------------




--------------------------------------- Iteration      1(   2)  ---------------------------------------


    TRIAL :  cpu time    8.0745: real time    8.1631
    CORREC:  cpu time    0.0001: real time    0.0001
    --------------------------------------------
      LOOP:  cpu time    8.1448: real time    8.2353

 eigenvalue-minimisations  :   448
 total energy-change (2. order) :-0.2454740E+04  (-0.2292468E+04)
 number of electron     216.0000000 magnetization 
 augmentation part      216.0000000 magnetization 

 Free energy of the ion-electron system (eV)
  ---------------------------------------------------
  alpha Z        PSCENC =        47.94900195
  Ewald energy   TEWEN  =     48114.18302124
  -Hartree energ DENC   =    -54181.92891958
  -exchange      EXHF   =         0.00000000
  -V(xc)+E(xc)   XCENC  =       421.27876347
  PAW double counting   =      6525.96553977    -6260.36035765
  entropy T*S    EENTRO =        -0.00000000
  eigenvalues    EBANDS =     -2704.40172146
  atomic energy  EATOM  =      8369.52358910
  ---------------------------------------------------
  free energy    TOTEN  =       332.20891685 eV

  energy without entropy =      332.20891685  energy(sigma->0) =      332.20891685


--------------------------------------------------------------------------------------------------------




--------------------------------------- Iteration      1(   3)  ---------------------------------------


    TRIAL :  cpu time    7.2555: real time    7.3218
    CORREC:  cpu time    0.0001: real time    0.0002
    --------------------------------------------
      LOOP:  cpu time    7.3499: real time    7.4194

 eigenvalue-minimisations  :   392
 total energy-change (2. order) :-0.7966715E+03  (-0.7863791E+03)
 number of electron     216.0000000 magnetization 
 augmentation part      216.0000000 magnetization 

 Free energy of the ion-electron system (eV)
  ---------------------------------------------------
  alpha Z        PSCENC =        47.94900195
  Ewald energy   TEWEN  =     48114.18302124
  -Hartree energ DENC   =    -54181.92891958
  -exchange      EXHF   =         0.00000000
  -V(xc)+E(xc)   XCENC  =       421.27876347
  PAW double counting   =      6525.96553977    -6260.36035765
  entropy T*S    EENTRO =        -0.00000000
  eigenvalues    EBANDS =     -3501.07326695
  atomic energy  EATOM  =      8369.52358910
  ---------------------------------------------------
  free energy    TOTEN  =      -464.46262864 eV

  energy without entropy =     -464.46262864  energy(sigma->0) =     -464.46262864


--------------------------------------------------------------------------------------------------------




--------------------------------------- Iteration      1(   4)  ---------------------------------------


    TRIAL :  cpu time    5.9969: real time    6.0527
    CORREC:  cpu time    0.0001: real time    0.0001
    --------------------------------------------
      LOOP:  cpu time    6.0803: real time    6.1382

 eigenvalue-minimisations  :   308
 total energy-change (2. order) :-0.5161487E+02  (-0.5127597E+02)
 number of electron     216.0000000 magnetization 
 augmentation part      216.0000000 magnetization 

 Free energy of the ion-electron system (eV)
  ---------------------------------------------------
  alpha Z        PSCENC =        47.94900195
  Ewald energy   TEWEN  =     48114.18302124
  -Hartree energ DENC   =    -54181.92891958
  -exchange      EXHF   =         0.00000000
  -V(xc)+E(xc)   XCENC  =       421.27876347
  PAW double counting   =      6525.96553977    -6260.36035765
  entropy T*S    EENTRO =        -0.00000000
  eigenvalues    EBANDS =     -3552.68814104
  atomic energy  EATOM  =      8369.52358910
  ---------------------------------------------------
  free energy    TOTEN  =      -516.07750273 eV

  energy without entropy =     -516.07750273  energy(sigma->0) =     -516.07750273


--------------------------------------------------------------------------------------------------------




--------------------------------------- Iteration      1(   5)  ---------------------------------------


    TRIAL :  cpu time    7.6530: real time    7.7353
    CORREC:  cpu time    0.0001: real time    0.0001
    CHARGE:  cpu time    0.3138: real time    0.3175
    --------------------------------------------
      LOOP:  cpu time    8.0365: real time    8.1257

 eigenvalue-minimisations  :   420
 total energy-change (2. order) :-0.1559361E+01  (-0.1556428E+01)
 number of electron     216.0000000 magnetization 
 augmentation part       -0.2689021 magnetization 

 Free energy of the ion-electron system (eV)
  ---------------------------------------------------
  alpha Z        PSCENC =        47.94900195
  Ewald energy   TEWEN  =     48114.18302124
  -Hartree energ DENC   =    -54181.92891958
  -exchange      EXHF   =         0.00000000
  -V(xc)+E(xc)   XCENC  =       421.27876347
  PAW double counting   =      6525.96553977    -6260.36035765
  entropy T*S    EENTRO =        -0.00000000
  eigenvalues    EBANDS =     -3554.24750157
  atomic energy  EATOM  =      8369.52358910
  ---------------------------------------------------
  free energy    TOTEN  =      -517.63686326 eV

  energy without entropy =     -517.63686326  energy(sigma->0) =     -517.63686326


--------------------------------------------------------------------------------------------------------




--------------------------------------- Iteration      1(   6)  ---------------------------------------


    POTLOK:  cpu time    0.3826: real time    0.3853
    SETDIJ:  cpu time    0.0029: real time    0.0029
    TRIAL :  cpu time    2.6748: real time    2.7056
    CORREC:  cpu time    1.0638: real time    1.0842
    CHARGE:  cpu time    0.3104: real time    0.3159
    --------------------------------------------
      LOOP:  cpu time    4.5093: real time    4.5716

 eigenvalue-minimisations  :     0
 total energy-change (2. order) : 0.5097921E+02  (-0.1548023E+02)
 number of electron     216.0000000 magnetization 
 augmentation part       -0.3659206 magnetization 

 Free energy of the ion-electron system (eV)
  ---------------------------------------------------
  alpha Z        PSCENC =        47.94900195
  Ewald energy   TEWEN  =     48114.18302124
  -Hartree energ DENC   =    -55625.09282123
  -exchange      EXHF   =         0.00000000
  -V(xc)+E(xc)   XCENC  =       469.03111587
  PAW double counting   =     89657.81862545   -89400.47692394
  entropy T*S    EENTRO =        -0.00000000
  eigenvalues    EBANDS =     -2099.59326440
  atomic energy  EATOM  =      8369.52358910
  ---------------------------------------------------
  free energy    TOTEN  =      -466.65765595 eV

  energy without entropy =     -466.65765595  energy(sigma->0) =     -466.65765595


--------------------------------------------------------------------------------------------------------




--------------------------------------- Iteration      1(   7)  ---------------------------------------


    POTLOK:  cpu time    0.3904: real time    0.3930
    SETDIJ:  cpu time    0.0028: real time    0.0029
    TRIAL :  cpu time    2.6732: real time    2.6967
    CORREC:  cpu time    1.0827: real time    1.0915
    CHARGE:  cpu time    0.3132: real time    0.3156
    --------------------------------------------
      LOOP:  cpu time    4.5183: real time    4.5668

 eigenvalue-minimisations  :     0
 total energy-change (2. order) :-0.1550882E+02  (-0.1720270E+01)
 number of electron     216.0000000 magnetization 
 augmentation part       -0.4145728 magnetization 

 Free energy of the ion-electron system (eV)
  ---------------------------------------------------
  alpha Z        PSCENC =        47.94900195
  Ewald energy   TEWEN  =     48114.18302124
  -Hartree energ DENC   =    -55103.68657038
  -exchange      EXHF   =         0.00000000
  -V(xc)+E(xc)   XCENC  =       452.11543594
  PAW double counting   =    106065.25589719  -105805.08561243
  entropy T*S    EENTRO =        -0.00000000
  eigenvalues    EBANDS =     -2622.42124355
  atomic energy  EATOM  =      8369.52358910
  ---------------------------------------------------
  free energy    TOTEN  =      -482.16648094 eV

  energy without entropy =     -482.16648094  energy(sigma->0) =     -482.16648094


--------------------------------------------------------------------------------------------------------




--------------------------------------- Iteration      1(   8)  ---------------------------------------


    POTLOK:  cpu time    0.3849: real time    0.3874
    SETDIJ:  cpu time    0.0029: real time    0.0030
    TRIAL :  cpu time    2.6723: real time    2.6961
    CORREC:  cpu time    1.0820: real time    1.0899
    CHARGE:  cpu time    0.3133: real time    0.3155
    --------------------------------------------
      LOOP:  cpu time    4.5228: real time    4.5603

 eigenvalue-minimisations  :     0
 total energy-change (2. order) :-0.1720462E+01  (-0.4418482E+00)
 number of electron     216.0000000 magnetization 
 augmentation part       -0.4305333 magnetization 

 Free energy of the ion-electron system (eV)
  ---------------------------------------------------
  alpha Z        PSCENC =        47.94900195
  Ewald energy   TEWEN  =     48114.18302124
  -Hartree energ DENC   =    -55086.74477754
  -exchange      EXHF   =         0.00000000
  -V(xc)+E(xc)   XCENC  =       451.64445063
  PAW double counting   =    110471.87324816  -110211.30660178
  entropy T*S    EENTRO =        -0.00000000
  eigenvalues    EBANDS =     -2641.00887511
  atomic energy  EATOM  =      8369.52358910
  ---------------------------------------------------
  free energy    TOTEN  =      -483.88694334 eV

  energy without entropy =     -483.88694334  energy(sigma->0) =     -483.88694334


--------------------------------------------------------------------------------------------------------




--------------------------------------- Iteration      1(   9)  ---------------------------------------


    POTLOK:  cpu time    0.3849: real time    0.3873
    SETDIJ:  cpu time    0.0029: real time    0.0029
    TRIAL :  cpu time    2.6735: real time    2.6974
    CORREC:  cpu time    1.0807: real time    1.0886
    CHARGE:  cpu time    0.3135: real time    0.3157
    --------------------------------------------
      LOOP:  cpu time    4.5093: real time    4.5560

 eigenvalue-minimisations  :     0
 total energy-change (2. order) :-0.4416577E+00  (-0.1423778E+00)
 number of electron     216.0000000 magnetization 
 augmentation part       -0.4369598 magnetization 

 Free energy of the ion-electron system (eV)
  ---------------------------------------------------
  alpha Z        PSCENC =        47.94900195
  Ewald energy   TEWEN  =     48114.18302124
  -Hartree energ DENC   =    -55101.76859207
  -exchange      EXHF   =         0.00000000
  -V(xc)+E(xc)   XCENC  =       451.81673074
  PAW double counting   =    113121.56319055  -112860.85037619
  entropy T*S    EENTRO =        -0.00000000
  eigenvalues    EBANDS =     -2626.74516634
  atomic energy  EATOM  =      8369.52358910
  ---------------------------------------------------
  free energy    TOTEN  =      -484.32860103 eV

  energy without entropy =     -484.32860103  energy(sigma->0) =     -484.32860103


--------------------------------------------------------------------------------------------------------




--------------------------------------- Iteration      1(  10)  ---------------------------------------


    POTLOK:  cpu time    0.3863: real time    0.3889
    SETDIJ:  cpu time    0.0027: real time    0.0028
    TRIAL :  cpu time    2.6729: real time    2.6968
    CORREC:  cpu time    1.0808: real time    1.0890
    CHARGE:  cpu time    0.3141: real time    0.3165
    --------------------------------------------
      LOOP:  cpu time    4.5160: real time    4.5574

 eigenvalue-minimisations  :     0
 total energy-change (2. order) :-0.1422164E+00  (-0.5755171E-01)
 number of electron     216.0000000 magnetization 
 augmentation part       -0.4376109 magnetization 

 Free energy of the ion-electron system (eV)
  ---------------------------------------------------
  alpha Z        PSCENC =        47.94900195
  Ewald energy   TEWEN  =     48114.18302124
  -Hartree energ DENC   =    -55101.97085563
  -exchange      EXHF   =         0.00000000
  -V(xc)+E(xc)   XCENC  =       451.75593857
  PAW double counting   =    113544.41690069  -113283.62883065
  entropy T*S    EENTRO =        -0.00000000
  eigenvalues    EBANDS =     -2626.69958272
  atomic energy  EATOM  =      8369.52358910
  ---------------------------------------------------
  free energy    TOTEN  =      -484.47081744 eV

  energy without entropy =     -484.47081744  energy(sigma->0) =     -484.47081744


--------------------------------------------------------------------------------------------------------




--------------------------------------- Iteration      1(  11)  ---------------------------------------


    POTLOK:  cpu time    0.3811: real time    0.3836
    SETDIJ:  cpu time    0.0029: real time    0.0029
    TRIAL :  cpu time    2.6716: real time    2.6990
    CORREC:  cpu time    1.0774: real time    1.0855
    CHARGE:  cpu time    0.3123: real time    0.3145
    --------------------------------------------
      LOOP:  cpu time    4.4755: real time    4.5191

 eigenvalue-minimisations  :     0
 total energy-change (2. order) :-0.5740599E-01  (-0.2336855E-01)
 number of electron     216.0000000 magnetization 
 augmentation part       -0.4370850 magnetization 

 Free energy of the ion-electron system (eV)
  ---------------------------------------------------
  alpha Z        PSCENC =        47.94900195
  Ewald energy   TEWEN  =     48114.18302124
  -Hartree energ DENC   =    -55097.90350489
  -exchange      EXHF   =         0.00000000
  -V(xc)+E(xc)   XCENC  =       451.69342080
  PAW double counting   =    113083.75776430  -112822.96883151
  entropy T*S    EENTRO =        -0.00000000
  eigenvalues    EBANDS =     -2630.76268441
  atomic energy  EATOM  =      8369.52358910
  ---------------------------------------------------
  free energy    TOTEN  =      -484.52822343 eV

  energy without entropy =     -484.52822343  energy(sigma->0) =     -484.52822343


--------------------------------------------------------------------------------------------------------




--------------------------------------- Iteration      1(  12)  ---------------------------------------


    POTLOK:  cpu time    0.3840: real time    0.3864
    SETDIJ:  cpu time    0.0027: real time    0.0027
    TRIAL :  cpu time    2.6744: real time    2.6982
    CORREC:  cpu time    1.0673: real time    1.0825
    CHARGE:  cpu time    0.3110: real time    0.3172
    --------------------------------------------
      LOOP:  cpu time    4.5054: real time    4.5558

 eigenvalue-minimisations  :     0
 total energy-change (2. order) :-0.2328152E-01  (-0.8146339E-02)
 number of electron     216.0000000 magnetization 
 augmentation part       -0.4371525 magnetization 

 Free energy of the ion-electron system (eV)
  ---------------------------------------------------
  alpha Z        PSCENC =        47.94900195
  Ewald energy   TEWEN  =     48114.18302124
  -Hartree energ DENC   =    -55096.04807628
  -exchange      EXHF   =         0.00000000
  -V(xc)+E(xc)   XCENC  =       451.66234446
  PAW double counting   =    112715.84668077  -112455.07919433
  entropy T*S    EENTRO =        -0.00000000
  eigenvalues    EBANDS =     -2632.58887186
  atomic energy  EATOM  =      8369.52358910
  ---------------------------------------------------
  free energy    TOTEN  =      -484.55150495 eV

  energy without entropy =     -484.55150495  energy(sigma->0) =     -484.55150495


--------------------------------------------------------------------------------------------------------




--------------------------------------- Iteration      1(  13)  ---------------------------------------


    POTLOK:  cpu time    0.3833: real time    0.3857
    SETDIJ:  cpu time    0.0027: real time    0.0027
    TRIAL :  cpu time    2.6800: real time    2.7031
    CORREC:  cpu time    1.0724: real time    1.0810
    CHARGE:  cpu time    0.3137: real time    0.3162
    --------------------------------------------
      LOOP:  cpu time    4.4897: real time    4.5287

 eigenvalue-minimisations  :     0
 total energy-change (2. order) :-0.8130197E-02  (-0.2470079E-02)
 number of electron     216.0000000 magnetization 
 augmentation part       -0.4368523 magnetization 

 Free energy of the ion-electron system (eV)
  ---------------------------------------------------
  alpha Z        PSCENC =        47.94900195
  Ewald energy   TEWEN  =     48114.18302124
  -Hartree energ DENC   =    -55095.72103014
  -exchange      EXHF   =         0.00000000
  -V(xc)+E(xc)   XCENC  =       451.64721321
  PAW double counting   =    112611.10330152  -112350.34505050
  entropy T*S    EENTRO =        -0.00000000
  eigenvalues    EBANDS =     -2632.89968152
  atomic energy  EATOM  =      8369.52358910
  ---------------------------------------------------
  free energy    TOTEN  =      -484.55963515 eV

  energy without entropy =     -484.55963515  energy(sigma->0) =     -484.55963515


--------------------------------------------------------------------------------------------------------




--------------------------------------- Iteration      1(  14)  ---------------------------------------


    POTLOK:  cpu time    0.3795: real time    0.3819
    SETDIJ:  cpu time    0.0028: real time    0.0028
    TRIAL :  cpu time    2.6744: real time    2.6980
    CORREC:  cpu time    1.0736: real time    1.0821
    CHARGE:  cpu time    0.3124: real time    0.3150
    --------------------------------------------
      LOOP:  cpu time    4.5002: real time    4.5384

 eigenvalue-minimisations  :     0
 total energy-change (2. order) :-0.2470441E-02  (-0.7400049E-03)
 number of electron     216.0000000 magnetization 
 augmentation part       -0.4365740 magnetization 

 Free energy of the ion-electron system (eV)
  ---------------------------------------------------
  alpha Z        PSCENC =        47.94900195
  Ewald energy   TEWEN  =     48114.18302124
  -Hartree energ DENC   =    -55095.73534256
  -exchange      EXHF   =         0.00000000
  -V(xc)+E(xc)   XCENC  =       451.64587283
  PAW double counting   =    112644.73370971  -112383.97799584
  entropy T*S    EENTRO =        -0.00000000
  eigenvalues    EBANDS =     -2632.88396202
  atomic energy  EATOM  =      8369.52358910
  ---------------------------------------------------
  free energy    TOTEN  =      -484.56210559 eV

  energy without entropy =     -484.56210559  energy(sigma->0) =     -484.56210559


--------------------------------------------------------------------------------------------------------




--------------------------------------- Iteration      1(  15)  ---------------------------------------


    POTLOK:  cpu time    0.3779: real time    0.3803
    SETDIJ:  cpu time    0.0029: real time    0.0029
    TRIAL :  cpu time    2.6733: real time    2.6968
    CORREC:  cpu time    1.0889: real time    1.0975
    CHARGE:  cpu time    0.3131: real time    0.3155
    --------------------------------------------
      LOOP:  cpu time    4.5020: real time    4.5463

 eigenvalue-minimisations  :     0
 total energy-change (2. order) :-0.7416245E-03  (-0.2673710E-03)
 number of electron     216.0000000 magnetization 
 augmentation part       -0.4362983 magnetization 

 Free energy of the ion-electron system (eV)
  ---------------------------------------------------
  alpha Z        PSCENC =        47.94900195
  Ewald energy   TEWEN  =     48114.18302124
  -Hartree energ DENC   =    -55095.44019565
  -exchange      EXHF   =         0.00000000
  -V(xc)+E(xc)   XCENC  =       451.63513827
  PAW double counting   =    112673.66381291  -112412.90678204
  entropy T*S    EENTRO =        -0.00000000
  eigenvalues    EBANDS =     -2633.17043300
  atomic energy  EATOM  =      8369.52358910
  ---------------------------------------------------
  free energy    TOTEN  =      -484.56284721 eV

  energy without entropy =     -484.56284721  energy(sigma->0) =     -484.56284721


--------------------------------------------------------------------------------------------------------




--------------------------------------- Iteration      1(  16)  ---------------------------------------


    POTLOK:  cpu time    0.3755: real time    0.3778
    SETDIJ:  cpu time    0.0028: real time    0.0028
    TRIAL :  cpu time    2.6728: real time    2.6968
    CORREC:  cpu time    1.0687: real time    1.0775
    CHARGE:  cpu time    0.3124: real time    0.3149
    --------------------------------------------
      LOOP:  cpu time    4.4828: real time    4.5314

 eigenvalue-minimisations  :     0
 total energy-change (2. order) :-0.2683994E-03  (-0.1144366E-03)
 number of electron     216.0000000 magnetization 
 augmentation part       -0.4361032 magnetization 

 Free energy of the ion-electron system (eV)
  ---------------------------------------------------
  alpha Z        PSCENC =        47.94900195
  Ewald energy   TEWEN  =     48114.18302124
  -Hartree energ DENC   =    -55095.48975370
  -exchange      EXHF   =         0.00000000
  -V(xc)+E(xc)   XCENC  =       451.63688657
  PAW double counting   =    112652.34944270  -112391.59265355
  entropy T*S    EENTRO =        -0.00000000
  eigenvalues    EBANDS =     -2633.12264992
  atomic energy  EATOM  =      8369.52358910
  ---------------------------------------------------
  free energy    TOTEN  =      -484.56311561 eV

  energy without entropy =     -484.56311561  energy(sigma->0) =     -484.56311561


--------------------------------------------------------------------------------------------------------




--------------------------------------- Iteration      1(  17)  ---------------------------------------


    POTLOK:  cpu time    0.3778: real time    0.3802
    SETDIJ:  cpu time    0.0029: real time    0.0029
    TRIAL :  cpu time    2.6762: real time    2.7013
    CORREC:  cpu time    1.0771: real time    1.0850
    CHARGE:  cpu time    0.3100: real time    0.3157
    --------------------------------------------
      LOOP:  cpu time    4.4736: real time    4.5197

 eigenvalue-minimisations  :     0
 total energy-change (2. order) :-0.1146044E-03  (-0.4616118E-04)
 number of electron     216.0000000 magnetization 
 augmentation part       -0.4361255 magnetization 

 Free energy of the ion-electron system (eV)
  ---------------------------------------------------
  alpha Z        PSCENC =        47.94900195
  Ewald energy   TEWEN  =     48114.18302124
  -Hartree energ DENC   =    -55095.65012284
  -exchange      EXHF   =         0.00000000
  -V(xc)+E(xc)   XCENC  =       451.64223749
  PAW double counting   =    112620.45397338  -112359.69787859
  entropy T*S    EENTRO =        -0.00000000
  eigenvalues    EBANDS =     -2632.96705196
  atomic energy  EATOM  =      8369.52358910
  ---------------------------------------------------
  free energy    TOTEN  =      -484.56323022 eV

  energy without entropy =     -484.56323022  energy(sigma->0) =     -484.56323022


--------------------------------------------------------------------------------------------------------




--------------------------------------- Iteration      1(  18)  ---------------------------------------


    POTLOK:  cpu time    0.3761: real time    0.3785
    SETDIJ:  cpu time    0.0029: real time    0.0029
    TRIAL :  cpu time    2.6730: real time    2.6962
    CORREC:  cpu time    1.0722: real time    1.0803
    CHARGE:  cpu time    0.3126: real time    0.3148
    --------------------------------------------
      LOOP:  cpu time    4.4709: real time    4.5246

 eigenvalue-minimisations  :     0
 total energy-change (2. order) :-0.4601256E-04  (-0.1681474E-04)
 number of electron     216.0000000 magnetization 
 augmentation part       -0.4361760 magnetization 

 Free energy of the ion-electron system (eV)
  ---------------------------------------------------
  alpha Z        PSCENC =        47.94900195
  Ewald energy   TEWEN  =     48114.18302124
  -Hartree energ DENC   =    -55095.59700466
  -exchange      EXHF   =         0.00000000
  -V(xc)+E(xc)   XCENC  =       451.64011816
  PAW double counting   =    112611.61393231  -112350.85714555
  entropy T*S    EENTRO =        -0.00000000
  eigenvalues    EBANDS =     -2633.01878878
  atomic energy  EATOM  =      8369.52358910
  ---------------------------------------------------
  free energy    TOTEN  =      -484.56327623 eV

  energy without entropy =     -484.56327623  energy(sigma->0) =     -484.56327623


--------------------------------------------------------------------------------------------------------




--------------------------------------- Iteration      1(  19)  ---------------------------------------


    POTLOK:  cpu time    0.3797: real time    0.3820
    SETDIJ:  cpu time    0.0029: real time    0.0029
    TRIAL :  cpu time    2.6618: real time    2.6972
    CORREC:  cpu time    1.0599: real time    1.0798
    CHARGE:  cpu time    0.3078: real time    0.3151
    --------------------------------------------
      LOOP:  cpu time    4.4438: real time    4.5120

 eigenvalue-minimisations  :     0
 total energy-change (2. order) :-0.1653243E-04  (-0.5837509E-05)
 number of electron     216.0000000 magnetization 
 augmentation part       -0.4362474 magnetization 

 Free energy of the ion-electron system (eV)
  ---------------------------------------------------
  alpha Z        PSCENC =        47.94900195
  Ewald energy   TEWEN  =     48114.18302124
  -Hartree energ DENC   =    -55095.63247311
  -exchange      EXHF   =         0.00000000
  -V(xc)+E(xc)   XCENC  =       451.64169146
  PAW double counting   =    112617.19197137  -112356.43513915
  entropy T*S    EENTRO =        -0.00000000
  eigenvalues    EBANDS =     -2632.98495564
  atomic energy  EATOM  =      8369.52358910
  ---------------------------------------------------
  free energy    TOTEN  =      -484.56329276 eV

  energy without entropy =     -484.56329276  energy(sigma->0) =     -484.56329276


--------------------------------------------------------------------------------------------------------




--------------------------------------- Iteration      1(  20)  ---------------------------------------


    POTLOK:  cpu time    0.3827: real time    0.3852
    SETDIJ:  cpu time    0.0029: real time    0.0029
    TRIAL :  cpu time    2.6741: real time    2.6976
    CORREC:  cpu time    1.0702: real time    1.0784
    CHARGE:  cpu time    0.3129: real time    0.3151
    --------------------------------------------
      LOOP:  cpu time    4.4876: real time    4.5261

 eigenvalue-minimisations  :     0
 total energy-change (2. order) :-0.5565700E-05  (-0.2037520E-05)
 number of electron     216.0000000 magnetization 
 augmentation part       -0.4362611 magnetization 

 Free energy of the ion-electron system (eV)
  ---------------------------------------------------
  alpha Z        PSCENC =        47.94900195
  Ewald energy   TEWEN  =     48114.18302124
  -Hartree energ DENC   =    -55095.62347476
  -exchange      EXHF   =         0.00000000
  -V(xc)+E(xc)   XCENC  =       451.64104850
  PAW double counting   =    112623.57930532  -112362.82219202
  entropy T*S    EENTRO =        -0.00000000
  eigenvalues    EBANDS =     -2632.99359766
  atomic energy  EATOM  =      8369.52358910
  ---------------------------------------------------
  free energy    TOTEN  =      -484.56329833 eV

  energy without entropy =     -484.56329833  energy(sigma->0) =     -484.56329833


--------------------------------------------------------------------------------------------------------




--------------------------------------- Iteration      1(  21)  ---------------------------------------


    POTLOK:  cpu time    0.3750: real time    0.3773
    SETDIJ:  cpu time    0.0027: real time    0.0027
    TRIAL :  cpu time    2.6716: real time    2.6973
    CORREC:  cpu time    1.0701: real time    1.0789
    CHARGE:  cpu time    0.3144: real time    0.3165
    --------------------------------------------
      LOOP:  cpu time    4.4660: real time    4.5069

 eigenvalue-minimisations  :     0
 total energy-change (2. order) :-0.1886961E-05  (-0.7766588E-06)
 number of electron     216.0000000 magnetization 
 augmentation part       -0.4362679 magnetization 

 Free energy of the ion-electron system (eV)
  ---------------------------------------------------
  alpha Z        PSCENC =        47.94900195
  Ewald energy   TEWEN  =     48114.18302124
  -Hartree energ DENC   =    -55095.63590701
  -exchange      EXHF   =         0.00000000
  -V(xc)+E(xc)   XCENC  =       451.64157675
  PAW double counting   =    112625.42685327  -112364.66986340
  entropy T*S    EENTRO =        -0.00000000
  eigenvalues    EBANDS =     -2632.98157212
  atomic energy  EATOM  =      8369.52358910
  ---------------------------------------------------
  free energy    TOTEN  =      -484.56330022 eV

  energy without entropy =     -484.56330022  energy(sigma->0) =     -484.56330022


--------------------------------------------------------------------------------------------------------




--------------------------------------- Iteration      1(  22)  ---------------------------------------


    POTLOK:  cpu time    0.3783: real time    0.3807
    SETDIJ:  cpu time    0.0027: real time    0.0027
    TRIAL :  cpu time    2.6751: real time    2.6989
    CORREC:  cpu time    1.0707: real time    1.0791
    EDDIAG:  cpu time    0.5960: real time    0.6019
    CHARGE:  cpu time    0.3115: real time    0.3141
    --------------------------------------------
      LOOP:  cpu time    5.0623: real time    5.1072

 eigenvalue-minimisations  :     0
 total energy-change (2. order) :-0.7402268E-06  (-0.3244090E-06)
 number of electron     216.0000000 magnetization 
 augmentation part       -0.4362617 magnetization 

 Free energy of the ion-electron system (eV)
  ---------------------------------------------------
  alpha Z        PSCENC =        47.94900195
  Ewald energy   TEWEN  =     48114.18302124
  -Hartree energ DENC   =    -55095.62483193
  -exchange      EXHF   =         0.00000000
  -V(xc)+E(xc)   XCENC  =       451.64109795
  PAW double counting   =    112624.65620686  -112363.89919211
  entropy T*S    EENTRO =        -0.00000000
  eigenvalues    EBANDS =     -2632.99219401
  atomic energy  EATOM  =      8369.52358910
  ---------------------------------------------------
  free energy    TOTEN  =      -484.56330096 eV

  energy without entropy =     -484.56330096  energy(sigma->0) =     -484.56330096


--------------------------------------------------------------------------------------------------------


  average scaling for gradient   0.9112


 average (electrostatic) potential at core
  the test charge radii are     0.5770  0.5955
  (the norm of the test charge is              1.0000)
       1 -85.6502       2 -85.6431       3 -85.6573       4 -85.6656       5 -85.6405
       6 -85.6361       7 -85.6476       8 -85.6244       9 -85.6371      10 -85.6368
      11 -85.6403      12 -85.6468      13 -85.6350      14 -85.6341      15 -85.6384
      16 -85.6362      17 -85.6435      18 -85.6450      19 -85.6487      20 -85.6437
      21 -85.6283      22 -85.6334      23 -85.6639      24 -85.6584      25 -85.6394
      26 -85.6417      27 -85.6376      28 -85.6533      29 -85.6353      30 -85.6392
      31 -85.6637      32 -85.6512      33 -85.6488      34 -85.6417      35 -85.6387
      36 -85.6426      37 -85.6441      38 -85.6476      39 -85.6475      40 -85.6447
      41 -85.6460      42 -85.6495      43 -85.6426      44 -85.6497      45 -85.6382
      46 -85.6363      47 -85.6456      48 -85.6420      49 -85.6465      50 -85.6447
      51 -89.4727      52-120.2317      53-120.2389
 
 
 
 E-fermi :  -4.2939     XC(G=0):  -1.8597     alpha+bet : -1.6890

 Fermi energy:        -4.2939033793

 k-point     1 :       0.0000    0.0000    0.0000
  band No.  band energies     occupation 
      1     -27.5878      2.00000
      2     -26.5771      2.00000
      3     -22.3956      2.00000
      4     -21.4708      2.00000
      5     -21.4596      2.00000
      6     -21.4525      2.00000
      7     -21.4517      2.00000
      8     -21.4490      2.00000
      9     -21.4454      2.00000
     10     -19.6205      2.00000
     11     -19.6159      2.00000
     12     -19.6086      2.00000
     13     -19.6079      2.00000
     14     -19.6056      2.00000
     15     -19.6053      2.00000
     16     -18.7195      2.00000
     17     -18.7158      2.00000
     18     -18.7123      2.00000
     19     -18.7106      2.00000
     20     -18.7089      2.00000
     21     -18.7083      2.00000
     22     -16.5515      2.00000
     23     -16.5492      2.00000
     24     -16.5448      2.00000
     25     -16.5434      2.00000
     26     -16.5392      2.00000
     27     -16.5384      2.00000
     28     -15.5644      2.00000
     29     -15.5625      2.00000
     30     -15.5574      2.00000
     31     -15.5574      2.00000
     32     -15.5551      2.00000
     33     -15.5544      2.00000
     34     -14.2086      2.00000
     35     -14.2072      2.00000
     36     -14.2057      2.00000
     37     -14.2037      2.00000
     38     -14.2032      2.00000
     39     -14.2029      2.00000
     40     -12.4259      2.00000
     41     -11.8206      2.00000
     42     -11.8192      2.00000
     43     -11.8145      2.00000
     44     -11.8138      2.00000
     45     -11.8136      2.00000
     46     -11.8124      2.00000
     47     -11.7245      2.00000
     48     -11.7218      2.00000
     49     -11.7196      2.00000
     50     -11.7191      2.00000
     51     -11.7150      2.00000
     52     -11.7147      2.00000
     53     -11.3462      2.00000
     54     -11.2406      2.00000
     55     -11.1637      2.00000
     56     -10.4227      2.00000
     57     -10.3425      2.00000
     58     -10.3423      2.00000
     59     -10.3406      2.00000
     60     -10.3404      2.00000
     61     -10.3392      2.00000
     62     -10.3383      2.00000
     63      -9.3693      2.00000
     64      -9.3683      2.00000
     65      -9.3664      2.00000
     66      -9.3633      2.00000
     67      -9.3611      2.00000
     68      -9.2570      2.00000
     69      -9.0663      2.00000
     70      -9.0624      2.00000
     71      -9.0614      2.00000
     72      -9.0598      2.00000
     73      -9.0589      2.00000
     74      -9.0570      2.00000
     75      -9.0156      2.00000
     76      -9.0144      2.00000
     77      -9.0138      2.00000
     78      -9.0110      2.00000
     79      -9.0105      2.00000
     80      -9.0090      2.00000
     81      -7.7574      2.00000
     82      -7.6342      2.00000
     83      -7.4079      2.00000
     84      -7.4062      2.00000
     85      -7.4056      2.00000
     86      -7.4020      2.00000
     87      -7.4005      2.00000
     88      -7.4000      2.00000
     89      -7.2475      2.00000
     90      -7.2372      2.00000
     91      -7.2332      2.00000
     92      -7.2235      2.00000
     93      -7.2154      2.00000
     94      -7.0936      2.00000
     95      -6.3514      2.00000
     96      -6.3483      2.00000
     97      -6.3387      2.00000
     98      -6.3381      2.00000
     99      -6.3282      2.00000
    100      -6.2753      2.00000
    101      -5.9163      2.00000
    102      -5.9139      2.00000
    103      -4.3745      2.00000
    104      -4.3676      2.00000
    105      -4.3611      2.00000
    106      -4.3567      2.00000
    107      -4.3538      2.00000
    108      -4.3526      2.00000
    109      -1.5832      0.00000
    110      -1.5755      0.00000
    111      -1.5588      0.00000
    112      -1.5556      0.00000
    113      -1.5530      0.00000
    114      -1.5471      0.00000
    115       0.2459      0.00000
    116       0.2672      0.00000
    117       0.2840      0.00000
    118       0.3003      0.00000
    119       0.3084      0.00000
    120       0.3106      0.00000
    121       0.3148      0.00000
    122       0.8989      0.00000
    123       0.9238      0.00000
    124       1.1992      0.00000
    125       1.4056      0.00000
    126       1.6044      0.00000
    127       1.6343      0.00000
    128       1.6799      0.00000
    129       1.6846      0.00000
    130       1.6970      0.00000
    131       1.7723      0.00000
    132       2.0535      0.00000
    133       2.0999      0.00000
    134       2.1249      0.00000
    135       2.2224      0.00000
    136       2.3418      0.00000
    137       2.6158      0.00000
    138       2.8626      0.00000
    139       2.9945      0.00000
    140       3.0409      0.00000


--------------------------------------------------------------------------------------------------------


 soft charge-density along one line, spin component           1
         0         1         2         3         4         5         6         7         8         9
 total charge-density along one line
 
 pseudopotential strength for first ion, spin component:           1
 12.703  21.377  -0.000   0.000   0.000  -0.000   0.000   0.000
 21.377  35.971  -0.000   0.000   0.000  -0.000   0.000   0.000
 -0.000  -0.000  -3.170  -0.000   0.000  -5.681  -0.000   0.000
  0.000   0.000  -0.000  -3.171  -0.000  -0.000  -5.683  -0.000
  0.000   0.000   0.000  -0.000  -3.170   0.000  -0.000  -5.681
 -0.000  -0.000  -5.681  -0.000   0.000 -10.161  -0.000   0.000
  0.000   0.000  -0.000  -5.683  -0.000  -0.000 -10.164  -0.000
  0.000   0.000   0.000  -0.000  -5.681   0.000  -0.000 -10.161
 total augmentation occupancy for first ion, spin component:           1
  7.879  -2.765  -0.000  -0.002   0.000   0.000   0.001  -0.000
 -2.765   1.007   0.000   0.001  -0.000  -0.000  -0.000   0.000
 -0.000   0.000   7.263  -0.008   0.000  -2.461   0.003  -0.000
 -0.002   0.001  -0.008   3.233  -0.000   0.003  -0.862   0.000
  0.000  -0.000   0.000  -0.000   7.263  -0.000   0.000  -2.461
  0.000  -0.000  -2.461   0.003  -0.000   0.848  -0.001   0.000
  0.001  -0.000   0.003  -0.862   0.000  -0.001   0.236   0.000
 -0.000   0.000  -0.000   0.000  -2.461   0.000   0.000   0.848


------------------------ aborting loop because EDIFF is reached ----------------------------------------


    FORLOC:  cpu time    0.0668: real time    0.0674
    FORNL :  cpu time    1.0816: real time    1.0946
    FORCOR:  cpu time    0.3980: real time    0.4005
    OFIELD:  cpu time    0.0018: real time    0.0018

 ---------------------------------------------------------------------------------------------

         DFTD3 V3.0 Rev 1        
 IVDW         = 11
 DF pbe       
 parameters
 VDW_S6       =    1.0000
 VDW_S8       =    0.7220
 VDW_SR       =    1.2170
 rs18     =    1.0000
 alpha6   =   14.0000
 alpha8   =   16.0000
 k1-k3    =   16.0000    1.3333   -4.0000
 VDW_RADIUS   =   50.2022 A
 VDW_CNRADIUS =   21.1671 A
 Edisp (eV)   -1.94541

 E6    (eV) :    -1.0920
 E8    (eV) :    -0.8534
 % E8        : 43.87
    FORVDW:  cpu time    0.1589: real time    0.1606

 VOLUME and BASIS-vectors are now :
 -----------------------------------------------------------------------------
  energy-cutoff  :     1000.00
  volume of cell :     3288.85
      direct lattice vectors                 reciprocal lattice vectors
    12.325000000  0.000000000  0.000000000     0.081135903  0.046843835  0.000000000
    -6.162500000 10.673763102  0.000000000     0.000000000  0.093687670  0.000000000
     0.000000000  0.000000000 25.000000000     0.000000000  0.000000000  0.040000000

  length of vectors
    12.325000000 12.325000000 25.000000000     0.093687670  0.093687670  0.040000000


 FORCES acting on ions:
    Electron-Ion                     Ewald-Force                    Non-Local-Force
 -----------------------------------------------------------------------------------------------
   0.130E+02 0.114E+02 0.248E+02   -.130E+02 -.114E+02 -.248E+02   0.138E-01 -.824E-02 0.135E-01
   0.221E+02 0.110E+02 0.335E+02   -.221E+02 -.110E+02 -.335E+02   0.225E-01 -.158E-01 -.104E-01
   0.114E+02 0.286E+02 0.429E+02   -.114E+02 -.287E+02 -.429E+02   -.181E-02 0.583E-01 0.395E-01
   0.192E+02 0.283E+02 0.742E+02   -.193E+02 -.283E+02 -.744E+02   0.832E-01 0.369E-01 0.962E-01
   0.142E+02 0.339E+01 0.249E+02   -.142E+02 -.337E+01 -.249E+02   0.164E-02 -.203E-01 -.587E-02
   0.150E+02 -.249E+01 0.255E+02   -.150E+02 0.250E+01 -.255E+02   -.280E-01 -.595E-02 -.141E-01
   0.319E+02 0.135E+02 0.622E+02   -.320E+02 -.134E+02 -.622E+02   0.602E-01 -.910E-01 -.482E-01
   0.320E+02 -.106E+02 0.675E+02   -.320E+02 0.106E+02 -.674E+02   -.197E-01 -.337E-01 -.212E+00
   -.124E+02 0.269E+02 0.448E+02   0.124E+02 -.268E+02 -.447E+02   -.232E-01 -.118E-01 -.623E-01
   -.241E+02 0.208E+02 0.732E+02   0.242E+02 -.208E+02 -.731E+02   -.743E-01 0.354E-01 -.217E+00
   0.344E+01 -.298E+01 0.196E+02   -.342E+01 0.296E+01 -.196E+02   -.783E-02 0.630E-02 -.608E-02
   0.270E+01 -.217E+01 0.182E+02   -.270E+01 0.218E+01 -.182E+02   -.171E-01 0.741E-02 0.147E-02
   0.119E+02 -.301E+02 0.787E+02   -.121E+02 0.302E+02 -.787E+02   0.117E+00 0.123E-02 -.235E+00
   0.518E+01 -.291E+02 0.439E+02   -.522E+01 0.291E+02 -.438E+02   0.314E-01 0.119E-02 -.553E-01
   -.128E+02 0.805E+01 0.244E+02   0.127E+02 -.804E+01 -.244E+02   0.197E-01 -.109E-01 -.814E-02
   -.194E+02 0.538E+01 0.293E+02   0.193E+02 -.538E+01 -.292E+02   0.293E-02 0.822E-02 -.291E-01
   -.183E+01 -.755E+00 0.174E+02   0.184E+01 0.752E+00 -.174E+02   -.374E-02 -.207E-02 0.112E-02
   0.104E+01 0.681E+01 0.187E+02   -.104E+01 -.681E+01 -.187E+02   -.975E-02 0.410E-02 0.818E-02
   -.405E+01 -.230E+02 0.317E+02   0.402E+01 0.230E+02 -.318E+02   0.357E-01 -.239E-02 0.139E-01
   -.163E+01 -.106E+02 0.208E+02   0.163E+01 0.106E+02 -.208E+02   0.424E-02 -.499E-02 -.185E-02
   0.234E+02 -.101E+02 0.369E+02   -.233E+02 0.101E+02 -.369E+02   -.128E-01 -.353E-02 -.588E-01
   0.134E+02 -.116E+02 0.277E+02   -.133E+02 0.116E+02 -.277E+02   -.179E-01 0.239E-01 -.164E-01
   -.589E+01 0.143E+02 0.101E+03   0.602E+01 -.144E+02 -.101E+03   -.127E+00 0.898E-01 -.278E-01
   -.116E+02 -.228E+02 0.933E+02   0.116E+02 0.229E+02 -.935E+02   0.847E-01 -.102E+00 0.812E-03
   0.596E+01 -.268E+01 0.198E+02   -.593E+01 0.267E+01 -.198E+02   -.149E-01 0.307E-02 -.989E-02
   0.106E+01 0.536E+01 0.200E+02   -.105E+01 -.536E+01 -.200E+02   -.141E-01 0.607E-02 -.185E-02
   -.313E+02 0.335E+01 0.506E+02   0.313E+02 -.341E+01 -.505E+02   0.477E-02 0.357E-01 -.768E-01
   -.279E+02 -.122E+02 0.442E+02   0.280E+02 0.122E+02 -.442E+02   -.453E-01 0.435E-01 0.157E-01
   0.816E+01 -.168E+02 0.292E+02   -.816E+01 0.168E+02 -.291E+02   0.870E-02 0.155E-01 -.221E-01
   0.759E+00 -.598E+01 0.212E+02   -.775E+00 0.597E+01 -.212E+02   0.451E-02 0.129E-01 -.968E-02
   -.234E+02 -.254E+02 0.565E+02   0.234E+02 0.255E+02 -.566E+02   -.636E-01 -.421E-01 0.767E-01
   -.125E+02 -.227E+02 0.343E+02   0.125E+02 0.227E+02 -.344E+02   -.107E-02 -.350E-01 0.236E-01
   0.675E+00 0.281E+01 0.180E+02   -.679E+00 -.281E+01 -.180E+02   0.120E-01 -.994E-02 0.349E-02
   0.197E+01 0.287E+01 0.196E+02   -.197E+01 -.285E+01 -.195E+02   0.949E-03 -.762E-02 -.648E-02
   -.884E+01 0.104E+01 0.217E+02   0.883E+01 -.105E+01 -.217E+02   0.133E-01 0.229E-02 -.350E-02
   -.753E+01 -.298E+01 0.210E+02   0.754E+01 0.298E+01 -.210E+02   -.116E-01 0.999E-02 -.434E-02
   -.156E+02 -.815E+01 0.256E+02   0.156E+02 0.814E+01 -.256E+02   -.181E-01 0.393E-02 -.105E-02
   -.875E+01 -.713E+01 0.206E+02   0.876E+01 0.712E+01 -.207E+02   -.112E-01 0.365E-02 0.990E-02
   -.828E+01 -.109E+02 0.224E+02   0.829E+01 0.109E+02 -.224E+02   -.121E-01 -.103E-01 0.634E-02
   -.121E+01 -.253E+01 0.186E+02   0.120E+01 0.254E+01 -.186E+02   0.749E-03 -.182E-02 0.762E-02
   0.310E+01 0.737E+01 0.196E+02   -.310E+01 -.738E+01 -.196E+02   -.327E-02 0.114E-01 0.722E-02
   0.106E+02 0.165E+02 0.267E+02   -.106E+02 -.165E+02 -.267E+02   0.144E-01 0.165E-01 0.138E-01
   0.831E+00 0.133E+02 0.222E+02   -.821E+00 -.134E+02 -.222E+02   -.848E-02 0.102E-01 -.215E-02
   0.299E+00 0.264E+02 0.359E+02   -.264E+00 -.264E+02 -.359E+02   -.448E-01 0.109E-01 0.131E-01
   -.254E+01 0.508E+01 0.212E+02   0.254E+01 -.507E+01 -.212E+02   0.133E-02 -.933E-02 -.741E-02
   -.110E+02 0.141E+02 0.277E+02   0.110E+02 -.141E+02 -.277E+02   -.552E-02 -.434E-02 -.220E-01
   -.176E+01 -.500E+01 0.194E+02   0.175E+01 0.500E+01 -.194E+02   0.160E-01 0.658E-04 0.725E-03
   -.468E+01 0.193E+01 0.185E+02   0.466E+01 -.192E+01 -.185E+02   0.114E-01 -.145E-02 -.846E-02
   0.346E+00 -.310E+01 0.182E+02   -.344E+00 0.309E+01 -.182E+02   0.807E-02 -.291E-02 0.495E-02
   0.490E+01 0.361E+01 0.185E+02   -.490E+01 -.361E+01 -.185E+02   0.369E-02 0.534E-02 0.327E-02
   0.289E+00 -.170E+00 -.425E+03   -.279E+00 0.160E+00 0.426E+03   -.236E-01 0.104E-01 -.603E-01
   -.229E+03 0.155E+03 -.652E+03   0.279E+03 -.190E+03 0.655E+03   -.508E+02 0.346E+02 -.266E+01
   0.229E+03 -.156E+03 -.629E+03   -.279E+03 0.190E+03 0.626E+03   0.508E+02 -.347E+02 0.377E+01
 -----------------------------------------------------------------------------------------------
   0.496E-01 0.110E-01 -.221E+00   0.568E-13 -.142E-12 0.568E-12   -.496E-01 -.110E-01 0.222E+00
 
 
 POSITION                                       TOTAL-FORCE (eV/Angst)
 -----------------------------------------------------------------------------------
     11.98348      0.00342      0.01417         0.001223     -0.000776      0.000250
     -0.34154      1.42665      0.01100         0.010221      0.007598      0.000939
      2.12355      0.00315      0.01249         0.005224     -0.013468      0.006408
      2.12326      1.42653      0.00641        -0.012314      0.001119     -0.041129
     10.75099      2.13819      0.01213         0.000537     -0.003914      0.003137
     -1.57382      3.56123      0.01110        -0.004890      0.008360      0.002030
      0.89078      2.13854      0.00548        -0.017296      0.007239     -0.033383
      0.89099      3.56147      0.00181        -0.019666      0.020244     -0.085983
      4.58864      0.00346      0.01135         0.010716      0.029838     -0.010074
      4.58894      1.42623      0.00646         0.024816     -0.021650     -0.112859
      9.51854      4.27281      0.01369         0.008599     -0.012430      0.000457
     -2.80632      5.69591      0.01434        -0.013160      0.007662      0.001168
      2.12300      4.27302      0.00000        -0.019132      0.047216     -0.145164
      2.12335      5.69594      0.00581        -0.006075     -0.037942     -0.008915
      7.05344      0.00333      0.01399         0.003574     -0.000785      0.003178
      7.05353      1.42635      0.01368        -0.007935      0.006540      0.000917
      8.28610      6.40752      0.01601         0.004897     -0.005214     -0.000266
     -4.03885      7.83070      0.01636        -0.006284      0.006648      0.000241
      3.35586      6.40753      0.01007         0.007856      0.001668      0.004521
      3.35599      7.83072      0.01320        -0.003145     -0.004422      0.000586
     -0.34146      4.27290      0.00723         0.025699     -0.016409     -0.003184
     -0.34138      5.69591      0.00946        -0.006521      0.004059      0.005272
      3.35624      2.13791      0.00222         0.005090     -0.016604     -0.218994
      3.35573      3.56155      0.00139         0.009904      0.030234     -0.155074
     -1.57395      6.40758      0.01311         0.014572     -0.002442     -0.000672
     -1.57385      7.83068      0.01438        -0.005077      0.004078      0.000493
      5.82093      2.13784      0.01033        -0.015019     -0.020902     -0.019675
      5.82114      3.56097      0.01156        -0.000683      0.001161      0.004309
      0.89092      6.40755      0.00907         0.002591     -0.001065      0.004501
      0.89106      7.83068      0.01235        -0.011200     -0.003388      0.000522
      4.58871      4.27293      0.00850         0.003143     -0.009449     -0.001117
      4.58852      5.69606      0.01149        -0.001296      0.012765      0.003413
      9.51845      0.00337      0.01490         0.008256     -0.007901      0.000553
      9.51855      1.42644      0.01438        -0.004241      0.013452     -0.000233
      8.28593      2.13803      0.01453         0.001927     -0.008121      0.001592
      8.28613      3.56115      0.01464        -0.004814      0.002157      0.000652
      7.05356      4.27269      0.01457        -0.000726     -0.002457      0.001815
      7.05362      5.69588      0.01553        -0.003274      0.001281      0.000159
      5.82112      6.40755      0.01489        -0.001727     -0.001894     -0.000102
      5.82102      7.83073      0.01579        -0.003999      0.004586     -0.000127
      7.05363      8.54227      0.01631         0.002037     -0.002879      0.001201
     -5.27149      9.96549      0.01495         0.000322      0.000634     -0.001152
     -2.80638      8.54234      0.01558         0.002114      0.002565      0.000140
     -2.80627      9.96553      0.01362        -0.009584      0.000146      0.005045
     -0.34149      8.54239      0.01378         0.006873      0.000499      0.000917
     -0.34138      9.96550      0.01354        -0.008686      0.004716      0.003217
      2.12343      8.54232      0.01336         0.007776     -0.000150      0.001044
      2.12354      9.96544      0.01469        -0.009233      0.002726     -0.001952
      4.58846      8.54235      0.01505         0.010398     -0.007685      0.001275
      4.58853      9.96550      0.01517        -0.002143      0.006665      0.000977
      3.04930      2.68154      2.80616        -0.013743      0.001150      0.165857
      4.02070      2.02068      2.87058        -0.515926      0.378651      0.242008
      2.07767      3.34267      2.74670         0.549426     -0.413713      0.371258
 -----------------------------------------------------------------------------------
    total drift:                                0.000004     -0.000043      0.001579


--------------------------------------------------------------------------------------------------------



  FREE ENERGIE OF THE ION-ELECTRON SYSTEM (eV)
  ---------------------------------------------------
  free  energy   TOTEN  =      -486.50871192 eV

  energy  without entropy=     -486.50871192  energy(sigma->0) =     -486.50871192
 


--------------------------------------------------------------------------------------------------------


    POTLOK:  cpu time    0.3842: real time    0.3869


--------------------------------------------------------------------------------------------------------


     LOOP+:  cpu time  141.5308: real time  143.2112
    4ORBIT:  cpu time    0.0000: real time    0.0000

 total amount of memory used by VASP MPI-rank0   215378. kBytes
=======================================================================

   base      :      30000. kBytes
   nonl-proj :      57634. kBytes
   fftplans  :      45914. kBytes
   grid      :      67588. kBytes
   one-center:         43. kBytes
   wavefun   :      14199. kBytes
 
  
  
 General timing and accounting informations for this job:
 ========================================================
  
                  Total CPU time used (sec):      184.348
                            User time (sec):      169.465
                          System time (sec):       14.883
                         Elapsed time (sec):      187.175
  
                   Maximum memory used (kb):      587152.
                   Average memory used (kb):          N/A
  
                          Minor page faults:        63791
                          Major page faults:          102
                 Voluntary context switches:         3590
