 vasp.6.2.1 16May21 (build Nov 06 2021 14:46:37) complex                        
  
 executed on             LinuxIFC date 2025.04.16  22:07:24
 running on  112 total cores
 distrk:  each k-point on  112 cores,    1 groups
 distr:  one band on NCORE=   4 cores,   28 groups


--------------------------------------------------------------------------------------------------------


 INCAR:
   ALGO = Conjugate
   NCORE = 4
   ISMEAR = 0
   SIGMA = 0.01
   PREC = Accurate
   EDIFF = 1E-6
   ENCUT = 1000
   ISIF = 0
   IVDW = 11
   LWAVE = .FALSE.
   LCHARGE = .FALSE.
   SYMPREC = 1E-6

 POTCAR:    PAW_PBE C_h 06Feb2004                 
 POTCAR:    PAW_PBE O_h 06Feb2004                 
 -----------------------------------------------------------------------------
|                                                                             |
|           W    W    AA    RRRRR   N    N  II  N    N   GGGG   !!!           |
|           W    W   A  A   R    R  NN   N  II  NN   N  G    G  !!!           |
|           W    W  A    A  R    R  N N  N  II  N N  N  G       !!!           |
|           W WW W  AAAAAA  RRRRR   N  N N  II  N  N N  G  GGG   !            |
|           WW  WW  A    A  R   R   N   NN  II  N   NN  G    G                |
|           W    W  A    A  R    R  N    N  II  N    N   GGGG   !!!           |
|                                                                             |
|     For optimal performance we recommend to set                             |
|       NCORE = 2 up to number-of-cores-per-socket                            |
|     NCORE specifies how many cores store one orbital (NPAR=cpu/NCORE).      |
|     This setting can greatly improve the performance of VASP for DFT.       |
|     The default, NCORE=1 might be grossly inefficient on modern             |
|     multi-core architectures or massively parallel machines. Do your        |
|     own testing! More info at https://www.vasp.at/wiki/index.php/NCORE      |
|     Unfortunately you need to use the default for GW and RPA                |
|     calculations (for HF NCORE is supported but not extensively tested      |
|     yet).                                                                   |
|                                                                             |
 -----------------------------------------------------------------------------

 POTCAR:    PAW_PBE C_h 06Feb2004                 
   VRHFIN =C: s2p2                                                                                  
   LEXCH  = PE                                                                                      
   EATOM  =   147.1560 eV,   10.8157 Ry                                                             
                                                                                                    
   TITEL  = PAW_PBE C_h 06Feb2004                                                                   
   LULTRA =        F    use ultrasoft PP ?                                                          
   IUNSCR =        1    unscreen: 0-lin 1-nonlin 2-no                                               
   RPACOR =    0.800    partial core radius                                                         
   POMASS =   12.011; ZVAL   =    4.000    mass and valenz                                          
   RCORE  =    1.100    outmost cutoff radius                                                       
   RWIGS  =    1.630; RWIGS  =    0.863    wigner-seitz radius (au A)                               
   ENMAX  =  700.000; ENMIN  =  500.000 eV                                                          
   ICORE  =        2    local potential                                                             
   LCOR   =        T    correct aug charges                                                         
   LPAW   =        T    paw PP                                                                      
   EAUG   =  946.768                                                                                
   DEXC   =    0.000                                                                                
   RMAX   =    1.128    core radius for proj-oper                                                   
   RAUG   =    1.300    factor for augmentation sphere                                              
   RDEP   =    1.162    radius for radial grids                                                     
   RDEPT  =    1.088    core radius for aug-charge                                                  
                                                                                                    
   Atomic configuration                                                                             
    4 entries                                                                                       
     n  l   j            E        occ.                                                              
     1  0  0.50      -273.3789   2.0000                                                             
     2  0  0.50       -13.7508   2.0000                                                             
     2  1  0.50        -5.2854   2.0000                                                             
     3  2  1.50        -5.4423   0.0000                                                             
   Description                                                                                      
     l       E           TYP  RCUT    TYP  RCUT                                                     
     0    -13.7508458     23  1.100                                                                 
     0     -8.2022199     23  1.100                                                                 
     1     -5.2854383     23  1.100                                                                 
     1      1.1560700     23  1.100                                                                 
     2     -5.4423304      7  1.100                                                                 
  local pseudopotential read in
  partial core-charges read in
  partial kinetic energy density read in
  atomic valenz-charges read in
  non local Contribution for L=           0  read in
    real space projection operators read in
  non local Contribution for L=           0  read in
    real space projection operators read in
  non local Contribution for L=           1  read in
    real space projection operators read in
  non local Contribution for L=           1  read in
    real space projection operators read in
    PAW grid and wavefunctions read in
 
   number of l-projection  operators is LMAX  =           4
   number of lm-projection operators is LMMAX =           8
 
 POTCAR:    PAW_PBE O_h 06Feb2004                 
   VRHFIN =O: s2p4                                                                                  
   LEXCH  = PE                                                                                      
   EATOM  =   432.3788 eV,   31.7789 Ry                                                             
                                                                                                    
   TITEL  = PAW_PBE O_h 06Feb2004                                                                   
   LULTRA =        F    use ultrasoft PP ?                                                          
   IUNSCR =        1    unscreen: 0-lin 1-nonlin 2-no                                               
   RPACOR =    0.800    partial core radius                                                         
   POMASS =   16.000; ZVAL   =    6.000    mass and valenz                                          
   RCORE  =    1.100    outmost cutoff radius                                                       
   RWIGS  =    1.400; RWIGS  =    0.741    wigner-seitz radius (au A)                               
   ENMAX  =  700.000; ENMIN  =  500.000 eV                                                          
   ICORE  =        2    local potential                                                             
   LCOR   =        T    correct aug charges                                                         
   LPAW   =        T    paw PP                                                                      
   EAUG   =  888.804                                                                                
   DEXC   =    0.000                                                                                
   RMAX   =    1.128    core radius for proj-oper                                                   
   RAUG   =    1.300    factor for augmentation sphere                                              
   RDEP   =    1.125    radius for radial grids                                                     
   RDEPT  =    1.088    core radius for aug-charge                                                  
                                                                                                    
   Atomic configuration                                                                             
    4 entries                                                                                       
     n  l   j            E        occ.                                                              
     1  0  0.50      -514.6923   2.0000                                                             
     2  0  0.50       -23.9615   2.0000                                                             
     2  1  0.50        -9.0305   4.0000                                                             
     3  2  1.50        -9.5241   0.0000                                                             
   Description                                                                                      
     l       E           TYP  RCUT    TYP  RCUT                                                     
     0    -23.9615319     23  1.100                                                                 
     0    -25.3221145     23  1.100                                                                 
     1     -9.0304911     23  1.100                                                                 
     1     -5.4802209     23  1.100                                                                 
     2     -9.5240782      7  1.100                                                                 
  local pseudopotential read in
  partial core-charges read in
  partial kinetic energy density read in
  atomic valenz-charges read in
  non local Contribution for L=           0  read in
    real space projection operators read in
  non local Contribution for L=           0  read in
    real space projection operators read in
  non local Contribution for L=           1  read in
    real space projection operators read in
  non local Contribution for L=           1  read in
    real space projection operators read in
    PAW grid and wavefunctions read in
 
   number of l-projection  operators is LMAX  =           4
   number of lm-projection operators is LMMAX =           8
 
 -----------------------------------------------------------------------------
|                                                                             |
|               ----> ADVICE to this user running VASP <----                  |
|                                                                             |
|     You have a (more or less) 'large supercell' and for larger cells it     |
|     might be more efficient to use real-space projection operators.         |
|     Therefore, try LREAL= Auto in the INCAR file.                           |
|     Mind: For very accurate calculation, you might also keep the            |
|     reciprocal projection scheme (i.e. LREAL=.FALSE.).                      |
|                                                                             |
 -----------------------------------------------------------------------------

  PAW_PBE C_h 06Feb2004                 :
 energy of atom  1       EATOM= -147.1560
 kinetic energy error for atom=    0.0031 (will be added to EATOM!!)
  PAW_PBE O_h 06Feb2004                 :
 energy of atom  2       EATOM= -432.3788
 kinetic energy error for atom=    0.0171 (will be added to EATOM!!)
 
 
 POSCAR:  C  O
  positions in cartesian coordinates
  No initial velocities read in
 exchange correlation table for  LEXCH =        8
   RHO(1)=    0.500       N(1)  =     2000
   RHO(2)=  100.500       N(2)  =     4000
 


--------------------------------------------------------------------------------------------------------


 ion  position               nearest neighbor table
   1  0.972  0.000  0.001-  50 1.42   2 1.42  42 1.42
   2  0.039  0.134  0.000-   5 1.42   7 1.42   1 1.42
   3  0.172  0.000  0.000-  42 1.42  44 1.42   4 1.42
   4  0.239  0.134  0.000-   7 1.42   3 1.42  23 1.42
   5  0.972  0.200  0.000-   6 1.42   2 1.42  34 1.42
   6  0.039  0.334  0.000-   5 1.42  21 1.42  11 1.42
   7  0.172  0.200  0.000-   8 1.42   2 1.42   4 1.42
   8  0.239  0.334  0.000-  13 1.42   7 1.42  21 1.42
   9  0.372  0.000  0.000-  10 1.42  44 1.42  46 1.42
  10  0.439  0.134  0.000-  27 1.42   9 1.42  23 1.42
  11  0.972  0.400  0.001-  12 1.42  36 1.42   6 1.42
  12  0.039  0.534  0.001-  25 1.42  11 1.42  17 1.42
  13  0.372  0.400  0.000-   8 1.42  14 1.42  24 1.42
  14  0.439  0.534  0.000-  13 1.42  29 1.42  19 1.42
  15  0.572  0.000  0.001-  46 1.42  16 1.42  48 1.42
  16  0.639  0.134  0.001-  15 1.42  35 1.42  27 1.42
  17  0.972  0.600  0.001-  38 1.42  18 1.42  12 1.42
  18  0.039  0.734  0.001-  43 1.42  41 1.42  17 1.42
  19  0.572  0.600  0.000-  14 1.42  20 1.42  32 1.42
  20  0.639  0.734  0.001-  49 1.42  19 1.42  47 1.42
  21  0.172  0.400  0.000-  22 1.42   8 1.42   6 1.42
  22  0.239  0.534  0.000-  21 1.42  29 1.42  25 1.42
  23  0.372  0.200  0.000-  10 1.42   4 1.42  24 1.42
  24  0.439  0.334  0.000-  13 1.42  31 1.42  23 1.42
  25  0.172  0.600  0.001-  26 1.42  12 1.42  22 1.42
  26  0.239  0.734  0.001-  25 1.42  45 1.42  43 1.42
  27  0.572  0.200  0.000-  10 1.42  28 1.42  16 1.42
  28  0.639  0.334  0.000-  27 1.42  37 1.42  31 1.42
  29  0.372  0.600  0.000-  22 1.42  14 1.42  30 1.42
  30  0.439  0.734  0.000-  47 1.42  29 1.42  45 1.42
  31  0.572  0.400  0.000-  32 1.42  28 1.42  24 1.42
  32  0.639  0.534  0.000-  31 1.42  39 1.42  19 1.42
  33  0.772  0.000  0.001-  34 1.42  48 1.42  50 1.42
  34  0.839  0.134  0.001-  33 1.42   5 1.42  35 1.42
  35  0.772  0.200  0.001-  36 1.42  16 1.42  34 1.42
  36  0.839  0.334  0.001-  35 1.42  11 1.42  37 1.42
  37  0.772  0.400  0.001-  28 1.42  38 1.42  36 1.42
  38  0.839  0.534  0.001-  17 1.42  37 1.42  39 1.42
  39  0.772  0.600  0.001-  40 1.42  38 1.42  32 1.42
  40  0.839  0.734  0.001-  39 1.42  49 1.42  41 1.42
  41  0.972  0.800  0.001-  18 1.42  42 1.42  40 1.42
  42  0.039  0.934  0.001-   3 1.42  41 1.42   1 1.42
  43  0.172  0.800  0.001-  18 1.42  44 1.42  26 1.42
  44  0.239  0.934  0.001-   9 1.42  43 1.42   3 1.42
  45  0.372  0.800  0.001-  26 1.42  46 1.42  30 1.42
  46  0.439  0.934  0.001-  15 1.42  45 1.42   9 1.42
  47  0.572  0.800  0.001-  30 1.42  48 1.42  20 1.42
  48  0.639  0.934  0.001-  47 1.42  33 1.42  15 1.42
  49  0.772  0.800  0.001-  50 1.42  20 1.42  40 1.42
  50  0.839  0.934  0.001-  49 1.42   1 1.42  33 1.42
  51  0.373  0.251  0.119-  52 1.18  53 1.18
  52  0.421  0.189  0.121-  51 1.18
  53  0.325  0.313  0.117-  51 1.18
 
  LATTYP: Found a hexagonal cell.
 ALAT       =    12.3250000000
 C/A-ratio  =     2.0283975659
  
  Lattice vectors:
  
 A1 = (  12.3250000000,   0.0000000000,   0.0000000000)
 A2 = (  -6.1625000000,  10.6737631016,   0.0000000000)
 A3 = (   0.0000000000,   0.0000000000,  25.0000000000)


Analysis of symmetry for initial positions (statically):
=====================================================================
 Subroutine PRICEL returns:
 Original cell was already a primitive cell.
 

 Routine SETGRP: Setting up the symmetry group for a 
 hexagonal supercell.


 Subroutine GETGRP returns: Found  1 space group operations
 (whereof  1 operations were pure point group operations)
 out of a pool of 24 trial point group operations.


The static configuration has the point symmetry C_1 .


Analysis of symmetry for dynamics (positions and initial velocities):
=====================================================================
 Subroutine PRICEL returns:
 Original cell was already a primitive cell.
 

 Routine SETGRP: Setting up the symmetry group for a 
 hexagonal supercell.


 Subroutine GETGRP returns: Found  1 space group operations
 (whereof  1 operations were pure point group operations)
 out of a pool of 24 trial point group operations.


The dynamic configuration has the point symmetry C_1 .


 Subroutine INISYM returns: Found  1 space group operations
 (whereof  1 operations are pure point group operations),
 and found     1 'primitive' translations


----------------------------------------------------------------------------------------

                                     Primitive cell                                     

  volume of cell :    3288.8533

  direct lattice vectors                    reciprocal lattice vectors
    12.325000000  0.000000000  0.000000000     0.081135903  0.046843835  0.000000000
    -6.162500000 10.673763102  0.000000000     0.000000000  0.093687670  0.000000000
     0.000000000  0.000000000 25.000000000     0.000000000  0.000000000  0.040000000

  length of vectors
    12.325000000 12.325000000 25.000000000     0.093687670  0.093687670  0.040000000

  position of ions in fractional coordinates (direct lattice)
     0.972450841  0.000320818  0.000566711
     0.039118382  0.133659505  0.000440173
     0.172443627  0.000295449  0.000499628
     0.239096278  0.133647917  0.000256468
     0.972452058  0.200322012  0.000485219
     0.039128360  0.333643771  0.000444150
     0.172451764  0.200354552  0.000219167
     0.239124359  0.333665720  0.000072260
     0.372465565  0.000324403  0.000453913
     0.439137473  0.133619939  0.000258338
     0.972449824  0.400309362  0.000547611
     0.039124981  0.533636789  0.000573410
     0.372416176  0.400329481  0.000000000
     0.439099602  0.533638981  0.000232414
     0.572443676  0.000312125  0.000559580
     0.639110207  0.133631751  0.000547275
     0.972452703  0.600305653  0.000640289
     0.039124495  0.733640359  0.000654513
     0.572433471  0.600306242  0.000402895
     0.639111888  0.733641879  0.000527905
     0.172454630  0.400318228  0.000289045
     0.239120185  0.533636548  0.000378509
     0.372459750  0.200295993  0.000088997
     0.439107096  0.333673419  0.000055762
     0.172452155  0.600311506  0.000524340
     0.239123371  0.733638574  0.000575129
     0.572431082  0.200289171  0.000413296
     0.639112773  0.333618630  0.000462376
     0.372439808  0.600308022  0.000362844
     0.439116090  0.733637858  0.000494190
     0.572469358  0.400320504  0.000339918
     0.639119408  0.533650873  0.000459610
     0.772445723  0.000315427  0.000596161
     0.839116277  0.133640203  0.000575306
     0.772440513  0.200307432  0.000581033
     0.839120241  0.333635728  0.000585467
     0.772446320  0.400298367  0.000582978
     0.839118980  0.533633964  0.000621100
     0.772456143  0.600308173  0.000595712
     0.839115033  0.733643180  0.000631512
     0.972455313  0.800305582  0.000652233
     0.039114714  0.933643289  0.000598051
     0.172457971  0.800312211  0.000623372
     0.239134551  0.933647193  0.000544850
     0.372451396  0.800316674  0.000551399
     0.439124489  0.933644769  0.000541430
     0.572441101  0.800310054  0.000534535
     0.639115067  0.933638985  0.000587644
     0.772445098  0.800313187  0.000602062
     0.839116614  0.933644338  0.000606830
     0.373021009  0.251226878  0.118920712
     0.420879805  0.189313152  0.121497586
     0.325156981  0.313167186  0.116542517

  ion indices of the primitive-cell ions
   primitive index   ion index
                 1           1
                 2           2
                 3           3
                 4           4
                 5           5
                 6           6
                 7           7
                 8           8
                 9           9
                10          10
                11          11
                12          12
                13          13
                14          14
                15          15
                16          16
                17          17
                18          18
                19          19
                20          20
                21          21
                22          22
                23          23
                24          24
                25          25
                26          26
                27          27
                28          28
                29          29
                30          30
                31          31
                32          32
                33          33
                34          34
                35          35
                36          36
                37          37
                38          38
                39          39
                40          40
                41          41
                42          42
                43          43
                44          44
                45          45
                46          46
                47          47
                48          48
                49          49
                50          50
                51          51
                52          52
                53          53

----------------------------------------------------------------------------------------

 
 
 KPOINTS: auto                                    

Automatic generation of k-mesh.
 Grid dimensions read from file:
 generate k-points for:    1    1    1

 Generating k-lattice:

  Cartesian coordinates                     Fractional coordinates (reciprocal lattice)
     0.081135903  0.046843835  0.000000000     1.000000000 -0.000000000  0.000000000
     0.000000000  0.093687670  0.000000000     0.000000000  1.000000000  0.000000000
     0.000000000  0.000000000  0.040000000     0.000000000  0.000000000  1.000000000

  Length of vectors
     0.093687670  0.093687670  0.040000000

  Shift w.r.t. Gamma in fractional coordinates (k-lattice)
     0.000000000  0.000000000  0.000000000

 
 Subroutine IBZKPT returns following result:
 ===========================================
 
 Found      1 irreducible k-points:
 
 Following reciprocal coordinates:
            Coordinates               Weight
  0.000000  0.000000  0.000000      1.000000
 
 Following cartesian coordinates:
            Coordinates               Weight
  0.000000  0.000000  0.000000      1.000000
 


--------------------------------------------------------------------------------------------------------




 Dimension of arrays:
   k-points           NKPTS =      1   k-points in BZ     NKDIM =      1   number of bands    NBANDS=    140
   number of dos      NEDOS =    301   number of ions     NIONS =     53
   non local maximal  LDIM  =      4   non local SUM 2l+1 LMDIM =      8
   total plane-waves  NPLWV = ******
   max r-space proj   IRMAX =      1   max aug-charges    IRDMAX=  10008
   dimension x,y,z NGX =   128 NGY =  128 NGZ =  270
   dimension x,y,z NGXF=   256 NGYF=  256 NGZF=  540
   support grid    NGXF=   256 NGYF=  256 NGZF=  540
   ions per type =              51   2
   NGX,Y,Z   is equivalent  to a cutoff of  17.27, 17.27, 17.95 a.u.
   NGXF,Y,Z  is equivalent  to a cutoff of  34.53, 34.53, 35.91 a.u.

 SYSTEM =  unknown system                          
 POSCAR =   C  O                                   

 Startparameter for this run:
   NWRITE =      2    write-flag & timer
   PREC   = accura    normal or accurate (medium, high low for compatibility)
   ISTART =      0    job   : 0-new  1-cont  2-samecut
   ICHARG =      2    charge: 1-file 2-atom 10-const
   ISPIN  =      1    spin polarized calculation?
   LNONCOLLINEAR =      F non collinear calculations
   LSORBIT =      F    spin-orbit coupling
   INIWAV =      1    electr: 0-lowe 1-rand  2-diag
   LASPH  =      F    aspherical Exc in radial PAW
 Electronic Relaxation 1
   ENCUT  = 1000.0 eV  73.50 Ry    8.57 a.u.  31.78 31.78 64.46*2*pi/ulx,y,z
   ENINI  = 1000.0     initial cutoff
   ENAUG  =  946.8 eV  augmentation charge cutoff
   NELM   =     60;   NELMIN=  2; NELMDL= -5     # of ELM steps 
   EDIFF  = 0.1E-05   stopping-criterion for ELM
   LREAL  =      F    real-space projection
   NLSPLINE    = F    spline interpolate recip. space projectors
   LCOMPAT=      F    compatible to vasp.4.4
   GGA_COMPAT  = T    GGA compatible to vasp.4.4-vasp.4.6
   LMAXPAW     = -100 max onsite density
   LMAXMIX     =    2 max onsite mixed and CHGCAR
   VOSKOWN=      0    Vosko Wilk Nusair interpolation
   ROPT   =    0.00000   0.00000
 Ionic relaxation
   EDIFFG = 0.1E-04   stopping-criterion for IOM
   NSW    =      0    number of steps for IOM
   NBLOCK =      1;   KBLOCK =      1    inner block; outer block 
   IBRION =     -1    ionic relax: 0-MD 1-quasi-New 2-CG
   NFREE  =      0    steps in history (QN), initial steepest desc. (CG)
   ISIF   =      0    stress and relaxation
   IWAVPR =     10    prediction:  0-non 1-charg 2-wave 3-comb
   ISYM   =      2    0-nonsym 1-usesym 2-fastsym
   LCORR  =      T    Harris-Foulkes like correction to forces

   POTIM  = 0.5000    time-step for ionic-motion
   TEIN   =    0.0    initial temperature
   TEBEG  =    0.0;   TEEND  =   0.0 temperature during run
   SMASS  =  -3.00    Nose mass-parameter (am)
   estimated Nose-frequenzy (Omega)   =  0.10E-29 period in steps = 0.13E+47 mass=  -0.347E-26a.u.
   SCALEE = 1.0000    scale energy and forces
   NPACO  =    256;   APACO  = 16.0  distance and # of slots for P.C.
   PSTRESS=    0.0 pullay stress

  Mass of Ions in am
   POMASS =  12.01 16.00
  Ionic Valenz
   ZVAL   =   4.00  6.00
  Atomic Wigner-Seitz radii
   RWIGS  =  -1.00 -1.00
  virtual crystal weights 
   VCA    =   1.00  1.00
   NELECT =     216.0000    total number of electrons
   NUPDOWN=      -1.0000    fix difference up-down

 DOS related values:
   EMIN   =  10.00;   EMAX   =-10.00  energy-range for DOS
   EFERMI =   0.00
   ISMEAR =     0;   SIGMA  =   0.01  broadening in eV -4-tet -1-fermi 0-gaus

 Electronic relaxation 2 (details)
   IALGO  =     58    algorithm
   LDIAG  =      T    sub-space diagonalisation (order eigenvalues)
   LSUBROT=      F    optimize rotation matrix (better conditioning)
   TURBO    =      0    0=normal 1=particle mesh
   IRESTART =      0    0=no restart 2=restart with 2 vectors
   NREBOOT  =      0    no. of reboots
   NMIN     =      0    reboot dimension
   EREF     =   0.00    reference energy to select bands
   IMIX   =      4    mixing-type and parameters
     AMIX     =   0.40;   BMIX     =  1.00
     AMIX_MAG =   1.60;   BMIX_MAG =  1.00
     AMIN     =   0.10
     WC   =   100.;   INIMIX=   1;  MIXPRE=   1;  MAXMIX= -45

 Intra band minimization:
   WEIMIN = 0.0000     energy-eigenvalue tresh-hold
   EBREAK =  0.18E-08  absolut break condition
   DEPER  =   0.30     relativ break condition  

   TIME   =   0.40     timestep for ELM

  volume/ion in A,a.u.               =      62.05       418.76
  Fermi-wavevector in a.u.,A,eV,Ry     =   0.660508  1.248179  5.935820  0.436270
  Thomas-Fermi vector in A             =   1.732977
 
 Write flags
   LWAVE        =      F    write WAVECAR
   LDOWNSAMPLE  =      F    k-point downsampling of WAVECAR
   LCHARG       =      T    write CHGCAR
   LVTOT        =      F    write LOCPOT, total local potential
   LVHAR        =      F    write LOCPOT, Hartree potential only
   LELF         =      F    write electronic localiz. function (ELF)
   LORBIT       =      0    0 simple, 1 ext, 2 COOP (PROOUT), +10 PAW based schemes


 Dipole corrections
   LMONO  =      F    monopole corrections only (constant potential shift)
   LDIPOL =      F    correct potential (dipole corrections)
   IDIPOL =      0    1-x, 2-y, 3-z, 4-all directions 
   EPSILON=  1.0000000 bulk dielectric constant

 Exchange correlation treatment:
   GGA     =    --    GGA type
   LEXCH   =     8    internal setting for exchange type
   VOSKOWN=      0    Vosko Wilk Nusair interpolation
   LHFCALC =     F    Hartree Fock is set to
   LHFONE  =     F    Hartree Fock one center treatment
   AEXX    =    0.0000 exact exchange contribution

 Linear response parameters
   LEPSILON=     F    determine dielectric tensor
   LRPA    =     F    only Hartree local field effects (RPA)
   LNABLA  =     F    use nabla operator in PAW spheres
   LVEL    =     F    velocity operator in full k-point grid
   LINTERFAST=   F  fast interpolation
   KINTER  =     0    interpolate to denser k-point grid
   CSHIFT  =0.1000    complex shift for real part using Kramers Kronig
   OMEGAMAX=  -1.0    maximum frequency
   DEG_THRESHOLD= 0.2000000E-02 threshold for treating states as degnerate
   RTIME   =   -0.100 relaxation time in fs
  (WPLASMAI=    0.000 imaginary part of plasma frequency in eV, 0.658/RTIME)
   DFIELD  = 0.0000000 0.0000000 0.0000000 field for delta impulse in time
 
 Orbital magnetization related:
   ORBITALMAG=     F  switch on orbital magnetization
   LCHIMAG   =     F  perturbation theory with respect to B field
   DQ        =  0.001000  dq finite difference perturbation B field
   LLRAUG    =     F  two centre corrections for induced B field



--------------------------------------------------------------------------------------------------------


 Static calculation
 charge density and potential will be updated during run
 non-spin polarized calculation
 Conjugate gradient for all bands (Freysoldt, et al. PRB 79, 241103 (2009))
 preconditioned conjugated gradient                                        
 perform sub-space diagonalisation
    before iterative eigenvector-optimisation
 modified Broyden-mixing scheme, WC =      100.0
 initial mixing is a Kerker type mixing with AMIX =  0.4000 and BMIX =      1.0000
 Hartree-type preconditioning will be used
 using additional bands           32
 reciprocal scheme for non local part
 use partial core corrections
 no Harris-corrections to forces 
 use gradient corrections 
 use of overlap-Matrix (Vanderbilt PP)
 Gauss-broadening in eV      SIGMA  =   0.01


--------------------------------------------------------------------------------------------------------


  energy-cutoff  :     1000.00
  volume of cell :     3288.85
      direct lattice vectors                 reciprocal lattice vectors
    12.325000000  0.000000000  0.000000000     0.081135903  0.046843835  0.000000000
    -6.162500000 10.673763102  0.000000000     0.000000000  0.093687670  0.000000000
     0.000000000  0.000000000 25.000000000     0.000000000  0.000000000  0.040000000

  length of vectors
    12.325000000 12.325000000 25.000000000     0.093687670  0.093687670  0.040000000


 
 k-points in units of 2pi/SCALE and weight: auto                                    
   0.00000000  0.00000000  0.00000000       1.000
 
 k-points in reciprocal lattice and weights: auto                                    
   0.00000000  0.00000000  0.00000000       1.000
 
 position of ions in fractional coordinates (direct lattice) 
   0.97245084  0.00032082  0.00056671
   0.03911838  0.13365950  0.00044017
   0.17244363  0.00029545  0.00049963
   0.23909628  0.13364792  0.00025647
   0.97245206  0.20032201  0.00048522
   0.03912836  0.33364377  0.00044415
   0.17245176  0.20035455  0.00021917
   0.23912436  0.33366572  0.00007226
   0.37246557  0.00032440  0.00045391
   0.43913747  0.13361994  0.00025834
   0.97244982  0.40030936  0.00054761
   0.03912498  0.53363679  0.00057341
   0.37241618  0.40032948  0.00000000
   0.43909960  0.53363898  0.00023241
   0.57244368  0.00031213  0.00055958
   0.63911021  0.13363175  0.00054727
   0.97245270  0.60030565  0.00064029
   0.03912449  0.73364036  0.00065451
   0.57243347  0.60030624  0.00040289
   0.63911189  0.73364188  0.00052791
   0.17245463  0.40031823  0.00028904
   0.23912018  0.53363655  0.00037851
   0.37245975  0.20029599  0.00008900
   0.43910710  0.33367342  0.00005576
   0.17245216  0.60031151  0.00052434
   0.23912337  0.73363857  0.00057513
   0.57243108  0.20028917  0.00041330
   0.63911277  0.33361863  0.00046238
   0.37243981  0.60030802  0.00036284
   0.43911609  0.73363786  0.00049419
   0.57246936  0.40032050  0.00033992
   0.63911941  0.53365087  0.00045961
   0.77244572  0.00031543  0.00059616
   0.83911628  0.13364020  0.00057531
   0.77244051  0.20030743  0.00058103
   0.83912024  0.33363573  0.00058547
   0.77244632  0.40029837  0.00058298
   0.83911898  0.53363396  0.00062110
   0.77245614  0.60030817  0.00059571
   0.83911503  0.73364318  0.00063151
   0.97245531  0.80030558  0.00065223
   0.03911471  0.93364329  0.00059805
   0.17245797  0.80031221  0.00062337
   0.23913455  0.93364719  0.00054485
   0.37245140  0.80031667  0.00055140
   0.43912449  0.93364477  0.00054143
   0.57244110  0.80031005  0.00053453
   0.63911507  0.93363899  0.00058764
   0.77244510  0.80031319  0.00060206
   0.83911661  0.93364434  0.00060683
   0.37302101  0.25122688  0.11892071
   0.42087980  0.18931315  0.12149759
   0.32515698  0.31316719  0.11654252
 
 position of ions in cartesian coordinates  (Angst):
  11.98347958  0.00342433  0.01416777
  -0.34154264  1.42664989  0.01100432
   2.12354700  0.00315355  0.01249070
   2.12325634  1.42652621  0.00641170
  10.75098721  2.13818970  0.01213047
  -1.57382270  3.56123457  0.01110375
   0.89078307  2.13853702  0.00547917
   0.89099273  3.56146885  0.00180651
   4.58863896  0.00346260  0.01134782
   4.58893648  1.42622757  0.00645846
   9.51853763  4.27280730  0.01369027
  -2.80632132  5.69591267  0.01433526
   2.12299894  4.27302204  0.00000000
   2.12335237  5.69593607  0.00581036
   7.05344483  0.00333155  0.01398950
   7.05352764  1.42635365  0.01368187
   8.28609598  6.40752033  0.01600723
  -4.03884931  7.83070339  0.01636283
   3.35585531  6.40752662  0.01007237
   3.35598594  7.83071962  0.01319763
  -0.34145776  4.27290193  0.00722612
  -0.34137895  5.69591010  0.00946273
   3.35624236  2.13791198  0.00222492
   3.35573251  3.56155103  0.00139405
  -1.57394684  6.40758280  0.01310850
  -1.57385216  7.83068434  0.01437823
   5.82093107  2.13783916  0.01033241
   5.82114012  3.56096622  0.01155939
   0.89092245  6.40754561  0.00907111
   0.89106251  7.83067670  0.01235474
   4.58870974  4.27292622  0.00849795
   4.58852320  5.69606300  0.01149026
   9.51844972  0.00336679  0.01490402
   9.51855036  1.42644387  0.01438264
   8.28593477  2.13803408  0.01452582
   8.28612680  3.56114872  0.01463668
   7.05356221  4.27268994  0.01457444
   7.05362213  5.69588251  0.01552751
   5.82112285  6.40754723  0.01489279
   5.82101669  7.83073350  0.01578780
   7.05362858  8.54227219  0.01630582
  -5.27148792  9.96548729  0.01495127
  -2.80637951  8.54234295  0.01558431
  -2.80626749  9.96552896  0.01362126
  -0.34148805  8.54239058  0.01378498
  -0.34137657  9.96550309  0.01353576
   2.12342586  8.54231992  0.01336337
   2.12354296  9.96544135  0.01469111
   4.58845581  8.54235337  0.01505154
   4.58852904  9.96549848  0.01517076
   3.04929830  2.68153618  2.97301779
   4.02070129  2.02068374  3.03743965
   2.07766701  3.34267235  2.91356292
 


--------------------------------------------------------------------------------------------------------


 k-point   1 :   0.0000 0.0000 0.0000  plane waves:  236157

 maximum and minimum number of plane-waves per node :     59046    59034

 maximum number of plane-waves:    236157
 maximum index in each direction: 
   IXMAX=   31   IYMAX=   31   IZMAX=   64
   IXMIN=  -31   IYMIN=  -31   IZMIN=  -64


 parallel 3D FFT for wavefunctions:
    minimum data exchange during FFTs selected (reduces bandwidth)
 parallel 3D FFT for charge:
    minimum data exchange during FFTs selected (reduces bandwidth)


 total amount of memory used by VASP MPI-rank0   215378. kBytes
=======================================================================

   base      :      30000. kBytes
   nonl-proj :      57634. kBytes
   fftplans  :      45914. kBytes
   grid      :      67588. kBytes
   one-center:         43. kBytes
   wavefun   :      14199. kBytes
 
     INWAV:  cpu time    0.0000: real time    0.0000
 Broyden mixing: mesh for mixing (old mesh)
   NGX = 63   NGY = 63   NGZ =129
  (NGX  =256   NGY  =256   NGZ  =540)
  gives a total of 512001 points

 initial charge density was supplied:
 charge density of overlapping atoms calculated
 number of electron     216.0000000 magnetization 
 keeping initial charge density in first step


--------------------------------------------------------------------------------------------------------


 Maximum index for augmentation-charges          471 (set IRDMAX)


--------------------------------------------------------------------------------------------------------


 First call to EWALD:  gamma=   0.119
 Maximum number of real-space cells 4x 4x 2
 Maximum number of reciprocal cells 2x 2x 4

    FEWALD:  cpu time    0.0025: real time    0.0026


--------------------------------------- Iteration      1(   1)  ---------------------------------------


    POTLOK:  cpu time    0.3945: real time    0.3988
    SETDIJ:  cpu time    0.0049: real time    0.0052
    TRIAL :  cpu time    5.5611: real time    5.6287
    CORREC:  cpu time    0.0005: real time    0.0005
    --------------------------------------------
      LOOP:  cpu time    5.9686: real time    6.0420

 eigenvalue-minimisations  :   280
 total energy-change (2. order) : 0.2784347E+04  (-0.1023579E+05)
 number of electron     216.0000000 magnetization 
 augmentation part      216.0000000 magnetization 

 Free energy of the ion-electron system (eV)
  ---------------------------------------------------
  alpha Z        PSCENC =        47.94900195
  Ewald energy   TEWEN  =     47831.94723089
  -Hartree energ DENC   =    -53900.18129770
  -exchange      EXHF   =         0.00000000
  -V(xc)+E(xc)   XCENC  =       421.14042623
  PAW double counting   =      6525.96553977    -6260.36035765
  entropy T*S    EENTRO =        -0.00000002
  eigenvalues    EBANDS =      -251.63671057
  atomic energy  EATOM  =      8369.52358910
  ---------------------------------------------------
  free energy    TOTEN  =      2784.34742201 eV

  energy without entropy =     2784.34742203  energy(sigma->0) =     2784.34742202


--------------------------------------------------------------------------------------------------------




--------------------------------------- Iteration      1(   2)  ---------------------------------------


    TRIAL :  cpu time    8.0675: real time    8.1448
    CORREC:  cpu time    0.0001: real time    0.0001
    --------------------------------------------
      LOOP:  cpu time    8.1293: real time    8.2114

 eigenvalue-minimisations  :   448
 total energy-change (2. order) :-0.2451516E+04  (-0.2291003E+04)
 number of electron     216.0000000 magnetization 
 augmentation part      216.0000000 magnetization 

 Free energy of the ion-electron system (eV)
  ---------------------------------------------------
  alpha Z        PSCENC =        47.94900195
  Ewald energy   TEWEN  =     47831.94723089
  -Hartree energ DENC   =    -53900.18129770
  -exchange      EXHF   =         0.00000000
  -V(xc)+E(xc)   XCENC  =       421.14042623
  PAW double counting   =      6525.96553977    -6260.36035765
  entropy T*S    EENTRO =        -0.00000000
  eigenvalues    EBANDS =     -2703.15289810
  atomic energy  EATOM  =      8369.52358910
  ---------------------------------------------------
  free energy    TOTEN  =       332.83123450 eV

  energy without entropy =      332.83123450  energy(sigma->0) =      332.83123450


--------------------------------------------------------------------------------------------------------




--------------------------------------- Iteration      1(   3)  ---------------------------------------


    TRIAL :  cpu time    7.6438: real time    7.7156
    CORREC:  cpu time    0.0001: real time    0.0001
    --------------------------------------------
      LOOP:  cpu time    7.6829: real time    7.7552

 eigenvalue-minimisations  :   420
 total energy-change (2. order) :-0.8003056E+03  (-0.7935806E+03)
 number of electron     216.0000000 magnetization 
 augmentation part      216.0000000 magnetization 

 Free energy of the ion-electron system (eV)
  ---------------------------------------------------
  alpha Z        PSCENC =        47.94900195
  Ewald energy   TEWEN  =     47831.94723089
  -Hartree energ DENC   =    -53900.18129770
  -exchange      EXHF   =         0.00000000
  -V(xc)+E(xc)   XCENC  =       421.14042623
  PAW double counting   =      6525.96553977    -6260.36035765
  entropy T*S    EENTRO =        -0.00000000
  eigenvalues    EBANDS =     -3503.45848256
  atomic energy  EATOM  =      8369.52358910
  ---------------------------------------------------
  free energy    TOTEN  =      -467.47434996 eV

  energy without entropy =     -467.47434996  energy(sigma->0) =     -467.47434996


--------------------------------------------------------------------------------------------------------




--------------------------------------- Iteration      1(   4)  ---------------------------------------


    TRIAL :  cpu time    6.3548: real time    6.4382
    CORREC:  cpu time    0.0001: real time    0.0001
    --------------------------------------------
      LOOP:  cpu time    6.3908: real time    6.4764

 eigenvalue-minimisations  :   336
 total energy-change (2. order) :-0.4880370E+02  (-0.4858356E+02)
 number of electron     216.0000000 magnetization 
 augmentation part      216.0000000 magnetization 

 Free energy of the ion-electron system (eV)
  ---------------------------------------------------
  alpha Z        PSCENC =        47.94900195
  Ewald energy   TEWEN  =     47831.94723089
  -Hartree energ DENC   =    -53900.18129770
  -exchange      EXHF   =         0.00000000
  -V(xc)+E(xc)   XCENC  =       421.14042623
  PAW double counting   =      6525.96553977    -6260.36035765
  entropy T*S    EENTRO =        -0.00000000
  eigenvalues    EBANDS =     -3552.26217935
  atomic energy  EATOM  =      8369.52358910
  ---------------------------------------------------
  free energy    TOTEN  =      -516.27804674 eV

  energy without entropy =     -516.27804674  energy(sigma->0) =     -516.27804674


--------------------------------------------------------------------------------------------------------




--------------------------------------- Iteration      1(   5)  ---------------------------------------


    TRIAL :  cpu time    7.6397: real time    7.7076
    CORREC:  cpu time    0.0001: real time    0.0001
    CHARGE:  cpu time    0.3109: real time    0.3137
    --------------------------------------------
      LOOP:  cpu time    7.9873: real time    8.0612

 eigenvalue-minimisations  :   420
 total energy-change (2. order) :-0.1501808E+01  (-0.1498896E+01)
 number of electron     216.0000000 magnetization 
 augmentation part       -0.2680606 magnetization 

 Free energy of the ion-electron system (eV)
  ---------------------------------------------------
  alpha Z        PSCENC =        47.94900195
  Ewald energy   TEWEN  =     47831.94723089
  -Hartree energ DENC   =    -53900.18129770
  -exchange      EXHF   =         0.00000000
  -V(xc)+E(xc)   XCENC  =       421.14042623
  PAW double counting   =      6525.96553977    -6260.36035765
  entropy T*S    EENTRO =        -0.00000000
  eigenvalues    EBANDS =     -3553.76398702
  atomic energy  EATOM  =      8369.52358910
  ---------------------------------------------------
  free energy    TOTEN  =      -517.77985442 eV

  energy without entropy =     -517.77985442  energy(sigma->0) =     -517.77985442


--------------------------------------------------------------------------------------------------------




--------------------------------------- Iteration      1(   6)  ---------------------------------------


    POTLOK:  cpu time    0.3808: real time    0.3837
    SETDIJ:  cpu time    0.0029: real time    0.0029
    TRIAL :  cpu time    2.6704: real time    2.6985
    CORREC:  cpu time    1.0768: real time    1.0853
    CHARGE:  cpu time    0.3126: real time    0.3149
    --------------------------------------------
      LOOP:  cpu time    4.5041: real time    4.5477

 eigenvalue-minimisations  :     0
 total energy-change (2. order) : 0.5108510E+02  (-0.1552267E+02)
 number of electron     216.0000000 magnetization 
 augmentation part       -0.3657511 magnetization 

 Free energy of the ion-electron system (eV)
  ---------------------------------------------------
  alpha Z        PSCENC =        47.94900195
  Ewald energy   TEWEN  =     47831.94723089
  -Hartree energ DENC   =    -55342.60108439
  -exchange      EXHF   =         0.00000000
  -V(xc)+E(xc)   XCENC  =       469.01054303
  PAW double counting   =     89602.62081542   -89345.28738863
  entropy T*S    EENTRO =        -0.00000000
  eigenvalues    EBANDS =     -2099.85746327
  atomic energy  EATOM  =      8369.52358910
  ---------------------------------------------------
  free energy    TOTEN  =      -466.69475589 eV

  energy without entropy =     -466.69475589  energy(sigma->0) =     -466.69475589


--------------------------------------------------------------------------------------------------------




--------------------------------------- Iteration      1(   7)  ---------------------------------------


    POTLOK:  cpu time    0.3867: real time    0.3892
    SETDIJ:  cpu time    0.0030: real time    0.0031
    TRIAL :  cpu time    2.6767: real time    2.7013
    CORREC:  cpu time    1.0813: real time    1.0903
    CHARGE:  cpu time    0.3126: real time    0.3149
    --------------------------------------------
      LOOP:  cpu time    4.5068: real time    4.5494

 eigenvalue-minimisations  :     0
 total energy-change (2. order) :-0.1555493E+02  (-0.1741029E+01)
 number of electron     216.0000000 magnetization 
 augmentation part       -0.4133355 magnetization 

 Free energy of the ion-electron system (eV)
  ---------------------------------------------------
  alpha Z        PSCENC =        47.94900195
  Ewald energy   TEWEN  =     47831.94723089
  -Hartree energ DENC   =    -54825.84349397
  -exchange      EXHF   =         0.00000000
  -V(xc)+E(xc)   XCENC  =       452.08530549
  PAW double counting   =    105913.73833344  -105653.57147871
  entropy T*S    EENTRO =        -0.00000000
  eigenvalues    EBANDS =     -2618.07817659
  atomic energy  EATOM  =      8369.52358910
  ---------------------------------------------------
  free energy    TOTEN  =      -482.24968839 eV

  energy without entropy =     -482.24968839  energy(sigma->0) =     -482.24968839


--------------------------------------------------------------------------------------------------------




--------------------------------------- Iteration      1(   8)  ---------------------------------------


    POTLOK:  cpu time    0.3851: real time    0.3877
    SETDIJ:  cpu time    0.0030: real time    0.0030
    TRIAL :  cpu time    2.6740: real time    2.6981
    CORREC:  cpu time    1.0863: real time    1.1016
    CHARGE:  cpu time    0.3123: real time    0.3145
    --------------------------------------------
      LOOP:  cpu time    4.5732: real time    4.6187

 eigenvalue-minimisations  :     0
 total energy-change (2. order) :-0.1740972E+01  (-0.4493110E+00)
 number of electron     216.0000000 magnetization 
 augmentation part       -0.4294601 magnetization 

 Free energy of the ion-electron system (eV)
  ---------------------------------------------------
  alpha Z        PSCENC =        47.94900195
  Ewald energy   TEWEN  =     47831.94723089
  -Hartree energ DENC   =    -54804.57111365
  -exchange      EXHF   =         0.00000000
  -V(xc)+E(xc)   XCENC  =       451.54398467
  PAW double counting   =    110310.34433915  -110049.77480812
  entropy T*S    EENTRO =        -0.00000000
  eigenvalues    EBANDS =     -2640.95288425
  atomic energy  EATOM  =      8369.52358910
  ---------------------------------------------------
  free energy    TOTEN  =      -483.99066026 eV

  energy without entropy =     -483.99066026  energy(sigma->0) =     -483.99066026


--------------------------------------------------------------------------------------------------------




--------------------------------------- Iteration      1(   9)  ---------------------------------------


    POTLOK:  cpu time    0.3846: real time    0.3873
    SETDIJ:  cpu time    0.0029: real time    0.0029
    TRIAL :  cpu time    2.6688: real time    2.6988
    CORREC:  cpu time    1.0802: real time    1.0887
    CHARGE:  cpu time    0.3125: real time    0.3148
    --------------------------------------------
      LOOP:  cpu time    4.4876: real time    4.5344

 eigenvalue-minimisations  :     0
 total energy-change (2. order) :-0.4491991E+00  (-0.1438331E+00)
 number of electron     216.0000000 magnetization 
 augmentation part       -0.4365345 magnetization 

 Free energy of the ion-electron system (eV)
  ---------------------------------------------------
  alpha Z        PSCENC =        47.94900195
  Ewald energy   TEWEN  =     47831.94723089
  -Hartree energ DENC   =    -54819.33101842
  -exchange      EXHF   =         0.00000000
  -V(xc)+E(xc)   XCENC  =       451.71090096
  PAW double counting   =    113008.55599877  -112747.84016480
  entropy T*S    EENTRO =        -0.00000000
  eigenvalues    EBANDS =     -2626.95539779
  atomic energy  EATOM  =      8369.52358910
  ---------------------------------------------------
  free energy    TOTEN  =      -484.43985933 eV

  energy without entropy =     -484.43985933  energy(sigma->0) =     -484.43985933


--------------------------------------------------------------------------------------------------------




--------------------------------------- Iteration      1(  10)  ---------------------------------------


    POTLOK:  cpu time    0.3835: real time    0.3860
    SETDIJ:  cpu time    0.0031: real time    0.0031
    TRIAL :  cpu time    2.6752: real time    2.6985
    CORREC:  cpu time    1.0847: real time    1.0932
    CHARGE:  cpu time    0.3125: real time    0.3148
    --------------------------------------------
      LOOP:  cpu time    4.5103: real time    4.5489

 eigenvalue-minimisations  :     0
 total energy-change (2. order) :-0.1436739E+00  (-0.5679880E-01)
 number of electron     216.0000000 magnetization 
 augmentation part       -0.4375427 magnetization 

 Free energy of the ion-electron system (eV)
  ---------------------------------------------------
  alpha Z        PSCENC =        47.94900195
  Ewald energy   TEWEN  =     47831.94723089
  -Hartree energ DENC   =    -54820.02964207
  -exchange      EXHF   =         0.00000000
  -V(xc)+E(xc)   XCENC  =       451.65307511
  PAW double counting   =    113446.06739212  -113185.27550497
  entropy T*S    EENTRO =        -0.00000000
  eigenvalues    EBANDS =     -2626.41867533
  atomic energy  EATOM  =      8369.52358910
  ---------------------------------------------------
  free energy    TOTEN  =      -484.58353319 eV

  energy without entropy =     -484.58353319  energy(sigma->0) =     -484.58353319


--------------------------------------------------------------------------------------------------------




--------------------------------------- Iteration      1(  11)  ---------------------------------------


    POTLOK:  cpu time    0.3826: real time    0.3852
    SETDIJ:  cpu time    0.0029: real time    0.0029
    TRIAL :  cpu time    2.6724: real time    2.6963
    CORREC:  cpu time    1.0788: real time    1.0874
    CHARGE:  cpu time    0.3131: real time    0.3155
    --------------------------------------------
      LOOP:  cpu time    4.5248: real time    4.5628

 eigenvalue-minimisations  :     0
 total energy-change (2. order) :-0.5665974E-01  (-0.2265579E-01)
 number of electron     216.0000000 magnetization 
 augmentation part       -0.4371278 magnetization 

 Free energy of the ion-electron system (eV)
  ---------------------------------------------------
  alpha Z        PSCENC =        47.94900195
  Ewald energy   TEWEN  =     47831.94723089
  -Hartree energ DENC   =    -54816.05582504
  -exchange      EXHF   =         0.00000000
  -V(xc)+E(xc)   XCENC  =       451.59208550
  PAW double counting   =    112983.16020421  -112722.36766669
  entropy T*S    EENTRO =        -0.00000000
  eigenvalues    EBANDS =     -2630.38881284
  atomic energy  EATOM  =      8369.52358910
  ---------------------------------------------------
  free energy    TOTEN  =      -484.64019293 eV

  energy without entropy =     -484.64019293  energy(sigma->0) =     -484.64019293


--------------------------------------------------------------------------------------------------------




--------------------------------------- Iteration      1(  12)  ---------------------------------------


    POTLOK:  cpu time    0.3833: real time    0.3857
    SETDIJ:  cpu time    0.0028: real time    0.0028
    TRIAL :  cpu time    2.6722: real time    2.6962
    CORREC:  cpu time    1.0766: real time    1.0852
    CHARGE:  cpu time    0.3128: real time    0.3149
    --------------------------------------------
      LOOP:  cpu time    4.4611: real time    4.5249

 eigenvalue-minimisations  :     0
 total energy-change (2. order) :-0.2257232E-01  (-0.7796611E-02)
 number of electron     216.0000000 magnetization 
 augmentation part       -0.4372346 magnetization 

 Free energy of the ion-electron system (eV)
  ---------------------------------------------------
  alpha Z        PSCENC =        47.94900195
  Ewald energy   TEWEN  =     47831.94723089
  -Hartree energ DENC   =    -54814.14955283
  -exchange      EXHF   =         0.00000000
  -V(xc)+E(xc)   XCENC  =       451.56237087
  PAW double counting   =    112622.84951798  -112362.07888220
  entropy T*S    EENTRO =        -0.00000000
  eigenvalues    EBANDS =     -2632.26604102
  atomic energy  EATOM  =      8369.52358910
  ---------------------------------------------------
  free energy    TOTEN  =      -484.66276524 eV

  energy without entropy =     -484.66276524  energy(sigma->0) =     -484.66276524


--------------------------------------------------------------------------------------------------------




--------------------------------------- Iteration      1(  13)  ---------------------------------------


    POTLOK:  cpu time    0.3806: real time    0.3828
    SETDIJ:  cpu time    0.0030: real time    0.0030
    TRIAL :  cpu time    2.6765: real time    2.6998
    CORREC:  cpu time    1.0776: real time    1.0860
    CHARGE:  cpu time    0.3126: real time    0.3150
    --------------------------------------------
      LOOP:  cpu time    4.5056: real time    4.5453

 eigenvalue-minimisations  :     0
 total energy-change (2. order) :-0.7780966E-02  (-0.2287806E-02)
 number of electron     216.0000000 magnetization 
 augmentation part       -0.4369569 magnetization 

 Free energy of the ion-electron system (eV)
  ---------------------------------------------------
  alpha Z        PSCENC =        47.94900195
  Ewald energy   TEWEN  =     47831.94723089
  -Hartree energ DENC   =    -54813.75469798
  -exchange      EXHF   =         0.00000000
  -V(xc)+E(xc)   XCENC  =       451.54586809
  PAW double counting   =    112523.92229373  -112263.16088336
  entropy T*S    EENTRO =        -0.00000000
  eigenvalues    EBANDS =     -2632.64294864
  atomic energy  EATOM  =      8369.52358910
  ---------------------------------------------------
  free energy    TOTEN  =      -484.67054621 eV

  energy without entropy =     -484.67054621  energy(sigma->0) =     -484.67054621


--------------------------------------------------------------------------------------------------------




--------------------------------------- Iteration      1(  14)  ---------------------------------------


    POTLOK:  cpu time    0.3798: real time    0.3821
    SETDIJ:  cpu time    0.0027: real time    0.0027
    TRIAL :  cpu time    2.6810: real time    2.7045
    CORREC:  cpu time    1.1111: real time    1.1196
    CHARGE:  cpu time    0.3156: real time    0.3247
    --------------------------------------------
      LOOP:  cpu time    4.5175: real time    4.5630

 eigenvalue-minimisations  :     0
 total energy-change (2. order) :-0.2287421E-02  (-0.6415367E-03)
 number of electron     216.0000000 magnetization 
 augmentation part       -0.4367253 magnetization 

 Free energy of the ion-electron system (eV)
  ---------------------------------------------------
  alpha Z        PSCENC =        47.94900195
  Ewald energy   TEWEN  =     47831.94723089
  -Hartree energ DENC   =    -54813.76983062
  -exchange      EXHF   =         0.00000000
  -V(xc)+E(xc)   XCENC  =       451.54513435
  PAW double counting   =    112559.70746505  -112298.94864103
  entropy T*S    EENTRO =        -0.00000000
  eigenvalues    EBANDS =     -2632.62678332
  atomic energy  EATOM  =      8369.52358910
  ---------------------------------------------------
  free energy    TOTEN  =      -484.67283363 eV

  energy without entropy =     -484.67283363  energy(sigma->0) =     -484.67283363


--------------------------------------------------------------------------------------------------------




--------------------------------------- Iteration      1(  15)  ---------------------------------------


    POTLOK:  cpu time    0.4672: real time    0.4700
    SETDIJ:  cpu time    0.0131: real time    0.0132
    TRIAL :  cpu time    2.6741: real time    2.7044
    CORREC:  cpu time    1.0721: real time    1.0805
    CHARGE:  cpu time    0.3137: real time    0.3159
    --------------------------------------------
      LOOP:  cpu time    4.5965: real time    4.6762

 eigenvalue-minimisations  :     0
 total energy-change (2. order) :-0.6429313E-03  (-0.2023299E-03)
 number of electron     216.0000000 magnetization 
 augmentation part       -0.4364787 magnetization 

 Free energy of the ion-electron system (eV)
  ---------------------------------------------------
  alpha Z        PSCENC =        47.94900195
  Ewald energy   TEWEN  =     47831.94723089
  -Hartree energ DENC   =    -54813.48928575
  -exchange      EXHF   =         0.00000000
  -V(xc)+E(xc)   XCENC  =       451.53438777
  PAW double counting   =    112591.42830998  -112330.66806720
  entropy T*S    EENTRO =        -0.00000000
  eigenvalues    EBANDS =     -2632.89864331
  atomic energy  EATOM  =      8369.52358910
  ---------------------------------------------------
  free energy    TOTEN  =      -484.67347656 eV

  energy without entropy =     -484.67347656  energy(sigma->0) =     -484.67347656


--------------------------------------------------------------------------------------------------------




--------------------------------------- Iteration      1(  16)  ---------------------------------------


    POTLOK:  cpu time    0.3752: real time    0.3774
    SETDIJ:  cpu time    0.0030: real time    0.0030
    TRIAL :  cpu time    2.6675: real time    2.6950
    CORREC:  cpu time    1.0578: real time    1.0773
    CHARGE:  cpu time    0.3126: real time    0.3148
    --------------------------------------------
      LOOP:  cpu time    4.4308: real time    4.4838

 eigenvalue-minimisations  :     0
 total energy-change (2. order) :-0.2033410E-03  (-0.7493815E-04)
 number of electron     216.0000000 magnetization 
 augmentation part       -0.4363131 magnetization 

 Free energy of the ion-electron system (eV)
  ---------------------------------------------------
  alpha Z        PSCENC =        47.94900195
  Ewald energy   TEWEN  =     47831.94723089
  -Hartree energ DENC   =    -54813.53408194
  -exchange      EXHF   =         0.00000000
  -V(xc)+E(xc)   XCENC  =       451.53619124
  PAW double counting   =    112575.68179158  -112314.92186446
  entropy T*S    EENTRO =        -0.00000000
  eigenvalues    EBANDS =     -2632.85553825
  atomic energy  EATOM  =      8369.52358910
  ---------------------------------------------------
  free energy    TOTEN  =      -484.67367990 eV

  energy without entropy =     -484.67367990  energy(sigma->0) =     -484.67367990


--------------------------------------------------------------------------------------------------------




--------------------------------------- Iteration      1(  17)  ---------------------------------------


    POTLOK:  cpu time    0.3742: real time    0.3766
    SETDIJ:  cpu time    0.0030: real time    0.0030
    TRIAL :  cpu time    2.6709: real time    2.6946
    CORREC:  cpu time    1.0715: real time    1.0798
    CHARGE:  cpu time    0.3117: real time    0.3142
    --------------------------------------------
      LOOP:  cpu time    4.4925: real time    4.5307

 eigenvalue-minimisations  :     0
 total energy-change (2. order) :-0.7549595E-04  (-0.2883116E-04)
 number of electron     216.0000000 magnetization 
 augmentation part       -0.4363114 magnetization 

 Free energy of the ion-electron system (eV)
  ---------------------------------------------------
  alpha Z        PSCENC =        47.94900195
  Ewald energy   TEWEN  =     47831.94723089
  -Hartree energ DENC   =    -54813.65319046
  -exchange      EXHF   =         0.00000000
  -V(xc)+E(xc)   XCENC  =       451.54001768
  PAW double counting   =    112550.67653836  -112289.91715329
  entropy T*S    EENTRO =        -0.00000000
  eigenvalues    EBANDS =     -2632.73978963
  atomic energy  EATOM  =      8369.52358910
  ---------------------------------------------------
  free energy    TOTEN  =      -484.67375540 eV

  energy without entropy =     -484.67375540  energy(sigma->0) =     -484.67375540


--------------------------------------------------------------------------------------------------------




--------------------------------------- Iteration      1(  18)  ---------------------------------------


    POTLOK:  cpu time    0.3734: real time    0.3761
    SETDIJ:  cpu time    0.0028: real time    0.0028
    TRIAL :  cpu time    2.6661: real time    2.6941
    CORREC:  cpu time    1.0688: real time    1.0787
    CHARGE:  cpu time    0.3118: real time    0.3145
    --------------------------------------------
      LOOP:  cpu time    4.4535: real time    4.4983

 eigenvalue-minimisations  :     0
 total energy-change (2. order) :-0.2906228E-04  (-0.1145691E-04)
 number of electron     216.0000000 magnetization 
 augmentation part       -0.4363446 magnetization 

 Free energy of the ion-electron system (eV)
  ---------------------------------------------------
  alpha Z        PSCENC =        47.94900195
  Ewald energy   TEWEN  =     47831.94723089
  -Hartree energ DENC   =    -54813.63375245
  -exchange      EXHF   =         0.00000000
  -V(xc)+E(xc)   XCENC  =       451.53885542
  PAW double counting   =    112543.29323419  -112282.53339422
  entropy T*S    EENTRO =        -0.00000000
  eigenvalues    EBANDS =     -2632.75854934
  atomic energy  EATOM  =      8369.52358910
  ---------------------------------------------------
  free energy    TOTEN  =      -484.67378446 eV

  energy without entropy =     -484.67378446  energy(sigma->0) =     -484.67378446


--------------------------------------------------------------------------------------------------------




--------------------------------------- Iteration      1(  19)  ---------------------------------------


    POTLOK:  cpu time    0.3757: real time    0.3783
    SETDIJ:  cpu time    0.0030: real time    0.0031
    TRIAL :  cpu time    2.6672: real time    2.6953
    CORREC:  cpu time    1.0692: real time    1.0793
    CHARGE:  cpu time    0.3126: real time    0.3155
    --------------------------------------------
      LOOP:  cpu time    4.4525: real time    4.5020

 eigenvalue-minimisations  :     0
 total energy-change (2. order) :-0.1131192E-04  (-0.4418461E-05)
 number of electron     216.0000000 magnetization 
 augmentation part       -0.4364028 magnetization 

 Free energy of the ion-electron system (eV)
  ---------------------------------------------------
  alpha Z        PSCENC =        47.94900195
  Ewald energy   TEWEN  =     47831.94723089
  -Hartree energ DENC   =    -54813.65833679
  -exchange      EXHF   =         0.00000000
  -V(xc)+E(xc)   XCENC  =       451.54001269
  PAW double counting   =    112547.44192044  -112286.68199891
  entropy T*S    EENTRO =        -0.00000000
  eigenvalues    EBANDS =     -2632.73521514
  atomic energy  EATOM  =      8369.52358910
  ---------------------------------------------------
  free energy    TOTEN  =      -484.67379577 eV

  energy without entropy =     -484.67379577  energy(sigma->0) =     -484.67379577


--------------------------------------------------------------------------------------------------------




--------------------------------------- Iteration      1(  20)  ---------------------------------------


    POTLOK:  cpu time    0.3748: real time    0.3773
    SETDIJ:  cpu time    0.0029: real time    0.0030
    TRIAL :  cpu time    2.6740: real time    2.6975
    CORREC:  cpu time    1.0701: real time    1.0786
    CHARGE:  cpu time    0.3128: real time    0.3151
    --------------------------------------------
      LOOP:  cpu time    4.5076: real time    4.5490

 eigenvalue-minimisations  :     0
 total energy-change (2. order) :-0.4209534E-05  (-0.1578323E-05)
 number of electron     216.0000000 magnetization 
 augmentation part       -0.4364154 magnetization 

 Free energy of the ion-electron system (eV)
  ---------------------------------------------------
  alpha Z        PSCENC =        47.94900195
  Ewald energy   TEWEN  =     47831.94723089
  -Hartree energ DENC   =    -54813.65656824
  -exchange      EXHF   =         0.00000000
  -V(xc)+E(xc)   XCENC  =       451.53954017
  PAW double counting   =    112552.82296333  -112292.06277197
  entropy T*S    EENTRO =        -0.00000000
  eigenvalues    EBANDS =     -2632.73678522
  atomic energy  EATOM  =      8369.52358910
  ---------------------------------------------------
  free energy    TOTEN  =      -484.67379998 eV

  energy without entropy =     -484.67379998  energy(sigma->0) =     -484.67379998


--------------------------------------------------------------------------------------------------------




--------------------------------------- Iteration      1(  21)  ---------------------------------------


    POTLOK:  cpu time    0.3746: real time    0.3769
    SETDIJ:  cpu time    0.0029: real time    0.0029
    TRIAL :  cpu time    2.6695: real time    2.6935
    CORREC:  cpu time    1.0705: real time    1.0790
    CHARGE:  cpu time    0.3172: real time    0.3245
    --------------------------------------------
      LOOP:  cpu time    4.5044: real time    4.5485

 eigenvalue-minimisations  :     0
 total energy-change (2. order) :-0.1480177E-05  (-0.6389954E-06)
 number of electron     216.0000000 magnetization 
 augmentation part       -0.4364187 magnetization 

 Free energy of the ion-electron system (eV)
  ---------------------------------------------------
  alpha Z        PSCENC =        47.94900195
  Ewald energy   TEWEN  =     47831.94723089
  -Hartree energ DENC   =    -54813.66738417
  -exchange      EXHF   =         0.00000000
  -V(xc)+E(xc)   XCENC  =       451.54000842
  PAW double counting   =    112554.44676749  -112293.68665295
  entropy T*S    EENTRO =        -0.00000000
  eigenvalues    EBANDS =     -2632.72636219
  atomic energy  EATOM  =      8369.52358910
  ---------------------------------------------------
  free energy    TOTEN  =      -484.67380146 eV

  energy without entropy =     -484.67380146  energy(sigma->0) =     -484.67380146


--------------------------------------------------------------------------------------------------------




--------------------------------------- Iteration      1(  22)  ---------------------------------------


    POTLOK:  cpu time    0.3773: real time    0.3797
    SETDIJ:  cpu time    0.0029: real time    0.0029
    TRIAL :  cpu time    2.6744: real time    2.6978
    CORREC:  cpu time    1.0699: real time    1.0783
    EDDIAG:  cpu time    0.5967: real time    0.6020
    CHARGE:  cpu time    0.3120: real time    0.3141
    --------------------------------------------
      LOOP:  cpu time    5.0627: real time    5.1053

 eigenvalue-minimisations  :     0
 total energy-change (2. order) :-0.6113551E-06  (-0.2872586E-06)
 number of electron     216.0000000 magnetization 
 augmentation part       -0.4364162 magnetization 

 Free energy of the ion-electron system (eV)
  ---------------------------------------------------
  alpha Z        PSCENC =        47.94900195
  Ewald energy   TEWEN  =     47831.94723089
  -Hartree energ DENC   =    -54813.66301404
  -exchange      EXHF   =         0.00000000
  -V(xc)+E(xc)   XCENC  =       451.53981279
  PAW double counting   =    112553.91247335  -112293.15237636
  entropy T*S    EENTRO =        -0.00000000
  eigenvalues    EBANDS =     -2632.73051976
  atomic energy  EATOM  =      8369.52358910
  ---------------------------------------------------
  free energy    TOTEN  =      -484.67380207 eV

  energy without entropy =     -484.67380207  energy(sigma->0) =     -484.67380207


--------------------------------------------------------------------------------------------------------


  average scaling for gradient   0.9285


 average (electrostatic) potential at core
  the test charge radii are     0.5770  0.5955
  (the norm of the test charge is              1.0000)
       1 -85.6472       2 -85.6411       3 -85.6537       4 -85.6623       5 -85.6382
       6 -85.6344       7 -85.6465       8 -85.6275       9 -85.6363      10 -85.6388
      11 -85.6380      12 -85.6433      13 -85.6368      14 -85.6343      15 -85.6355
      16 -85.6344      17 -85.6412      18 -85.6429      19 -85.6460      20 -85.6412
      21 -85.6284      22 -85.6321      23 -85.6615      24 -85.6583      25 -85.6371
      26 -85.6393      27 -85.6370      28 -85.6501      29 -85.6338      30 -85.6369
      31 -85.6594      32 -85.6488      33 -85.6447      34 -85.6390      35 -85.6367
      36 -85.6400      37 -85.6418      38 -85.6450      39 -85.6450      40 -85.6428
      41 -85.6437      42 -85.6469      43 -85.6404      44 -85.6468      45 -85.6362
      46 -85.6345      47 -85.6421      48 -85.6390      49 -85.6440      50 -85.6421
      51 -89.4965      52-120.2637      53-120.2678
 
 
 
 E-fermi :  -4.2644     XC(G=0):  -1.8652     alpha+bet : -1.6890

 Fermi energy:        -4.2643749819

 k-point     1 :       0.0000    0.0000    0.0000
  band No.  band energies     occupation 
      1     -27.6040      2.00000
      2     -26.5962      2.00000
      3     -22.3928      2.00000
      4     -21.4647      2.00000
      5     -21.4566      2.00000
      6     -21.4500      2.00000
      7     -21.4496      2.00000
      8     -21.4468      2.00000
      9     -21.4442      2.00000
     10     -19.6149      2.00000
     11     -19.6121      2.00000
     12     -19.6063      2.00000
     13     -19.6056      2.00000
     14     -19.6038      2.00000
     15     -19.6035      2.00000
     16     -18.7146      2.00000
     17     -18.7123      2.00000
     18     -18.7098      2.00000
     19     -18.7080      2.00000
     20     -18.7069      2.00000
     21     -18.7064      2.00000
     22     -16.5467      2.00000
     23     -16.5452      2.00000
     24     -16.5419      2.00000
     25     -16.5410      2.00000
     26     -16.5372      2.00000
     27     -16.5366      2.00000
     28     -15.5600      2.00000
     29     -15.5589      2.00000
     30     -15.5549      2.00000
     31     -15.5546      2.00000
     32     -15.5530      2.00000
     33     -15.5525      2.00000
     34     -14.2046      2.00000
     35     -14.2038      2.00000
     36     -14.2028      2.00000
     37     -14.2010      2.00000
     38     -14.2009      2.00000
     39     -14.2006      2.00000
     40     -12.4307      2.00000
     41     -11.8160      2.00000
     42     -11.8153      2.00000
     43     -11.8120      2.00000
     44     -11.8116      2.00000
     45     -11.8115      2.00000
     46     -11.8110      2.00000
     47     -11.7200      2.00000
     48     -11.7187      2.00000
     49     -11.7166      2.00000
     50     -11.7163      2.00000
     51     -11.7130      2.00000
     52     -11.7128      2.00000
     53     -11.2907      2.00000
     54     -11.2443      2.00000
     55     -11.1706      2.00000
     56     -10.4402      2.00000
     57     -10.3396      2.00000
     58     -10.3396      2.00000
     59     -10.3382      2.00000
     60     -10.3380      2.00000
     61     -10.3368      2.00000
     62     -10.3364      2.00000
     63      -9.3693      2.00000
     64      -9.3660      2.00000
     65      -9.3644      2.00000
     66      -9.3608      2.00000
     67      -9.3589      2.00000
     68      -9.3045      2.00000
     69      -9.0632      2.00000
     70      -9.0596      2.00000
     71      -9.0589      2.00000
     72      -9.0574      2.00000
     73      -9.0566      2.00000
     74      -9.0550      2.00000
     75      -9.0125      2.00000
     76      -9.0118      2.00000
     77      -9.0114      2.00000
     78      -9.0087      2.00000
     79      -9.0081      2.00000
     80      -9.0071      2.00000
     81      -7.7189      2.00000
     82      -7.6349      2.00000
     83      -7.4046      2.00000
     84      -7.4036      2.00000
     85      -7.4031      2.00000
     86      -7.4003      2.00000
     87      -7.3983      2.00000
     88      -7.3979      2.00000
     89      -7.2451      2.00000
     90      -7.2382      2.00000
     91      -7.2319      2.00000
     92      -7.2287      2.00000
     93      -7.2227      2.00000
     94      -7.1377      2.00000
     95      -6.3491      2.00000
     96      -6.3461      2.00000
     97      -6.3393      2.00000
     98      -6.3366      2.00000
     99      -6.3311      2.00000
    100      -6.3003      2.00000
    101      -5.9138      2.00000
    102      -5.9115      2.00000
    103      -4.3693      2.00000
    104      -4.3640      2.00000
    105      -4.3595      2.00000
    106      -4.3567      2.00000
    107      -4.3521      2.00000
    108      -4.3513      2.00000
    109      -1.5729      0.00000
    110      -1.5685      0.00000
    111      -1.5558      0.00000
    112      -1.5533      0.00000
    113      -1.5511      0.00000
    114      -1.5480      0.00000
    115       0.2288      0.00000
    116       0.2812      0.00000
    117       0.2936      0.00000
    118       0.3027      0.00000
    119       0.3107      0.00000
    120       0.3124      0.00000
    121       0.3147      0.00000
    122       0.8723      0.00000
    123       0.8748      0.00000
    124       0.9315      0.00000
    125       1.3934      0.00000
    126       1.4684      0.00000
    127       1.6232      0.00000
    128       1.6725      0.00000
    129       1.6821      0.00000
    130       1.6839      0.00000
    131       1.7536      0.00000
    132       2.0386      0.00000
    133       2.0431      0.00000
    134       2.0557      0.00000
    135       2.0599      0.00000
    136       2.0708      0.00000
    137       2.0833      0.00000
    138       2.2989      0.00000
    139       2.5936      0.00000
    140       3.0938      0.00000


--------------------------------------------------------------------------------------------------------


 soft charge-density along one line, spin component           1
         0         1         2         3         4         5         6         7         8         9
 total charge-density along one line
 
 pseudopotential strength for first ion, spin component:           1
 12.703  21.377  -0.000   0.000   0.000  -0.000   0.000   0.000
 21.377  35.971  -0.000   0.000   0.000  -0.000   0.000   0.000
 -0.000  -0.000  -3.170  -0.000   0.000  -5.681  -0.000   0.000
  0.000   0.000  -0.000  -3.171  -0.000  -0.000  -5.683  -0.000
  0.000   0.000   0.000  -0.000  -3.170   0.000  -0.000  -5.681
 -0.000  -0.000  -5.681  -0.000   0.000 -10.161  -0.000   0.000
  0.000   0.000  -0.000  -5.683  -0.000  -0.000 -10.164  -0.000
  0.000   0.000   0.000  -0.000  -5.681   0.000  -0.000 -10.161
 total augmentation occupancy for first ion, spin component:           1
  7.879  -2.765  -0.000  -0.002   0.000   0.000   0.001  -0.000
 -2.765   1.007   0.000   0.001  -0.000  -0.000  -0.000   0.000
 -0.000   0.000   7.263  -0.008   0.000  -2.461   0.003  -0.000
 -0.002   0.001  -0.008   3.234  -0.000   0.003  -0.862   0.000
  0.000  -0.000   0.000  -0.000   7.263  -0.000   0.000  -2.461
  0.000  -0.000  -2.461   0.003  -0.000   0.848  -0.001   0.000
  0.001  -0.000   0.003  -0.862   0.000  -0.001   0.236   0.000
 -0.000   0.000  -0.000   0.000  -2.461   0.000   0.000   0.848


------------------------ aborting loop because EDIFF is reached ----------------------------------------


    FORLOC:  cpu time    0.0673: real time    0.0679
    FORNL :  cpu time    1.0709: real time    1.0837
    FORCOR:  cpu time    0.3963: real time    0.3991
    OFIELD:  cpu time    0.0017: real time    0.0017

 ---------------------------------------------------------------------------------------------

         DFTD3 V3.0 Rev 1        
 IVDW         = 11
 DF pbe       
 parameters
 VDW_S6       =    1.0000
 VDW_S8       =    0.7220
 VDW_SR       =    1.2170
 rs18     =    1.0000
 alpha6   =   14.0000
 alpha8   =   16.0000
 k1-k3    =   16.0000    1.3333   -4.0000
 VDW_RADIUS   =   50.2022 A
 VDW_CNRADIUS =   21.1671 A
 Edisp (eV)   -1.92771

 E6    (eV) :    -1.0899
 E8    (eV) :    -0.8378
 % E8        : 43.46
    FORVDW:  cpu time    0.1594: real time    0.1612

 VOLUME and BASIS-vectors are now :
 -----------------------------------------------------------------------------
  energy-cutoff  :     1000.00
  volume of cell :     3288.85
      direct lattice vectors                 reciprocal lattice vectors
    12.325000000  0.000000000  0.000000000     0.081135903  0.046843835  0.000000000
    -6.162500000 10.673763102  0.000000000     0.000000000  0.093687670  0.000000000
     0.000000000  0.000000000 25.000000000     0.000000000  0.000000000  0.040000000

  length of vectors
    12.325000000 12.325000000 25.000000000     0.093687670  0.093687670  0.040000000


 FORCES acting on ions:
    Electron-Ion                     Ewald-Force                    Non-Local-Force
 -----------------------------------------------------------------------------------------------
   0.121E+02 0.106E+02 0.252E+02   -.121E+02 -.106E+02 -.252E+02   0.140E-01 -.678E-02 0.121E-01
   0.202E+02 0.101E+02 0.335E+02   -.202E+02 -.101E+02 -.334E+02   0.213E-01 -.144E-01 -.108E-01
   0.102E+02 0.259E+02 0.421E+02   -.102E+02 -.260E+02 -.421E+02   -.238E-02 0.523E-01 0.332E-01
   0.168E+02 0.247E+02 0.701E+02   -.169E+02 -.247E+02 -.703E+02   0.673E-01 0.293E-01 0.888E-01
   0.132E+02 0.314E+01 0.253E+02   -.132E+02 -.312E+01 -.252E+02   0.270E-02 -.186E-01 -.630E-02
   0.139E+02 -.234E+01 0.259E+02   -.139E+02 0.235E+01 -.259E+02   -.238E-01 -.453E-02 -.152E-01
   0.283E+02 0.118E+02 0.595E+02   -.284E+02 -.117E+02 -.595E+02   0.571E-01 -.760E-01 -.284E-01
   0.282E+02 -.941E+01 0.639E+02   -.282E+02 0.946E+01 -.638E+02   -.484E-02 -.322E-01 -.151E+00
   -.113E+02 0.242E+02 0.436E+02   0.113E+02 -.241E+02 -.436E+02   -.220E-01 -.100E-01 -.517E-01
   -.212E+02 0.182E+02 0.686E+02   0.213E+02 -.183E+02 -.685E+02   -.751E-01 0.401E-01 -.137E+00
   0.322E+01 -.281E+01 0.202E+02   -.320E+01 0.280E+01 -.202E+02   -.636E-02 0.498E-02 -.592E-02
   0.254E+01 -.205E+01 0.187E+02   -.254E+01 0.205E+01 -.187E+02   -.163E-01 0.703E-02 0.148E-02
   0.107E+02 -.262E+02 0.737E+02   -.108E+02 0.263E+02 -.737E+02   0.104E+00 -.151E-01 -.150E+00
   0.477E+01 -.263E+02 0.430E+02   -.480E+01 0.263E+02 -.430E+02   0.290E-01 0.246E-02 -.494E-01
   -.118E+02 0.746E+01 0.248E+02   0.118E+02 -.745E+01 -.248E+02   0.175E-01 -.957E-02 -.867E-02
   -.178E+02 0.497E+01 0.293E+02   0.178E+02 -.498E+01 -.293E+02   0.912E-03 0.977E-02 -.286E-01
   -.173E+01 -.711E+00 0.180E+02   0.174E+01 0.708E+00 -.180E+02   -.478E-02 -.536E-03 0.963E-03
   0.970E+00 0.640E+01 0.192E+02   -.965E+00 -.640E+01 -.192E+02   -.919E-02 0.395E-02 0.831E-02
   -.369E+01 -.212E+02 0.318E+02   0.367E+01 0.212E+02 -.318E+02   0.313E-01 -.467E-02 0.928E-02
   -.153E+01 -.998E+01 0.213E+02   0.152E+01 0.998E+01 -.213E+02   0.528E-02 -.540E-02 -.197E-02
   0.213E+02 -.922E+01 0.365E+02   -.212E+02 0.921E+01 -.365E+02   -.103E-01 -.417E-02 -.565E-01
   0.123E+02 -.107E+02 0.279E+02   -.123E+02 0.107E+02 -.279E+02   -.160E-01 0.202E-01 -.185E-01
   -.529E+01 0.123E+02 0.924E+02   0.538E+01 -.124E+02 -.926E+02   -.930E-01 0.702E-01 0.368E-01
   -.984E+01 -.196E+02 0.865E+02   0.978E+01 0.197E+02 -.866E+02   0.622E-01 -.835E-01 0.456E-01
   0.559E+01 -.249E+01 0.203E+02   -.557E+01 0.249E+01 -.203E+02   -.123E-01 0.249E-02 -.997E-02
   0.101E+01 0.502E+01 0.205E+02   -.100E+01 -.503E+01 -.205E+02   -.136E-01 0.619E-02 -.153E-02
   -.280E+02 0.311E+01 0.488E+02   0.280E+02 -.316E+01 -.488E+02   0.100E-02 0.324E-01 -.600E-01
   -.252E+02 -.109E+02 0.432E+02   0.253E+02 0.109E+02 -.433E+02   -.416E-01 0.380E-01 0.112E-01
   0.753E+01 -.155E+02 0.293E+02   -.753E+01 0.155E+02 -.293E+02   0.102E-01 0.123E-01 -.236E-01
   0.702E+00 -.559E+01 0.217E+02   -.715E+00 0.558E+01 -.217E+02   0.294E-02 0.110E-01 -.967E-02
   -.209E+02 -.226E+02 0.545E+02   0.209E+02 0.227E+02 -.546E+02   -.542E-01 -.348E-01 0.617E-01
   -.115E+02 -.208E+02 0.343E+02   0.115E+02 0.209E+02 -.343E+02   -.489E-03 -.312E-01 0.205E-01
   0.642E+00 0.266E+01 0.186E+02   -.647E+00 -.266E+01 -.186E+02   0.120E-01 -.921E-02 0.357E-02
   0.185E+01 0.270E+01 0.201E+02   -.186E+01 -.269E+01 -.201E+02   0.769E-03 -.525E-02 -.635E-02
   -.822E+01 0.991E+00 0.222E+02   0.821E+01 -.100E+01 -.222E+02   0.119E-01 0.217E-02 -.327E-02
   -.703E+01 -.279E+01 0.215E+02   0.704E+01 0.279E+01 -.215E+02   -.113E-01 0.935E-02 -.379E-02
   -.144E+02 -.755E+01 0.259E+02   0.145E+02 0.754E+01 -.259E+02   -.169E-01 0.417E-02 -.665E-03
   -.821E+01 -.667E+01 0.211E+02   0.821E+01 0.667E+01 -.212E+02   -.111E-01 0.346E-02 0.990E-02
   -.774E+01 -.101E+02 0.228E+02   0.775E+01 0.101E+02 -.228E+02   -.118E-01 -.880E-02 0.681E-02
   -.113E+01 -.238E+01 0.192E+02   0.113E+01 0.239E+01 -.192E+02   0.165E-02 -.204E-02 0.787E-02
   0.290E+01 0.692E+01 0.201E+02   -.290E+01 -.693E+01 -.201E+02   -.389E-02 0.104E-01 0.745E-02
   0.979E+01 0.153E+02 0.270E+02   -.980E+01 -.153E+02 -.270E+02   0.129E-01 0.140E-01 0.138E-01
   0.775E+00 0.125E+02 0.226E+02   -.764E+00 -.125E+02 -.226E+02   -.856E-02 0.928E-02 -.210E-02
   0.210E+00 0.241E+02 0.356E+02   -.177E+00 -.241E+02 -.356E+02   -.397E-01 0.111E-01 0.880E-02
   -.237E+01 0.472E+01 0.217E+02   0.237E+01 -.471E+01 -.217E+02   0.126E-02 -.867E-02 -.732E-02
   -.101E+02 0.130E+02 0.279E+02   0.101E+02 -.129E+02 -.279E+02   -.789E-02 -.345E-02 -.220E-01
   -.166E+01 -.471E+01 0.199E+02   0.166E+01 0.471E+01 -.199E+02   0.153E-01 -.118E-02 0.842E-03
   -.439E+01 0.180E+01 0.191E+02   0.437E+01 -.180E+01 -.191E+02   0.971E-02 -.108E-02 -.853E-02
   0.332E+00 -.292E+01 0.188E+02   -.333E+00 0.292E+01 -.188E+02   0.815E-02 -.336E-02 0.539E-02
   0.461E+01 0.339E+01 0.190E+02   -.462E+01 -.339E+01 -.190E+02   0.492E-02 0.369E-02 0.319E-02
   0.213E+00 -.135E+00 -.418E+03   -.204E+00 0.128E+00 0.418E+03   -.162E-01 0.780E-02 -.369E-01
   -.229E+03 0.156E+03 -.641E+03   0.279E+03 -.190E+03 0.644E+03   -.509E+02 0.347E+02 -.294E+01
   0.229E+03 -.156E+03 -.618E+03   -.279E+03 0.190E+03 0.615E+03   0.509E+02 -.347E+02 0.352E+01
 -----------------------------------------------------------------------------------------------
   0.387E-01 0.328E-02 -.642E-01   0.568E-13 -.114E-12 -.455E-12   -.385E-01 -.356E-02 0.651E-01
 
 
 POSITION                                       TOTAL-FORCE (eV/Angst)
 -----------------------------------------------------------------------------------
     11.98348      0.00342      0.01417         0.001819      0.000242     -0.000023
     -0.34154      1.42665      0.01100         0.005634      0.004600      0.000742
      2.12355      0.00315      0.01249         0.003668     -0.008268      0.004405
      2.12326      1.42653      0.00641        -0.007815      0.001223     -0.018785
     10.75099      2.13819      0.01213         0.001067     -0.004088      0.002527
     -1.57382      3.56123      0.01110        -0.004187      0.007718      0.001226
      0.89078      2.13854      0.00548        -0.009473      0.004521     -0.016557
      0.89099      3.56147      0.00181        -0.011767      0.012876     -0.043058
      4.58864      0.00346      0.01135         0.008235      0.015044     -0.005338
      4.58894      1.42623      0.00646         0.010673     -0.009381     -0.055129
      9.51854      4.27281      0.01369         0.008034     -0.009647      0.000475
     -2.80632      5.69591      0.01434        -0.010524      0.006022      0.001191
      2.12300      4.27302      0.00000        -0.010576      0.023549     -0.071598
      2.12335      5.69594      0.00581        -0.004472     -0.021621     -0.004291
      7.05344      0.00333      0.01399         0.004459     -0.001451      0.002400
      7.05353      1.42635      0.01368        -0.007121      0.005829      0.000205
      8.28610      6.40752      0.01601         0.004123     -0.003467     -0.000317
     -4.03885      7.83070      0.01636        -0.004194      0.004595      0.000220
      3.35586      6.40753      0.01007         0.004150      0.000027      0.003031
      3.35599      7.83072      0.01320        -0.002964     -0.002185      0.000463
     -0.34146      4.27290      0.00723         0.017672     -0.011553     -0.001808
     -0.34138      5.69591      0.00946        -0.006389      0.002830      0.003763
      3.35624      2.13791      0.00222         0.007851     -0.010599     -0.107992
      3.35573      3.56155      0.00139         0.002067      0.016943     -0.076941
     -1.57395      6.40758      0.01311         0.012210     -0.003239     -0.000586
     -1.57385      7.83068      0.01438        -0.005006      0.004275      0.000582
      5.82093      2.13784      0.01033        -0.005789     -0.012922     -0.011111
      5.82114      3.56097      0.01156        -0.001972      0.000250      0.003286
      0.89092      6.40755      0.00907         0.003911     -0.001336      0.003003
      0.89106      7.83068      0.01235        -0.009855     -0.001715      0.000578
      4.58871      4.27293      0.00850         0.002944     -0.006338      0.000523
      4.58852      5.69606      0.01149        -0.000407      0.008691      0.002088
      9.51845      0.00337      0.01490         0.006805     -0.006745      0.000561
      9.51855      1.42644      0.01438        -0.004287      0.011156     -0.000190
      8.28593      2.13803      0.01453         0.002389     -0.006775      0.001469
      8.28613      3.56115      0.01464        -0.004916      0.001890      0.000675
      7.05356      4.27269      0.01457         0.000893     -0.001559      0.001508
      7.05362      5.69588      0.01553        -0.003045      0.000630      0.000188
      5.82112      6.40755      0.01489        -0.001494     -0.000396      0.000123
      5.82102      7.83073      0.01579        -0.001332      0.003048     -0.000119
      7.05363      8.54227      0.01631        -0.000512     -0.001686      0.001280
     -5.27149      9.96549      0.01495        -0.000250     -0.000579     -0.001087
     -2.80638      8.54234      0.01558         0.002315      0.000882      0.000038
     -2.80627      9.96553      0.01362        -0.005756      0.001524      0.002953
     -0.34149      8.54239      0.01378         0.006469     -0.000338      0.000875
     -0.34138      9.96550      0.01354        -0.008255      0.004368      0.002367
      2.12343      8.54232      0.01336         0.007097     -0.000805      0.001130
      2.12354      9.96544      0.01469        -0.008721      0.003647     -0.001891
      4.58846      8.54235      0.01505         0.007446     -0.005758      0.001263
      4.58853      9.96550      0.01517        -0.002620      0.004942      0.000891
      3.04930      2.68154      2.97302        -0.007698      0.000622      0.080678
      4.02070      2.02068      3.03744        -0.519797      0.368893      0.093133
      2.07767      3.34267      2.91356         0.539263     -0.388384      0.196982
 -----------------------------------------------------------------------------------
    total drift:                                0.000169     -0.000286      0.000891


--------------------------------------------------------------------------------------------------------



  FREE ENERGIE OF THE ION-ELECTRON SYSTEM (eV)
  ---------------------------------------------------
  free  energy   TOTEN  =      -486.60151537 eV

  energy  without entropy=     -486.60151537  energy(sigma->0) =     -486.60151537
 


--------------------------------------------------------------------------------------------------------


    POTLOK:  cpu time    0.3809: real time    0.3834


--------------------------------------------------------------------------------------------------------


     LOOP+:  cpu time  142.4003: real time  144.0981
    4ORBIT:  cpu time    0.0000: real time    0.0000

 total amount of memory used by VASP MPI-rank0   215378. kBytes
=======================================================================

   base      :      30000. kBytes
   nonl-proj :      57634. kBytes
   fftplans  :      45914. kBytes
   grid      :      67588. kBytes
   one-center:         43. kBytes
   wavefun   :      14199. kBytes
 
  
  
 General timing and accounting informations for this job:
 ========================================================
  
                  Total CPU time used (sec):      186.249
                            User time (sec):      173.296
                          System time (sec):       12.953
                         Elapsed time (sec):      189.547
  
                   Maximum memory used (kb):      588672.
                   Average memory used (kb):          N/A
  
                          Minor page faults:        62223
                          Major page faults:          117
                 Voluntary context switches:         3591
