 vasp.6.2.1 16May21 (build Nov 06 2021 14:46:37) complex                        
  
 executed on             LinuxIFC date 2025.03.03  17:37:28
 running on  112 total cores
 distrk:  each k-point on  112 cores,    1 groups
 distr:  one band on NCORE=   4 cores,   28 groups


--------------------------------------------------------------------------------------------------------


 INCAR:
   ALGO = Conjugate
   NCORE = 4
   ISMEAR = 0
   SIGMA = 0.01
   PREC = Accurate
   EDIFF = 1E-6
   ENCUT = 1000
   ISIF = 0
   IVDW = 11
   LWAVE = .FALSE.
   LCHARGE = .FALSE.
   SYMPREC = 1E-6

 POTCAR:    PAW_PBE C_h 06Feb2004                 
 POTCAR:    PAW_PBE O_h 06Feb2004                 
 -----------------------------------------------------------------------------
|                                                                             |
|           W    W    AA    RRRRR   N    N  II  N    N   GGGG   !!!           |
|           W    W   A  A   R    R  NN   N  II  NN   N  G    G  !!!           |
|           W    W  A    A  R    R  N N  N  II  N N  N  G       !!!           |
|           W WW W  AAAAAA  RRRRR   N  N N  II  N  N N  G  GGG   !            |
|           WW  WW  A    A  R   R   N   NN  II  N   NN  G    G                |
|           W    W  A    A  R    R  N    N  II  N    N   GGGG   !!!           |
|                                                                             |
|     For optimal performance we recommend to set                             |
|       NCORE = 2 up to number-of-cores-per-socket                            |
|     NCORE specifies how many cores store one orbital (NPAR=cpu/NCORE).      |
|     This setting can greatly improve the performance of VASP for DFT.       |
|     The default, NCORE=1 might be grossly inefficient on modern             |
|     multi-core architectures or massively parallel machines. Do your        |
|     own testing! More info at https://www.vasp.at/wiki/index.php/NCORE      |
|     Unfortunately you need to use the default for GW and RPA                |
|     calculations (for HF NCORE is supported but not extensively tested      |
|     yet).                                                                   |
|                                                                             |
 -----------------------------------------------------------------------------

 POTCAR:    PAW_PBE C_h 06Feb2004                 
   VRHFIN =C: s2p2                                                                                  
   LEXCH  = PE                                                                                      
   EATOM  =   147.1560 eV,   10.8157 Ry                                                             
                                                                                                    
   TITEL  = PAW_PBE C_h 06Feb2004                                                                   
   LULTRA =        F    use ultrasoft PP ?                                                          
   IUNSCR =        1    unscreen: 0-lin 1-nonlin 2-no                                               
   RPACOR =    0.800    partial core radius                                                         
   POMASS =   12.011; ZVAL   =    4.000    mass and valenz                                          
   RCORE  =    1.100    outmost cutoff radius                                                       
   RWIGS  =    1.630; RWIGS  =    0.863    wigner-seitz radius (au A)                               
   ENMAX  =  700.000; ENMIN  =  500.000 eV                                                          
   ICORE  =        2    local potential                                                             
   LCOR   =        T    correct aug charges                                                         
   LPAW   =        T    paw PP                                                                      
   EAUG   =  946.768                                                                                
   DEXC   =    0.000                                                                                
   RMAX   =    1.128    core radius for proj-oper                                                   
   RAUG   =    1.300    factor for augmentation sphere                                              
   RDEP   =    1.162    radius for radial grids                                                     
   RDEPT  =    1.088    core radius for aug-charge                                                  
                                                                                                    
   Atomic configuration                                                                             
    4 entries                                                                                       
     n  l   j            E        occ.                                                              
     1  0  0.50      -273.3789   2.0000                                                             
     2  0  0.50       -13.7508   2.0000                                                             
     2  1  0.50        -5.2854   2.0000                                                             
     3  2  1.50        -5.4423   0.0000                                                             
   Description                                                                                      
     l       E           TYP  RCUT    TYP  RCUT                                                     
     0    -13.7508458     23  1.100                                                                 
     0     -8.2022199     23  1.100                                                                 
     1     -5.2854383     23  1.100                                                                 
     1      1.1560700     23  1.100                                                                 
     2     -5.4423304      7  1.100                                                                 
  local pseudopotential read in
  partial core-charges read in
  partial kinetic energy density read in
  atomic valenz-charges read in
  non local Contribution for L=           0  read in
    real space projection operators read in
  non local Contribution for L=           0  read in
    real space projection operators read in
  non local Contribution for L=           1  read in
    real space projection operators read in
  non local Contribution for L=           1  read in
    real space projection operators read in
    PAW grid and wavefunctions read in
 
   number of l-projection  operators is LMAX  =           4
   number of lm-projection operators is LMMAX =           8
 
 POTCAR:    PAW_PBE O_h 06Feb2004                 
   VRHFIN =O: s2p4                                                                                  
   LEXCH  = PE                                                                                      
   EATOM  =   432.3788 eV,   31.7789 Ry                                                             
                                                                                                    
   TITEL  = PAW_PBE O_h 06Feb2004                                                                   
   LULTRA =        F    use ultrasoft PP ?                                                          
   IUNSCR =        1    unscreen: 0-lin 1-nonlin 2-no                                               
   RPACOR =    0.800    partial core radius                                                         
   POMASS =   16.000; ZVAL   =    6.000    mass and valenz                                          
   RCORE  =    1.100    outmost cutoff radius                                                       
   RWIGS  =    1.400; RWIGS  =    0.741    wigner-seitz radius (au A)                               
   ENMAX  =  700.000; ENMIN  =  500.000 eV                                                          
   ICORE  =        2    local potential                                                             
   LCOR   =        T    correct aug charges                                                         
   LPAW   =        T    paw PP                                                                      
   EAUG   =  888.804                                                                                
   DEXC   =    0.000                                                                                
   RMAX   =    1.128    core radius for proj-oper                                                   
   RAUG   =    1.300    factor for augmentation sphere                                              
   RDEP   =    1.125    radius for radial grids                                                     
   RDEPT  =    1.088    core radius for aug-charge                                                  
                                                                                                    
   Atomic configuration                                                                             
    4 entries                                                                                       
     n  l   j            E        occ.                                                              
     1  0  0.50      -514.6923   2.0000                                                             
     2  0  0.50       -23.9615   2.0000                                                             
     2  1  0.50        -9.0305   4.0000                                                             
     3  2  1.50        -9.5241   0.0000                                                             
   Description                                                                                      
     l       E           TYP  RCUT    TYP  RCUT                                                     
     0    -23.9615319     23  1.100                                                                 
     0    -25.3221145     23  1.100                                                                 
     1     -9.0304911     23  1.100                                                                 
     1     -5.4802209     23  1.100                                                                 
     2     -9.5240782      7  1.100                                                                 
  local pseudopotential read in
  partial core-charges read in
  partial kinetic energy density read in
  atomic valenz-charges read in
  non local Contribution for L=           0  read in
    real space projection operators read in
  non local Contribution for L=           0  read in
    real space projection operators read in
  non local Contribution for L=           1  read in
    real space projection operators read in
  non local Contribution for L=           1  read in
    real space projection operators read in
    PAW grid and wavefunctions read in
 
   number of l-projection  operators is LMAX  =           4
   number of lm-projection operators is LMMAX =           8
 
 -----------------------------------------------------------------------------
|                                                                             |
|               ----> ADVICE to this user running VASP <----                  |
|                                                                             |
|     You have a (more or less) 'large supercell' and for larger cells it     |
|     might be more efficient to use real-space projection operators.         |
|     Therefore, try LREAL= Auto in the INCAR file.                           |
|     Mind: For very accurate calculation, you might also keep the            |
|     reciprocal projection scheme (i.e. LREAL=.FALSE.).                      |
|                                                                             |
 -----------------------------------------------------------------------------

  PAW_PBE C_h 06Feb2004                 :
 energy of atom  1       EATOM= -147.1560
 kinetic energy error for atom=    0.0031 (will be added to EATOM!!)
  PAW_PBE O_h 06Feb2004                 :
 energy of atom  2       EATOM= -432.3788
 kinetic energy error for atom=    0.0171 (will be added to EATOM!!)
 
 
 POSCAR:  C  O
  positions in cartesian coordinates
  No initial velocities read in
 exchange correlation table for  LEXCH =        8
   RHO(1)=    0.500       N(1)  =     2000
   RHO(2)=  100.500       N(2)  =     4000
 


--------------------------------------------------------------------------------------------------------


 ion  position               nearest neighbor table
   1  0.972  0.000  0.001-  50 1.42   2 1.42  42 1.42
   2  0.039  0.134  0.001-   5 1.42   7 1.42   1 1.42
   3  0.172  0.000  0.001-  42 1.42  44 1.42   4 1.42
   4  0.239  0.134  0.000-   7 1.42   3 1.42  23 1.42
   5  0.972  0.200  0.001-   6 1.42   2 1.42  34 1.42
   6  0.039  0.334  0.001-   5 1.42  21 1.42  11 1.42
   7  0.172  0.200  0.000-   8 1.42   2 1.42   4 1.42
   8  0.239  0.334  0.000-  13 1.42   7 1.42  21 1.42
   9  0.372  0.000  0.001-  10 1.42  44 1.42  46 1.42
  10  0.439  0.134  0.000-  27 1.42   9 1.42  23 1.42
  11  0.972  0.400  0.001-  12 1.42  36 1.42   6 1.42
  12  0.039  0.534  0.001-  25 1.42  11 1.42  17 1.42
  13  0.372  0.400  0.000-   8 1.42  14 1.42  24 1.42
  14  0.439  0.534  0.000-  13 1.42  29 1.42  19 1.42
  15  0.572  0.000  0.001-  46 1.42  16 1.42  48 1.42
  16  0.639  0.134  0.001-  15 1.42  35 1.42  27 1.42
  17  0.972  0.600  0.001-  38 1.42  18 1.42  12 1.42
  18  0.039  0.734  0.001-  43 1.42  41 1.42  17 1.42
  19  0.572  0.600  0.001-  14 1.42  20 1.42  32 1.42
  20  0.639  0.734  0.001-  49 1.42  19 1.42  47 1.42
  21  0.172  0.400  0.000-  22 1.42   8 1.42   6 1.42
  22  0.239  0.534  0.000-  21 1.42  29 1.42  25 1.42
  23  0.372  0.200  0.000-  10 1.42   4 1.42  24 1.42
  24  0.439  0.334  0.000-  13 1.42  31 1.42  23 1.42
  25  0.172  0.600  0.001-  26 1.42  12 1.42  22 1.42
  26  0.239  0.734  0.001-  25 1.42  45 1.42  43 1.42
  27  0.572  0.200  0.001-  10 1.42  28 1.42  16 1.42
  28  0.639  0.334  0.001-  27 1.42  37 1.42  31 1.42
  29  0.372  0.600  0.000-  22 1.42  14 1.42  30 1.42
  30  0.439  0.734  0.001-  47 1.42  29 1.42  45 1.42
  31  0.572  0.400  0.000-  32 1.42  28 1.42  24 1.42
  32  0.639  0.534  0.001-  31 1.42  39 1.42  19 1.42
  33  0.772  0.000  0.001-  34 1.42  48 1.42  50 1.42
  34  0.839  0.134  0.001-  33 1.42   5 1.42  35 1.42
  35  0.772  0.200  0.001-  36 1.42  16 1.42  34 1.42
  36  0.839  0.334  0.001-  35 1.42  11 1.42  37 1.42
  37  0.772  0.400  0.001-  28 1.42  38 1.42  36 1.42
  38  0.839  0.534  0.001-  17 1.42  37 1.42  39 1.42
  39  0.772  0.600  0.001-  40 1.42  38 1.42  32 1.42
  40  0.839  0.734  0.001-  39 1.42  49 1.42  41 1.42
  41  0.972  0.800  0.001-  18 1.42  42 1.42  40 1.42
  42  0.039  0.934  0.001-   3 1.42  41 1.42   1 1.42
  43  0.172  0.800  0.001-  18 1.42  44 1.42  26 1.42
  44  0.239  0.934  0.001-   9 1.42  43 1.42   3 1.42
  45  0.372  0.800  0.001-  26 1.42  46 1.42  30 1.42
  46  0.439  0.934  0.001-  15 1.42  45 1.42   9 1.42
  47  0.572  0.800  0.001-  30 1.42  48 1.42  20 1.42
  48  0.639  0.934  0.001-  47 1.42  33 1.42  15 1.42
  49  0.772  0.800  0.001-  50 1.42  20 1.42  40 1.42
  50  0.839  0.934  0.001-  49 1.42   1 1.42  33 1.42
  51  0.373  0.251  0.420-  52 1.18  53 1.18
  52  0.421  0.189  0.424-  51 1.18
  53  0.325  0.313  0.417-  51 1.18
 
  LATTYP: Found a hexagonal cell.
 ALAT       =    12.3250000000
 C/A-ratio  =     1.6227180527
  
  Lattice vectors:
  
 A1 = (  12.3250000000,   0.0000000000,   0.0000000000)
 A2 = (  -6.1625000000,  10.6737631016,   0.0000000000)
 A3 = (   0.0000000000,   0.0000000000,  20.0000000000)


Analysis of symmetry for initial positions (statically):
=====================================================================
 Subroutine PRICEL returns:
 Original cell was already a primitive cell.
 

 Routine SETGRP: Setting up the symmetry group for a 
 hexagonal supercell.


 Subroutine GETGRP returns: Found  1 space group operations
 (whereof  1 operations were pure point group operations)
 out of a pool of 24 trial point group operations.


The static configuration has the point symmetry C_1 .


Analysis of symmetry for dynamics (positions and initial velocities):
=====================================================================
 Subroutine PRICEL returns:
 Original cell was already a primitive cell.
 

 Routine SETGRP: Setting up the symmetry group for a 
 hexagonal supercell.


 Subroutine GETGRP returns: Found  1 space group operations
 (whereof  1 operations were pure point group operations)
 out of a pool of 24 trial point group operations.


The dynamic configuration has the point symmetry C_1 .


 Subroutine INISYM returns: Found  1 space group operations
 (whereof  1 operations are pure point group operations),
 and found     1 'primitive' translations


----------------------------------------------------------------------------------------

                                     Primitive cell                                     

  volume of cell :    2631.0826

  direct lattice vectors                    reciprocal lattice vectors
    12.325000000  0.000000000  0.000000000     0.081135903  0.046843835  0.000000000
    -6.162500000 10.673763102  0.000000000     0.000000000  0.093687670  0.000000000
     0.000000000  0.000000000 20.000000000     0.000000000  0.000000000  0.050000000

  length of vectors
    12.325000000 12.325000000 20.000000000     0.093687670  0.093687670  0.050000000

  position of ions in fractional coordinates (direct lattice)
     0.972450841  0.000320818  0.000708389
     0.039118382  0.133659505  0.000550216
     0.172443627  0.000295449  0.000624535
     0.239096278  0.133647917  0.000320585
     0.972452058  0.200322012  0.000606523
     0.039128360  0.333643771  0.000555187
     0.172451764  0.200354552  0.000273959
     0.239124359  0.333665720  0.000090325
     0.372465565  0.000324403  0.000567391
     0.439137473  0.133619939  0.000322923
     0.972449824  0.400309362  0.000684513
     0.039124981  0.533636789  0.000716763
     0.372416176  0.400329481  0.000000000
     0.439099602  0.533638981  0.000290518
     0.572443676  0.000312125  0.000699475
     0.639110207  0.133631751  0.000684093
     0.972452703  0.600305653  0.000800361
     0.039124495  0.733640359  0.000818141
     0.572433471  0.600306242  0.000503618
     0.639111888  0.733641879  0.000659881
     0.172454630  0.400318228  0.000361306
     0.239120185  0.533636548  0.000473136
     0.372459750  0.200295993  0.000111246
     0.439107096  0.333673419  0.000069702
     0.172452155  0.600311506  0.000655425
     0.239123371  0.733638574  0.000718912
     0.572431082  0.200289171  0.000516621
     0.639112773  0.333618630  0.000577970
     0.372439808  0.600308022  0.000453556
     0.439116090  0.733637858  0.000617737
     0.572469358  0.400320504  0.000424897
     0.639119408  0.533650873  0.000574513
     0.772445723  0.000315427  0.000745201
     0.839116277  0.133640203  0.000719132
     0.772440513  0.200307432  0.000726291
     0.839120241  0.333635728  0.000731834
     0.772446320  0.400298367  0.000728722
     0.839118980  0.533633964  0.000776376
     0.772456143  0.600308173  0.000744639
     0.839115033  0.733643180  0.000789390
     0.972455313  0.800305582  0.000815291
     0.039114714  0.933643289  0.000747563
     0.172457971  0.800312211  0.000779216
     0.239134551  0.933647193  0.000681063
     0.372451396  0.800316674  0.000689249
     0.439124489  0.933644769  0.000676788
     0.572441101  0.800310054  0.000668168
     0.639115067  0.933638985  0.000734556
     0.772445098  0.800313187  0.000752577
     0.839116614  0.933644338  0.000758538
     0.373021009  0.251226878  0.420448208
     0.420879805  0.189313152  0.423669301
     0.325156981  0.313167186  0.417475464

  ion indices of the primitive-cell ions
   primitive index   ion index
                 1           1
                 2           2
                 3           3
                 4           4
                 5           5
                 6           6
                 7           7
                 8           8
                 9           9
                10          10
                11          11
                12          12
                13          13
                14          14
                15          15
                16          16
                17          17
                18          18
                19          19
                20          20
                21          21
                22          22
                23          23
                24          24
                25          25
                26          26
                27          27
                28          28
                29          29
                30          30
                31          31
                32          32
                33          33
                34          34
                35          35
                36          36
                37          37
                38          38
                39          39
                40          40
                41          41
                42          42
                43          43
                44          44
                45          45
                46          46
                47          47
                48          48
                49          49
                50          50
                51          51
                52          52
                53          53

----------------------------------------------------------------------------------------

 
 
 KPOINTS: auto                                    

Automatic generation of k-mesh.
 Grid dimensions read from file:
 generate k-points for:    1    1    1

 Generating k-lattice:

  Cartesian coordinates                     Fractional coordinates (reciprocal lattice)
     0.081135903  0.046843835  0.000000000     1.000000000 -0.000000000  0.000000000
     0.000000000  0.093687670  0.000000000     0.000000000  1.000000000  0.000000000
     0.000000000  0.000000000  0.050000000     0.000000000  0.000000000  1.000000000

  Length of vectors
     0.093687670  0.093687670  0.050000000

  Shift w.r.t. Gamma in fractional coordinates (k-lattice)
     0.000000000  0.000000000  0.000000000

 
 Subroutine IBZKPT returns following result:
 ===========================================
 
 Found      1 irreducible k-points:
 
 Following reciprocal coordinates:
            Coordinates               Weight
  0.000000  0.000000  0.000000      1.000000
 
 Following cartesian coordinates:
            Coordinates               Weight
  0.000000  0.000000  0.000000      1.000000
 


--------------------------------------------------------------------------------------------------------




 Dimension of arrays:
   k-points           NKPTS =      1   k-points in BZ     NKDIM =      1   number of bands    NBANDS=    140
   number of dos      NEDOS =    301   number of ions     NIONS =     53
   non local maximal  LDIM  =      4   non local SUM 2l+1 LMDIM =      8
   total plane-waves  NPLWV = ******
   max r-space proj   IRMAX =      1   max aug-charges    IRDMAX=   9736
   dimension x,y,z NGX =   128 NGY =  128 NGZ =  210
   dimension x,y,z NGXF=   256 NGYF=  256 NGZF=  420
   support grid    NGXF=   256 NGYF=  256 NGZF=  420
   ions per type =              51   2
   NGX,Y,Z   is equivalent  to a cutoff of  17.27, 17.27, 17.46 a.u.
   NGXF,Y,Z  is equivalent  to a cutoff of  34.53, 34.53, 34.91 a.u.

 SYSTEM =  unknown system                          
 POSCAR =   C  O                                   

 Startparameter for this run:
   NWRITE =      2    write-flag & timer
   PREC   = accura    normal or accurate (medium, high low for compatibility)
   ISTART =      0    job   : 0-new  1-cont  2-samecut
   ICHARG =      2    charge: 1-file 2-atom 10-const
   ISPIN  =      1    spin polarized calculation?
   LNONCOLLINEAR =      F non collinear calculations
   LSORBIT =      F    spin-orbit coupling
   INIWAV =      1    electr: 0-lowe 1-rand  2-diag
   LASPH  =      F    aspherical Exc in radial PAW
 Electronic Relaxation 1
   ENCUT  = 1000.0 eV  73.50 Ry    8.57 a.u.  31.78 31.78 51.57*2*pi/ulx,y,z
   ENINI  = 1000.0     initial cutoff
   ENAUG  =  946.8 eV  augmentation charge cutoff
   NELM   =     60;   NELMIN=  2; NELMDL= -5     # of ELM steps 
   EDIFF  = 0.1E-05   stopping-criterion for ELM
   LREAL  =      F    real-space projection
   NLSPLINE    = F    spline interpolate recip. space projectors
   LCOMPAT=      F    compatible to vasp.4.4
   GGA_COMPAT  = T    GGA compatible to vasp.4.4-vasp.4.6
   LMAXPAW     = -100 max onsite density
   LMAXMIX     =    2 max onsite mixed and CHGCAR
   VOSKOWN=      0    Vosko Wilk Nusair interpolation
   ROPT   =    0.00000   0.00000
 Ionic relaxation
   EDIFFG = 0.1E-04   stopping-criterion for IOM
   NSW    =      0    number of steps for IOM
   NBLOCK =      1;   KBLOCK =      1    inner block; outer block 
   IBRION =     -1    ionic relax: 0-MD 1-quasi-New 2-CG
   NFREE  =      0    steps in history (QN), initial steepest desc. (CG)
   ISIF   =      0    stress and relaxation
   IWAVPR =     10    prediction:  0-non 1-charg 2-wave 3-comb
   ISYM   =      2    0-nonsym 1-usesym 2-fastsym
   LCORR  =      T    Harris-Foulkes like correction to forces

   POTIM  = 0.5000    time-step for ionic-motion
   TEIN   =    0.0    initial temperature
   TEBEG  =    0.0;   TEEND  =   0.0 temperature during run
   SMASS  =  -3.00    Nose mass-parameter (am)
   estimated Nose-frequenzy (Omega)   =  0.10E-29 period in steps = 0.13E+47 mass=  -0.347E-26a.u.
   SCALEE = 1.0000    scale energy and forces
   NPACO  =    256;   APACO  = 16.0  distance and # of slots for P.C.
   PSTRESS=    0.0 pullay stress

  Mass of Ions in am
   POMASS =  12.01 16.00
  Ionic Valenz
   ZVAL   =   4.00  6.00
  Atomic Wigner-Seitz radii
   RWIGS  =  -1.00 -1.00
  virtual crystal weights 
   VCA    =   1.00  1.00
   NELECT =     216.0000    total number of electrons
   NUPDOWN=      -1.0000    fix difference up-down

 DOS related values:
   EMIN   =  10.00;   EMAX   =-10.00  energy-range for DOS
   EFERMI =   0.00
   ISMEAR =     0;   SIGMA  =   0.01  broadening in eV -4-tet -1-fermi 0-gaus

 Electronic relaxation 2 (details)
   IALGO  =     58    algorithm
   LDIAG  =      T    sub-space diagonalisation (order eigenvalues)
   LSUBROT=      F    optimize rotation matrix (better conditioning)
   TURBO    =      0    0=normal 1=particle mesh
   IRESTART =      0    0=no restart 2=restart with 2 vectors
   NREBOOT  =      0    no. of reboots
   NMIN     =      0    reboot dimension
   EREF     =   0.00    reference energy to select bands
   IMIX   =      4    mixing-type and parameters
     AMIX     =   0.40;   BMIX     =  1.00
     AMIX_MAG =   1.60;   BMIX_MAG =  1.00
     AMIN     =   0.10
     WC   =   100.;   INIMIX=   1;  MIXPRE=   1;  MAXMIX= -45

 Intra band minimization:
   WEIMIN = 0.0000     energy-eigenvalue tresh-hold
   EBREAK =  0.18E-08  absolut break condition
   DEPER  =   0.30     relativ break condition  

   TIME   =   0.40     timestep for ELM

  volume/ion in A,a.u.               =      49.64       335.01
  Fermi-wavevector in a.u.,A,eV,Ry     =   0.711510  1.344560  6.887909  0.506247
  Thomas-Fermi vector in A             =   1.798641
 
 Write flags
   LWAVE        =      F    write WAVECAR
   LDOWNSAMPLE  =      F    k-point downsampling of WAVECAR
   LCHARG       =      T    write CHGCAR
   LVTOT        =      F    write LOCPOT, total local potential
   LVHAR        =      F    write LOCPOT, Hartree potential only
   LELF         =      F    write electronic localiz. function (ELF)
   LORBIT       =      0    0 simple, 1 ext, 2 COOP (PROOUT), +10 PAW based schemes


 Dipole corrections
   LMONO  =      F    monopole corrections only (constant potential shift)
   LDIPOL =      F    correct potential (dipole corrections)
   IDIPOL =      0    1-x, 2-y, 3-z, 4-all directions 
   EPSILON=  1.0000000 bulk dielectric constant

 Exchange correlation treatment:
   GGA     =    --    GGA type
   LEXCH   =     8    internal setting for exchange type
   VOSKOWN=      0    Vosko Wilk Nusair interpolation
   LHFCALC =     F    Hartree Fock is set to
   LHFONE  =     F    Hartree Fock one center treatment
   AEXX    =    0.0000 exact exchange contribution

 Linear response parameters
   LEPSILON=     F    determine dielectric tensor
   LRPA    =     F    only Hartree local field effects (RPA)
   LNABLA  =     F    use nabla operator in PAW spheres
   LVEL    =     F    velocity operator in full k-point grid
   LINTERFAST=   F  fast interpolation
   KINTER  =     0    interpolate to denser k-point grid
   CSHIFT  =0.1000    complex shift for real part using Kramers Kronig
   OMEGAMAX=  -1.0    maximum frequency
   DEG_THRESHOLD= 0.2000000E-02 threshold for treating states as degnerate
   RTIME   =   -0.100 relaxation time in fs
  (WPLASMAI=    0.000 imaginary part of plasma frequency in eV, 0.658/RTIME)
   DFIELD  = 0.0000000 0.0000000 0.0000000 field for delta impulse in time
 
 Orbital magnetization related:
   ORBITALMAG=     F  switch on orbital magnetization
   LCHIMAG   =     F  perturbation theory with respect to B field
   DQ        =  0.001000  dq finite difference perturbation B field
   LLRAUG    =     F  two centre corrections for induced B field



--------------------------------------------------------------------------------------------------------


 Static calculation
 charge density and potential will be updated during run
 non-spin polarized calculation
 Conjugate gradient for all bands (Freysoldt, et al. PRB 79, 241103 (2009))
 preconditioned conjugated gradient                                        
 perform sub-space diagonalisation
    before iterative eigenvector-optimisation
 modified Broyden-mixing scheme, WC =      100.0
 initial mixing is a Kerker type mixing with AMIX =  0.4000 and BMIX =      1.0000
 Hartree-type preconditioning will be used
 using additional bands           32
 reciprocal scheme for non local part
 use partial core corrections
 no Harris-corrections to forces 
 use gradient corrections 
 use of overlap-Matrix (Vanderbilt PP)
 Gauss-broadening in eV      SIGMA  =   0.01


--------------------------------------------------------------------------------------------------------


  energy-cutoff  :     1000.00
  volume of cell :     2631.08
      direct lattice vectors                 reciprocal lattice vectors
    12.325000000  0.000000000  0.000000000     0.081135903  0.046843835  0.000000000
    -6.162500000 10.673763102  0.000000000     0.000000000  0.093687670  0.000000000
     0.000000000  0.000000000 20.000000000     0.000000000  0.000000000  0.050000000

  length of vectors
    12.325000000 12.325000000 20.000000000     0.093687670  0.093687670  0.050000000


 
 k-points in units of 2pi/SCALE and weight: auto                                    
   0.00000000  0.00000000  0.00000000       1.000
 
 k-points in reciprocal lattice and weights: auto                                    
   0.00000000  0.00000000  0.00000000       1.000
 
 position of ions in fractional coordinates (direct lattice) 
   0.97245084  0.00032082  0.00070839
   0.03911838  0.13365950  0.00055022
   0.17244363  0.00029545  0.00062454
   0.23909628  0.13364792  0.00032058
   0.97245206  0.20032201  0.00060652
   0.03912836  0.33364377  0.00055519
   0.17245176  0.20035455  0.00027396
   0.23912436  0.33366572  0.00009033
   0.37246557  0.00032440  0.00056739
   0.43913747  0.13361994  0.00032292
   0.97244982  0.40030936  0.00068451
   0.03912498  0.53363679  0.00071676
   0.37241618  0.40032948  0.00000000
   0.43909960  0.53363898  0.00029052
   0.57244368  0.00031213  0.00069947
   0.63911021  0.13363175  0.00068409
   0.97245270  0.60030565  0.00080036
   0.03912449  0.73364036  0.00081814
   0.57243347  0.60030624  0.00050362
   0.63911189  0.73364188  0.00065988
   0.17245463  0.40031823  0.00036131
   0.23912018  0.53363655  0.00047314
   0.37245975  0.20029599  0.00011125
   0.43910710  0.33367342  0.00006970
   0.17245216  0.60031151  0.00065542
   0.23912337  0.73363857  0.00071891
   0.57243108  0.20028917  0.00051662
   0.63911277  0.33361863  0.00057797
   0.37243981  0.60030802  0.00045356
   0.43911609  0.73363786  0.00061774
   0.57246936  0.40032050  0.00042490
   0.63911941  0.53365087  0.00057451
   0.77244572  0.00031543  0.00074520
   0.83911628  0.13364020  0.00071913
   0.77244051  0.20030743  0.00072629
   0.83912024  0.33363573  0.00073183
   0.77244632  0.40029837  0.00072872
   0.83911898  0.53363396  0.00077638
   0.77245614  0.60030817  0.00074464
   0.83911503  0.73364318  0.00078939
   0.97245531  0.80030558  0.00081529
   0.03911471  0.93364329  0.00074756
   0.17245797  0.80031221  0.00077922
   0.23913455  0.93364719  0.00068106
   0.37245140  0.80031667  0.00068925
   0.43912449  0.93364477  0.00067679
   0.57244110  0.80031005  0.00066817
   0.63911507  0.93363899  0.00073456
   0.77244510  0.80031319  0.00075258
   0.83911661  0.93364434  0.00075854
   0.37302101  0.25122688  0.42044821
   0.42087980  0.18931315  0.42366930
   0.32515698  0.31316719  0.41747546
 
 position of ions in cartesian coordinates  (Angst):
  11.98347958  0.00342433  0.01416777
  -0.34154264  1.42664989  0.01100432
   2.12354700  0.00315355  0.01249070
   2.12325634  1.42652621  0.00641170
  10.75098721  2.13818970  0.01213047
  -1.57382270  3.56123457  0.01110375
   0.89078307  2.13853702  0.00547917
   0.89099273  3.56146885  0.00180651
   4.58863896  0.00346260  0.01134782
   4.58893648  1.42622757  0.00645846
   9.51853763  4.27280730  0.01369027
  -2.80632132  5.69591267  0.01433526
   2.12299894  4.27302204  0.00000000
   2.12335237  5.69593607  0.00581036
   7.05344483  0.00333155  0.01398950
   7.05352764  1.42635365  0.01368187
   8.28609598  6.40752033  0.01600723
  -4.03884931  7.83070339  0.01636283
   3.35585531  6.40752662  0.01007237
   3.35598594  7.83071962  0.01319763
  -0.34145776  4.27290193  0.00722612
  -0.34137895  5.69591010  0.00946273
   3.35624236  2.13791198  0.00222492
   3.35573251  3.56155103  0.00139405
  -1.57394684  6.40758280  0.01310850
  -1.57385216  7.83068434  0.01437823
   5.82093107  2.13783916  0.01033241
   5.82114012  3.56096622  0.01155939
   0.89092245  6.40754561  0.00907111
   0.89106251  7.83067670  0.01235474
   4.58870974  4.27292622  0.00849795
   4.58852320  5.69606300  0.01149026
   9.51844972  0.00336679  0.01490402
   9.51855036  1.42644387  0.01438264
   8.28593477  2.13803408  0.01452582
   8.28612680  3.56114872  0.01463668
   7.05356221  4.27268994  0.01457444
   7.05362213  5.69588251  0.01552751
   5.82112285  6.40754723  0.01489279
   5.82101669  7.83073350  0.01578780
   7.05362858  8.54227219  0.01630582
  -5.27148792  9.96548729  0.01495127
  -2.80637951  8.54234295  0.01558431
  -2.80626749  9.96552896  0.01362126
  -0.34148805  8.54239058  0.01378498
  -0.34137657  9.96550309  0.01353576
   2.12342586  8.54231992  0.01336337
   2.12354296  9.96544135  0.01469111
   4.58845581  8.54235337  0.01505154
   4.58852904  9.96549848  0.01517076
   3.04929830  2.68153618  8.40896415
   4.02070129  2.02068374  8.47338601
   2.07766701  3.34267235  8.34950928
 


--------------------------------------------------------------------------------------------------------


 k-point   1 :   0.0000 0.0000 0.0000  plane waves:  189031

 maximum and minimum number of plane-waves per node :     47262    47254

 maximum number of plane-waves:    189031
 maximum index in each direction: 
   IXMAX=   31   IYMAX=   31   IZMAX=   51
   IXMIN=  -31   IYMIN=  -31   IZMIN=  -51


 parallel 3D FFT for wavefunctions:
    minimum data exchange during FFTs selected (reduces bandwidth)
 parallel 3D FFT for charge:
    minimum data exchange during FFTs selected (reduces bandwidth)


 total amount of memory used by VASP MPI-rank0   175916. kBytes
=======================================================================

   base      :      30000. kBytes
   nonl-proj :      46129. kBytes
   fftplans  :      35778. kBytes
   grid      :      52596. kBytes
   one-center:         43. kBytes
   wavefun   :      11370. kBytes
 
     INWAV:  cpu time    0.0000: real time    0.0000
 Broyden mixing: mesh for mixing (old mesh)
   NGX = 63   NGY = 63   NGZ =103
  (NGX  =256   NGY  =256   NGZ  =420)
  gives a total of 408807 points

 initial charge density was supplied:
 charge density of overlapping atoms calculated
 number of electron     216.0000000 magnetization 
 keeping initial charge density in first step


--------------------------------------------------------------------------------------------------------


 Maximum index for augmentation-charges          459 (set IRDMAX)


--------------------------------------------------------------------------------------------------------


 First call to EWALD:  gamma=   0.128
 Maximum number of real-space cells 3x 3x 2
 Maximum number of reciprocal cells 3x 3x 4

    FEWALD:  cpu time    0.0024: real time    0.0024


--------------------------------------- Iteration      1(   1)  ---------------------------------------


    POTLOK:  cpu time    0.2975: real time    0.3003
    SETDIJ:  cpu time    0.0051: real time    0.0052
    TRIAL :  cpu time    4.1740: real time    4.2182
    CORREC:  cpu time    0.0005: real time    0.0008
    --------------------------------------------
      LOOP:  cpu time    4.4792: real time    4.5575

 eigenvalue-minimisations  :   280
 total energy-change (2. order) : 0.2656658E+04  (-0.1114269E+05)
 number of electron     216.0000000 magnetization 
 augmentation part      216.0000000 magnetization 

 Free energy of the ion-electron system (eV)
  ---------------------------------------------------
  alpha Z        PSCENC =        59.93625244
  Ewald energy   TEWEN  =     29491.81118182
  -Hartree energ DENC   =    -35667.26840410
  -exchange      EXHF   =         0.00000000
  -V(xc)+E(xc)   XCENC  =       420.79820079
  PAW double counting   =      6525.96553977    -6260.36035765
  entropy T*S    EENTRO =        -0.00000000
  eigenvalues    EBANDS =      -283.74780781
  atomic energy  EATOM  =      8369.52358910
  ---------------------------------------------------
  free energy    TOTEN  =      2656.65819436 eV

  energy without entropy =     2656.65819436  energy(sigma->0) =     2656.65819436


--------------------------------------------------------------------------------------------------------




--------------------------------------- Iteration      1(   2)  ---------------------------------------


    TRIAL :  cpu time    6.6621: real time    6.7332
    CORREC:  cpu time    0.0001: real time    0.0001
    --------------------------------------------
      LOOP:  cpu time    6.7203: real time    6.7957

 eigenvalue-minimisations  :   504
 total energy-change (2. order) :-0.2481088E+04  (-0.2360537E+04)
 number of electron     216.0000000 magnetization 
 augmentation part      216.0000000 magnetization 

 Free energy of the ion-electron system (eV)
  ---------------------------------------------------
  alpha Z        PSCENC =        59.93625244
  Ewald energy   TEWEN  =     29491.81118182
  -Hartree energ DENC   =    -35667.26840410
  -exchange      EXHF   =         0.00000000
  -V(xc)+E(xc)   XCENC  =       420.79820079
  PAW double counting   =      6525.96553977    -6260.36035765
  entropy T*S    EENTRO =        -0.00000000
  eigenvalues    EBANDS =     -2764.83623297
  atomic energy  EATOM  =      8369.52358910
  ---------------------------------------------------
  free energy    TOTEN  =       175.56976920 eV

  energy without entropy =      175.56976920  energy(sigma->0) =      175.56976920


--------------------------------------------------------------------------------------------------------




--------------------------------------- Iteration      1(   3)  ---------------------------------------


    TRIAL :  cpu time    4.7708: real time    4.8232
    CORREC:  cpu time    0.0001: real time    0.0001
    --------------------------------------------
      LOOP:  cpu time    4.8161: real time    4.8740

 eigenvalue-minimisations  :   336
 total energy-change (2. order) :-0.6596757E+03  (-0.6567654E+03)
 number of electron     216.0000000 magnetization 
 augmentation part      216.0000000 magnetization 

 Free energy of the ion-electron system (eV)
  ---------------------------------------------------
  alpha Z        PSCENC =        59.93625244
  Ewald energy   TEWEN  =     29491.81118182
  -Hartree energ DENC   =    -35667.26840410
  -exchange      EXHF   =         0.00000000
  -V(xc)+E(xc)   XCENC  =       420.79820079
  PAW double counting   =      6525.96553977    -6260.36035765
  entropy T*S    EENTRO =        -0.00000000
  eigenvalues    EBANDS =     -3424.51195833
  atomic energy  EATOM  =      8369.52358910
  ---------------------------------------------------
  free energy    TOTEN  =      -484.10595616 eV

  energy without entropy =     -484.10595616  energy(sigma->0) =     -484.10595616


--------------------------------------------------------------------------------------------------------




--------------------------------------- Iteration      1(   4)  ---------------------------------------


    TRIAL :  cpu time    5.4009: real time    5.4539
    CORREC:  cpu time    0.0001: real time    0.0001
    --------------------------------------------
      LOOP:  cpu time    5.4205: real time    5.4774

 eigenvalue-minimisations  :   392
 total energy-change (2. order) :-0.3322653E+02  (-0.3308811E+02)
 number of electron     216.0000000 magnetization 
 augmentation part      216.0000000 magnetization 

 Free energy of the ion-electron system (eV)
  ---------------------------------------------------
  alpha Z        PSCENC =        59.93625244
  Ewald energy   TEWEN  =     29491.81118182
  -Hartree energ DENC   =    -35667.26840410
  -exchange      EXHF   =         0.00000000
  -V(xc)+E(xc)   XCENC  =       420.79820079
  PAW double counting   =      6525.96553977    -6260.36035765
  entropy T*S    EENTRO =        -0.00000000
  eigenvalues    EBANDS =     -3457.73848702
  atomic energy  EATOM  =      8369.52358910
  ---------------------------------------------------
  free energy    TOTEN  =      -517.33248485 eV

  energy without entropy =     -517.33248485  energy(sigma->0) =     -517.33248485


--------------------------------------------------------------------------------------------------------




--------------------------------------- Iteration      1(   5)  ---------------------------------------


    TRIAL :  cpu time    5.7154: real time    5.7734
    CORREC:  cpu time    0.0001: real time    0.0001
    CHARGE:  cpu time    0.2325: real time    0.2365
    --------------------------------------------
      LOOP:  cpu time    5.9945: real time    6.0831

 eigenvalue-minimisations  :   420
 total energy-change (2. order) :-0.7163258E+00  (-0.7146977E+00)
 number of electron     216.0000000 magnetization 
 augmentation part       -0.2630842 magnetization 

 Free energy of the ion-electron system (eV)
  ---------------------------------------------------
  alpha Z        PSCENC =        59.93625244
  Ewald energy   TEWEN  =     29491.81118182
  -Hartree energ DENC   =    -35667.26840410
  -exchange      EXHF   =         0.00000000
  -V(xc)+E(xc)   XCENC  =       420.79820079
  PAW double counting   =      6525.96553977    -6260.36035765
  entropy T*S    EENTRO =        -0.00000000
  eigenvalues    EBANDS =     -3458.45481280
  atomic energy  EATOM  =      8369.52358910
  ---------------------------------------------------
  free energy    TOTEN  =      -518.04881063 eV

  energy without entropy =     -518.04881063  energy(sigma->0) =     -518.04881063


--------------------------------------------------------------------------------------------------------




--------------------------------------- Iteration      1(   6)  ---------------------------------------


    POTLOK:  cpu time    0.2754: real time    0.2778
    SETDIJ:  cpu time    0.0029: real time    0.0029
    TRIAL :  cpu time    2.0069: real time    2.0277
    CORREC:  cpu time    0.8035: real time    0.8106
    CHARGE:  cpu time    0.2342: real time    0.2360
    --------------------------------------------
      LOOP:  cpu time    3.3825: real time    3.4394

 eigenvalue-minimisations  :     0
 total energy-change (2. order) : 0.5134400E+02  (-0.1549817E+02)
 number of electron     216.0000000 magnetization 
 augmentation part       -0.3648645 magnetization 

 Free energy of the ion-electron system (eV)
  ---------------------------------------------------
  alpha Z        PSCENC =        59.93625244
  Ewald energy   TEWEN  =     29491.81118182
  -Hartree energ DENC   =    -37076.79182388
  -exchange      EXHF   =         0.00000000
  -V(xc)+E(xc)   XCENC  =       469.00761521
  PAW double counting   =     89490.61174082   -89233.29335415
  entropy T*S    EENTRO =        -0.00000000
  eigenvalues    EBANDS =     -2037.51001432
  atomic energy  EATOM  =      8369.52358910
  ---------------------------------------------------
  free energy    TOTEN  =      -466.70481297 eV

  energy without entropy =     -466.70481297  energy(sigma->0) =     -466.70481297


--------------------------------------------------------------------------------------------------------




--------------------------------------- Iteration      1(   7)  ---------------------------------------


    POTLOK:  cpu time    0.2738: real time    0.2765
    SETDIJ:  cpu time    0.0029: real time    0.0029
    TRIAL :  cpu time    1.9989: real time    2.0200
    CORREC:  cpu time    0.8047: real time    0.8115
    CHARGE:  cpu time    0.2339: real time    0.2357
    --------------------------------------------
      LOOP:  cpu time    3.3839: real time    3.4415

 eigenvalue-minimisations  :     0
 total energy-change (2. order) :-0.1554266E+02  (-0.1811508E+01)
 number of electron     216.0000000 magnetization 
 augmentation part       -0.4121593 magnetization 

 Free energy of the ion-electron system (eV)
  ---------------------------------------------------
  alpha Z        PSCENC =        59.93625244
  Ewald energy   TEWEN  =     29491.81118182
  -Hartree energ DENC   =    -36577.66084933
  -exchange      EXHF   =         0.00000000
  -V(xc)+E(xc)   XCENC  =       451.90290458
  PAW double counting   =    105640.71243647  -105380.56580731
  entropy T*S    EENTRO =        -0.00000000
  eigenvalues    EBANDS =     -2537.90717985
  atomic energy  EATOM  =      8369.52358910
  ---------------------------------------------------
  free energy    TOTEN  =      -482.24747208 eV

  energy without entropy =     -482.24747208  energy(sigma->0) =     -482.24747208


--------------------------------------------------------------------------------------------------------




--------------------------------------- Iteration      1(   8)  ---------------------------------------


    POTLOK:  cpu time    0.2759: real time    0.2781
    SETDIJ:  cpu time    0.0029: real time    0.0029
    TRIAL :  cpu time    1.9974: real time    2.0193
    CORREC:  cpu time    0.8025: real time    0.8092
    CHARGE:  cpu time    0.2335: real time    0.2353
    --------------------------------------------
      LOOP:  cpu time    3.3704: real time    3.4253

 eigenvalue-minimisations  :     0
 total energy-change (2. order) :-0.1809735E+01  (-0.4635445E+00)
 number of electron     216.0000000 magnetization 
 augmentation part       -0.4291735 magnetization 

 Free energy of the ion-electron system (eV)
  ---------------------------------------------------
  alpha Z        PSCENC =        59.93625244
  Ewald energy   TEWEN  =     29491.81118182
  -Hartree energ DENC   =    -36548.45477713
  -exchange      EXHF   =         0.00000000
  -V(xc)+E(xc)   XCENC  =       451.32492998
  PAW double counting   =    110037.15780147  -109776.60039522
  entropy T*S    EENTRO =        -0.00000000
  eigenvalues    EBANDS =     -2568.75578943
  atomic energy  EATOM  =      8369.52358910
  ---------------------------------------------------
  free energy    TOTEN  =      -484.05720697 eV

  energy without entropy =     -484.05720697  energy(sigma->0) =     -484.05720697


--------------------------------------------------------------------------------------------------------




--------------------------------------- Iteration      1(   9)  ---------------------------------------


    POTLOK:  cpu time    0.2749: real time    0.2770
    SETDIJ:  cpu time    0.0030: real time    0.0030
    TRIAL :  cpu time    1.9942: real time    2.0235
    CORREC:  cpu time    0.8064: real time    0.8133
    CHARGE:  cpu time    0.2343: real time    0.2361
    --------------------------------------------
      LOOP:  cpu time    3.3710: real time    3.4147

 eigenvalue-minimisations  :     0
 total energy-change (2. order) :-0.4634700E+00  (-0.1488075E+00)
 number of electron     216.0000000 magnetization 
 augmentation part       -0.4369361 magnetization 

 Free energy of the ion-electron system (eV)
  ---------------------------------------------------
  alpha Z        PSCENC =        59.93625244
  Ewald energy   TEWEN  =     29491.81118182
  -Hartree energ DENC   =    -36564.99226909
  -exchange      EXHF   =         0.00000000
  -V(xc)+E(xc)   XCENC  =       451.55437182
  PAW double counting   =    112843.02662139  -112582.31966672
  entropy T*S    EENTRO =        -0.00000000
  eigenvalues    EBANDS =     -2553.06075777
  atomic energy  EATOM  =      8369.52358910
  ---------------------------------------------------
  free energy    TOTEN  =      -484.52067701 eV

  energy without entropy =     -484.52067701  energy(sigma->0) =     -484.52067701


--------------------------------------------------------------------------------------------------------




--------------------------------------- Iteration      1(  10)  ---------------------------------------


    POTLOK:  cpu time    0.2740: real time    0.2761
    SETDIJ:  cpu time    0.0029: real time    0.0029
    TRIAL :  cpu time    2.0020: real time    2.0222
    CORREC:  cpu time    0.8058: real time    0.8129
    CHARGE:  cpu time    0.2342: real time    0.2360
    --------------------------------------------
      LOOP:  cpu time    3.3638: real time    3.3976

 eigenvalue-minimisations  :     0
 total energy-change (2. order) :-0.1486494E+00  (-0.6046978E-01)
 number of electron     216.0000000 magnetization 
 augmentation part       -0.4378381 magnetization 

 Free energy of the ion-electron system (eV)
  ---------------------------------------------------
  alpha Z        PSCENC =        59.93625244
  Ewald energy   TEWEN  =     29491.81118182
  -Hartree energ DENC   =    -36566.24351625
  -exchange      EXHF   =         0.00000000
  -V(xc)+E(xc)   XCENC  =       451.48402234
  PAW double counting   =    113393.62429012  -113132.83051749
  entropy T*S    EENTRO =        -0.00000000
  eigenvalues    EBANDS =     -2551.97462852
  atomic energy  EATOM  =      8369.52358910
  ---------------------------------------------------
  free energy    TOTEN  =      -484.66932643 eV

  energy without entropy =     -484.66932643  energy(sigma->0) =     -484.66932643


--------------------------------------------------------------------------------------------------------




--------------------------------------- Iteration      1(  11)  ---------------------------------------


    POTLOK:  cpu time    0.2730: real time    0.2749
    SETDIJ:  cpu time    0.0028: real time    0.0028
    TRIAL :  cpu time    2.0010: real time    2.0215
    CORREC:  cpu time    0.8021: real time    0.8091
    CHARGE:  cpu time    0.2343: real time    0.2361
    --------------------------------------------
      LOOP:  cpu time    3.3384: real time    3.4252

 eigenvalue-minimisations  :     0
 total energy-change (2. order) :-0.6036165E-01  (-0.2545476E-01)
 number of electron     216.0000000 magnetization 
 augmentation part       -0.4375584 magnetization 

 Free energy of the ion-electron system (eV)
  ---------------------------------------------------
  alpha Z        PSCENC =        59.93625244
  Ewald energy   TEWEN  =     29491.81118182
  -Hartree energ DENC   =    -36562.23571888
  -exchange      EXHF   =         0.00000000
  -V(xc)+E(xc)   XCENC  =       451.42792123
  PAW double counting   =    112959.85513947  -112699.05795311
  entropy T*S    EENTRO =        -0.00000000
  eigenvalues    EBANDS =     -2555.99010016
  atomic energy  EATOM  =      8369.52358910
  ---------------------------------------------------
  free energy    TOTEN  =      -484.72968809 eV

  energy without entropy =     -484.72968809  energy(sigma->0) =     -484.72968809


--------------------------------------------------------------------------------------------------------




--------------------------------------- Iteration      1(  12)  ---------------------------------------


    POTLOK:  cpu time    0.2748: real time    0.2767
    SETDIJ:  cpu time    0.0031: real time    0.0031
    TRIAL :  cpu time    1.9989: real time    2.0190
    CORREC:  cpu time    0.8084: real time    0.8156
    CHARGE:  cpu time    0.2340: real time    0.2360
    --------------------------------------------
      LOOP:  cpu time    3.3821: real time    3.4147

 eigenvalue-minimisations  :     0
 total energy-change (2. order) :-0.2536889E-01  (-0.9001606E-02)
 number of electron     216.0000000 magnetization 
 augmentation part       -0.4377374 magnetization 

 Free energy of the ion-electron system (eV)
  ---------------------------------------------------
  alpha Z        PSCENC =        59.93625244
  Ewald energy   TEWEN  =     29491.81118182
  -Hartree energ DENC   =    -36560.38079650
  -exchange      EXHF   =         0.00000000
  -V(xc)+E(xc)   XCENC  =       451.39149840
  PAW double counting   =    112576.66684962  -112315.89081080
  entropy T*S    EENTRO =        -0.00000000
  eigenvalues    EBANDS =     -2557.81282105
  atomic energy  EATOM  =      8369.52358910
  ---------------------------------------------------
  free energy    TOTEN  =      -484.75505698 eV

  energy without entropy =     -484.75505698  energy(sigma->0) =     -484.75505698


--------------------------------------------------------------------------------------------------------




--------------------------------------- Iteration      1(  13)  ---------------------------------------


    POTLOK:  cpu time    0.2730: real time    0.2752
    SETDIJ:  cpu time    0.0030: real time    0.0030
    TRIAL :  cpu time    2.0007: real time    2.0213
    CORREC:  cpu time    0.8007: real time    0.8081
    CHARGE:  cpu time    0.2340: real time    0.2360
    --------------------------------------------
      LOOP:  cpu time    3.3543: real time    3.3877

 eigenvalue-minimisations  :     0
 total energy-change (2. order) :-0.8983289E-02  (-0.2681794E-02)
 number of electron     216.0000000 magnetization 
 augmentation part       -0.4373494 magnetization 

 Free energy of the ion-electron system (eV)
  ---------------------------------------------------
  alpha Z        PSCENC =        59.93625244
  Ewald energy   TEWEN  =     29491.81118182
  -Hartree energ DENC   =    -36560.44411578
  -exchange      EXHF   =         0.00000000
  -V(xc)+E(xc)   XCENC  =       451.38285324
  PAW double counting   =    112457.74917034  -112196.98364878
  entropy T*S    EENTRO =        -0.00000000
  eigenvalues    EBANDS =     -2557.73932264
  atomic energy  EATOM  =      8369.52358910
  ---------------------------------------------------
  free energy    TOTEN  =      -484.76404027 eV

  energy without entropy =     -484.76404027  energy(sigma->0) =     -484.76404027


--------------------------------------------------------------------------------------------------------




--------------------------------------- Iteration      1(  14)  ---------------------------------------


    POTLOK:  cpu time    0.2735: real time    0.2754
    SETDIJ:  cpu time    0.0028: real time    0.0028
    TRIAL :  cpu time    2.0013: real time    2.0215
    CORREC:  cpu time    0.8012: real time    0.8087
    CHARGE:  cpu time    0.2334: real time    0.2352
    --------------------------------------------
      LOOP:  cpu time    3.3918: real time    3.4265

 eigenvalue-minimisations  :     0
 total energy-change (2. order) :-0.2682007E-02  (-0.8027618E-03)
 number of electron     216.0000000 magnetization 
 augmentation part       -0.4370895 magnetization 

 Free energy of the ion-electron system (eV)
  ---------------------------------------------------
  alpha Z        PSCENC =        59.93625244
  Ewald energy   TEWEN  =     29491.81118182
  -Hartree energ DENC   =    -36560.47510099
  -exchange      EXHF   =         0.00000000
  -V(xc)+E(xc)   XCENC  =       451.38223978
  PAW double counting   =    112496.99321388  -112236.23041536
  entropy T*S    EENTRO =        -0.00000000
  eigenvalues    EBANDS =     -2557.70768295
  atomic energy  EATOM  =      8369.52358910
  ---------------------------------------------------
  free energy    TOTEN  =      -484.76672227 eV

  energy without entropy =     -484.76672227  energy(sigma->0) =     -484.76672227


--------------------------------------------------------------------------------------------------------




--------------------------------------- Iteration      1(  15)  ---------------------------------------


    POTLOK:  cpu time    0.2749: real time    0.2768
    SETDIJ:  cpu time    0.0030: real time    0.0030
    TRIAL :  cpu time    1.9956: real time    2.0189
    CORREC:  cpu time    0.8007: real time    0.8080
    CHARGE:  cpu time    0.2335: real time    0.2354
    --------------------------------------------
      LOOP:  cpu time    3.3634: real time    3.3996

 eigenvalue-minimisations  :     0
 total energy-change (2. order) :-0.8046609E-03  (-0.3076214E-03)
 number of electron     216.0000000 magnetization 
 augmentation part       -0.4367162 magnetization 

 Free energy of the ion-electron system (eV)
  ---------------------------------------------------
  alpha Z        PSCENC =        59.93625244
  Ewald energy   TEWEN  =     29491.81118182
  -Hartree energ DENC   =    -36560.11898201
  -exchange      EXHF   =         0.00000000
  -V(xc)+E(xc)   XCENC  =       451.36612800
  PAW double counting   =    112528.50234552  -112267.73746387
  entropy T*S    EENTRO =        -0.00000000
  eigenvalues    EBANDS =     -2558.05057792
  atomic energy  EATOM  =      8369.52358910
  ---------------------------------------------------
  free energy    TOTEN  =      -484.76752693 eV

  energy without entropy =     -484.76752693  energy(sigma->0) =     -484.76752693


--------------------------------------------------------------------------------------------------------




--------------------------------------- Iteration      1(  16)  ---------------------------------------


    POTLOK:  cpu time    0.2725: real time    0.2745
    SETDIJ:  cpu time    0.0031: real time    0.0031
    TRIAL :  cpu time    1.9888: real time    2.0195
    CORREC:  cpu time    0.7955: real time    0.8080
    CHARGE:  cpu time    0.2305: real time    0.2348
    --------------------------------------------
      LOOP:  cpu time    3.3079: real time    3.4131

 eigenvalue-minimisations  :     0
 total energy-change (2. order) :-0.3089875E-03  (-0.1211813E-03)
 number of electron     216.0000000 magnetization 
 augmentation part       -0.4365251 magnetization 

 Free energy of the ion-electron system (eV)
  ---------------------------------------------------
  alpha Z        PSCENC =        59.93625244
  Ewald energy   TEWEN  =     29491.81118182
  -Hartree energ DENC   =    -36560.26940754
  -exchange      EXHF   =         0.00000000
  -V(xc)+E(xc)   XCENC  =       451.37222214
  PAW double counting   =    112503.78672968  -112243.02284662
  entropy T*S    EENTRO =        -0.00000000
  eigenvalues    EBANDS =     -2557.90555694
  atomic energy  EATOM  =      8369.52358910
  ---------------------------------------------------
  free energy    TOTEN  =      -484.76783592 eV

  energy without entropy =     -484.76783592  energy(sigma->0) =     -484.76783592


--------------------------------------------------------------------------------------------------------




--------------------------------------- Iteration      1(  17)  ---------------------------------------


    POTLOK:  cpu time    0.2727: real time    0.2758
    SETDIJ:  cpu time    0.0030: real time    0.0030
    TRIAL :  cpu time    1.9865: real time    2.0200
    CORREC:  cpu time    0.8020: real time    0.8097
    CHARGE:  cpu time    0.2328: real time    0.2348
    --------------------------------------------
      LOOP:  cpu time    3.3258: real time    3.3730

 eigenvalue-minimisations  :     0
 total energy-change (2. order) :-0.1219903E-03  (-0.4927571E-04)
 number of electron     216.0000000 magnetization 
 augmentation part       -0.4365247 magnetization 

 Free energy of the ion-electron system (eV)
  ---------------------------------------------------
  alpha Z        PSCENC =        59.93625244
  Ewald energy   TEWEN  =     29491.81118182
  -Hartree energ DENC   =    -36560.37034279
  -exchange      EXHF   =         0.00000000
  -V(xc)+E(xc)   XCENC  =       451.37513711
  PAW double counting   =    112468.22164751  -112207.45806078
  entropy T*S    EENTRO =        -0.00000000
  eigenvalues    EBANDS =     -2557.80736232
  atomic energy  EATOM  =      8369.52358910
  ---------------------------------------------------
  free energy    TOTEN  =      -484.76795791 eV

  energy without entropy =     -484.76795791  energy(sigma->0) =     -484.76795791


--------------------------------------------------------------------------------------------------------




--------------------------------------- Iteration      1(  18)  ---------------------------------------


    POTLOK:  cpu time    0.2708: real time    0.2727
    SETDIJ:  cpu time    0.0031: real time    0.0031
    TRIAL :  cpu time    1.9957: real time    2.0213
    CORREC:  cpu time    0.8111: real time    0.8182
    CHARGE:  cpu time    0.2336: real time    0.2356
    --------------------------------------------
      LOOP:  cpu time    3.3825: real time    3.4346

 eigenvalue-minimisations  :     0
 total energy-change (2. order) :-0.4944987E-04  (-0.1814393E-04)
 number of electron     216.0000000 magnetization 
 augmentation part       -0.4366136 magnetization 

 Free energy of the ion-electron system (eV)
  ---------------------------------------------------
  alpha Z        PSCENC =        59.93625244
  Ewald energy   TEWEN  =     29491.81118182
  -Hartree energ DENC   =    -36560.38218995
  -exchange      EXHF   =         0.00000000
  -V(xc)+E(xc)   XCENC  =       451.37531247
  PAW double counting   =    112454.83567798  -112194.07175225
  entropy T*S    EENTRO =        -0.00000000
  eigenvalues    EBANDS =     -2557.79607897
  atomic energy  EATOM  =      8369.52358910
  ---------------------------------------------------
  free energy    TOTEN  =      -484.76800736 eV

  energy without entropy =     -484.76800736  energy(sigma->0) =     -484.76800736


--------------------------------------------------------------------------------------------------------




--------------------------------------- Iteration      1(  19)  ---------------------------------------


    POTLOK:  cpu time    0.2716: real time    0.2736
    SETDIJ:  cpu time    0.0028: real time    0.0028
    TRIAL :  cpu time    2.0063: real time    2.0273
    CORREC:  cpu time    0.8033: real time    0.8105
    CHARGE:  cpu time    0.2334: real time    0.2353
    --------------------------------------------
      LOOP:  cpu time    3.3686: real time    3.4021

 eigenvalue-minimisations  :     0
 total energy-change (2. order) :-0.1783167E-04  (-0.6405808E-05)
 number of electron     216.0000000 magnetization 
 augmentation part       -0.4366918 magnetization 

 Free energy of the ion-electron system (eV)
  ---------------------------------------------------
  alpha Z        PSCENC =        59.93625244
  Ewald energy   TEWEN  =     29491.81118182
  -Hartree energ DENC   =    -36560.38785508
  -exchange      EXHF   =         0.00000000
  -V(xc)+E(xc)   XCENC  =       451.37559685
  PAW double counting   =    112459.48984084  -112198.72556418
  entropy T*S    EENTRO =        -0.00000000
  eigenvalues    EBANDS =     -2557.79106698
  atomic energy  EATOM  =      8369.52358910
  ---------------------------------------------------
  free energy    TOTEN  =      -484.76802519 eV

  energy without entropy =     -484.76802519  energy(sigma->0) =     -484.76802519


--------------------------------------------------------------------------------------------------------




--------------------------------------- Iteration      1(  20)  ---------------------------------------


    POTLOK:  cpu time    0.2705: real time    0.2726
    SETDIJ:  cpu time    0.0031: real time    0.0031
    TRIAL :  cpu time    1.9992: real time    2.0197
    CORREC:  cpu time    0.8019: real time    0.8087
    CHARGE:  cpu time    0.2333: real time    0.2351
    --------------------------------------------
      LOOP:  cpu time    3.3428: real time    3.4280

 eigenvalue-minimisations  :     0
 total energy-change (2. order) :-0.6082540E-05  (-0.2389123E-05)
 number of electron     216.0000000 magnetization 
 augmentation part       -0.4367145 magnetization 

 Free energy of the ion-electron system (eV)
  ---------------------------------------------------
  alpha Z        PSCENC =        59.93625244
  Ewald energy   TEWEN  =     29491.81118182
  -Hartree energ DENC   =    -36560.38903570
  -exchange      EXHF   =         0.00000000
  -V(xc)+E(xc)   XCENC  =       451.37536147
  PAW double counting   =    112465.52064292  -112204.75611170
  entropy T*S    EENTRO =        -0.00000000
  eigenvalues    EBANDS =     -2557.78991162
  atomic energy  EATOM  =      8369.52358910
  ---------------------------------------------------
  free energy    TOTEN  =      -484.76803128 eV

  energy without entropy =     -484.76803128  energy(sigma->0) =     -484.76803128


--------------------------------------------------------------------------------------------------------




--------------------------------------- Iteration      1(  21)  ---------------------------------------


    POTLOK:  cpu time    0.2723: real time    0.2742
    SETDIJ:  cpu time    0.0030: real time    0.0030
    TRIAL :  cpu time    1.9984: real time    2.0191
    CORREC:  cpu time    0.8029: real time    0.8101
    CHARGE:  cpu time    0.2336: real time    0.2354
    --------------------------------------------
      LOOP:  cpu time    3.3503: real time    3.3832

 eigenvalue-minimisations  :     0
 total energy-change (2. order) :-0.2167479E-05  (-0.9913423E-06)
 number of electron     216.0000000 magnetization 
 augmentation part       -0.4367215 magnetization 

 Free energy of the ion-electron system (eV)
  ---------------------------------------------------
  alpha Z        PSCENC =        59.93625244
  Ewald energy   TEWEN  =     29491.81118182
  -Hartree energ DENC   =    -36560.40065097
  -exchange      EXHF   =         0.00000000
  -V(xc)+E(xc)   XCENC  =       451.37587119
  PAW double counting   =    112467.20411094  -112206.43966572
  entropy T*S    EENTRO =        -0.00000000
  eigenvalues    EBANDS =     -2557.77872224
  atomic energy  EATOM  =      8369.52358910
  ---------------------------------------------------
  free energy    TOTEN  =      -484.76803344 eV

  energy without entropy =     -484.76803344  energy(sigma->0) =     -484.76803344


--------------------------------------------------------------------------------------------------------




--------------------------------------- Iteration      1(  22)  ---------------------------------------


    POTLOK:  cpu time    0.2714: real time    0.2734
    SETDIJ:  cpu time    0.0028: real time    0.0028
    TRIAL :  cpu time    1.9988: real time    2.0192
    CORREC:  cpu time    0.8030: real time    0.8101
    EDDIAG:  cpu time    0.4566: real time    0.4615
    CHARGE:  cpu time    0.2339: real time    0.2359
    --------------------------------------------
      LOOP:  cpu time    3.8564: real time    3.9122

 eigenvalue-minimisations  :     0
 total energy-change (2. order) :-0.9596552E-06  (-0.4163577E-06)
 number of electron     216.0000000 magnetization 
 augmentation part       -0.4367115 magnetization 

 Free energy of the ion-electron system (eV)
  ---------------------------------------------------
  alpha Z        PSCENC =        59.93625244
  Ewald energy   TEWEN  =     29491.81118182
  -Hartree energ DENC   =    -36560.38999319
  -exchange      EXHF   =         0.00000000
  -V(xc)+E(xc)   XCENC  =       451.37534667
  PAW double counting   =    112466.54084968  -112205.77638092
  entropy T*S    EENTRO =        -0.00000000
  eigenvalues    EBANDS =     -2557.78888000
  atomic energy  EATOM  =      8369.52358910
  ---------------------------------------------------
  free energy    TOTEN  =      -484.76803440 eV

  energy without entropy =     -484.76803440  energy(sigma->0) =     -484.76803440


--------------------------------------------------------------------------------------------------------


  average scaling for gradient   0.9290


 average (electrostatic) potential at core
  the test charge radii are     0.5770  0.5955
  (the norm of the test charge is              1.0000)
       1 -85.2909       2 -85.2905       3 -85.2909       4 -85.2915       5 -85.2899
       6 -85.2900       7 -85.2909       8 -85.2898       9 -85.2902      10 -85.2903
      11 -85.2899      12 -85.2899      13 -85.2903      14 -85.2902      15 -85.2898
      16 -85.2900      17 -85.2904      18 -85.2906      19 -85.2909      20 -85.2904
      21 -85.2898      22 -85.2897      23 -85.2919      24 -85.2918      25 -85.2898
      26 -85.2899      27 -85.2902      28 -85.2910      29 -85.2898      30 -85.2898
      31 -85.2912      32 -85.2907      33 -85.2900      34 -85.2900      35 -85.2900
      36 -85.2901      37 -85.2906      38 -85.2907      39 -85.2906      40 -85.2906
      41 -85.2906      42 -85.2906      43 -85.2904      44 -85.2909      45 -85.2899
      46 -85.2899      47 -85.2899      48 -85.2899      49 -85.2907      50 -85.2905
      51 -89.2286      52-120.0080      53-120.0075
 
 
 
 E-fermi :  -3.9082     XC(G=0):  -2.4299     alpha+bet : -2.1113

 Fermi energy:        -3.9082206067

 k-point     1 :       0.0000    0.0000    0.0000
  band No.  band energies     occupation 
      1     -27.3299      2.00000
      2     -26.3246      2.00000
      3     -22.0403      2.00000
      4     -21.1010      2.00000
      5     -21.0996      2.00000
      6     -21.0994      2.00000
      7     -21.0992      2.00000
      8     -21.0991      2.00000
      9     -21.0985      2.00000
     10     -19.2559      2.00000
     11     -19.2559      2.00000
     12     -19.2556      2.00000
     13     -19.2549      2.00000
     14     -19.2544      2.00000
     15     -19.2542      2.00000
     16     -18.3580      2.00000
     17     -18.3578      2.00000
     18     -18.3574      2.00000
     19     -18.3572      2.00000
     20     -18.3564      2.00000
     21     -18.3562      2.00000
     22     -16.1900      2.00000
     23     -16.1896      2.00000
     24     -16.1889      2.00000
     25     -16.1888      2.00000
     26     -16.1882      2.00000
     27     -16.1881      2.00000
     28     -15.2042      2.00000
     29     -15.2041      2.00000
     30     -15.2031      2.00000
     31     -15.2029      2.00000
     32     -15.2026      2.00000
     33     -15.2025      2.00000
     34     -13.8505      2.00000
     35     -13.8504      2.00000
     36     -13.8498      2.00000
     37     -13.8497      2.00000
     38     -13.8496      2.00000
     39     -13.8493      2.00000
     40     -12.1332      2.00000
     41     -11.4616      2.00000
     42     -11.4613      2.00000
     43     -11.4609      2.00000
     44     -11.4608      2.00000
     45     -11.4597      2.00000
     46     -11.4594      2.00000
     47     -11.3646      2.00000
     48     -11.3645      2.00000
     49     -11.3638      2.00000
     50     -11.3637      2.00000
     51     -11.3636      2.00000
     52     -11.3635      2.00000
     53     -10.9436      2.00000
     54     -10.8791      2.00000
     55     -10.8790      2.00000
     56     -10.1321      2.00000
     57      -9.9875      2.00000
     58      -9.9874      2.00000
     59      -9.9858      2.00000
     60      -9.9855      2.00000
     61      -9.9853      2.00000
     62      -9.9852      2.00000
     63      -9.0163      2.00000
     64      -9.0152      2.00000
     65      -9.0150      2.00000
     66      -9.0148      2.00000
     67      -9.0146      2.00000
     68      -9.0144      2.00000
     69      -8.7078      2.00000
     70      -8.7066      2.00000
     71      -8.7063      2.00000
     72      -8.7062      2.00000
     73      -8.7059      2.00000
     74      -8.7056      2.00000
     75      -8.6590      2.00000
     76      -8.6587      2.00000
     77      -8.6579      2.00000
     78      -8.6578      2.00000
     79      -8.6577      2.00000
     80      -8.6569      2.00000
     81      -7.3324      2.00000
     82      -7.3323      2.00000
     83      -7.0514      2.00000
     84      -7.0497      2.00000
     85      -7.0496      2.00000
     86      -7.0492      2.00000
     87      -7.0483      2.00000
     88      -7.0483      2.00000
     89      -6.8864      2.00000
     90      -6.8862      2.00000
     91      -6.8860      2.00000
     92      -6.8856      2.00000
     93      -6.8852      2.00000
     94      -6.8850      2.00000
     95      -5.9898      2.00000
     96      -5.9897      2.00000
     97      -5.9894      2.00000
     98      -5.9893      2.00000
     99      -5.9887      2.00000
    100      -5.9885      2.00000
    101      -5.5619      2.00000
    102      -5.5597      2.00000
    103      -4.0069      2.00000
    104      -4.0065      2.00000
    105      -4.0060      2.00000
    106      -4.0059      2.00000
    107      -4.0054      2.00000
    108      -4.0053      2.00000
    109      -1.2038      0.00000
    110      -1.2037      0.00000
    111      -1.2034      0.00000
    112      -1.2032      0.00000
    113      -1.2025      0.00000
    114      -1.2023      0.00000
    115       0.6334      0.00000
    116       0.6604      0.00000
    117       0.6606      0.00000
    118       0.6610      0.00000
    119       0.6611      0.00000
    120       0.6614      0.00000
    121       0.6626      0.00000
    122       0.8217      0.00000
    123       1.1594      0.00000
    124       1.5239      0.00000
    125       1.9381      0.00000
    126       2.0108      0.00000
    127       2.0117      0.00000
    128       2.0213      0.00000
    129       2.0288      0.00000
    130       2.1752      0.00000
    131       2.2453      0.00000
    132       2.4013      0.00000
    133       2.4019      0.00000
    134       2.4024      0.00000
    135       2.4066      0.00000
    136       2.4070      0.00000
    137       2.8161      0.00000
    138       2.9839      0.00000
    139       3.0383      0.00000
    140       3.4513      0.00000


--------------------------------------------------------------------------------------------------------


 soft charge-density along one line, spin component           1
         0         1         2         3         4         5         6         7         8         9
 total charge-density along one line
 
 pseudopotential strength for first ion, spin component:           1
 12.690  21.354   0.000   0.000   0.000   0.000   0.000   0.000
 21.354  35.932   0.000   0.000   0.000   0.000   0.000   0.000
  0.000   0.000  -3.164  -0.000   0.000  -5.672  -0.000   0.000
  0.000   0.000  -0.000  -3.166  -0.000  -0.000  -5.673  -0.000
  0.000   0.000   0.000  -0.000  -3.164   0.000  -0.000  -5.672
  0.000   0.000  -5.672  -0.000   0.000 -10.143  -0.000   0.000
  0.000   0.000  -0.000  -5.673  -0.000  -0.000 -10.146  -0.000
  0.000   0.000   0.000  -0.000  -5.672   0.000  -0.000 -10.143
 total augmentation occupancy for first ion, spin component:           1
  7.880  -2.765  -0.000  -0.002  -0.000   0.000   0.001   0.000
 -2.765   1.007   0.000   0.001   0.000  -0.000  -0.000  -0.000
 -0.000   0.000   7.264  -0.008   0.000  -2.462   0.003  -0.000
 -0.002   0.001  -0.008   3.235  -0.000   0.003  -0.862   0.000
 -0.000   0.000   0.000  -0.000   7.264  -0.000   0.000  -2.462
  0.000  -0.000  -2.462   0.003  -0.000   0.849  -0.001   0.000
  0.001  -0.000   0.003  -0.862   0.000  -0.001   0.236  -0.000
  0.000  -0.000  -0.000   0.000  -2.462   0.000  -0.000   0.849


------------------------ aborting loop because EDIFF is reached ----------------------------------------


    FORLOC:  cpu time    0.0504: real time    0.0509
    FORNL :  cpu time    0.7581: real time    0.7675
    FORCOR:  cpu time    0.2917: real time    0.2938
    OFIELD:  cpu time    0.0014: real time    0.0015

 ---------------------------------------------------------------------------------------------

         DFTD3 V3.0 Rev 1        
 IVDW         = 11
 DF pbe       
 parameters
 VDW_S6       =    1.0000
 VDW_S8       =    0.7220
 VDW_SR       =    1.2170
 rs18     =    1.0000
 alpha6   =   14.0000
 alpha8   =   16.0000
 k1-k3    =   16.0000    1.3333   -4.0000
 VDW_RADIUS   =   50.2022 A
 VDW_CNRADIUS =   21.1671 A
 Edisp (eV)   -1.72662

 E6    (eV) :    -0.9729
 E8    (eV) :    -0.7537
 % E8        : 43.65
    FORVDW:  cpu time    0.1817: real time    0.1832

 VOLUME and BASIS-vectors are now :
 -----------------------------------------------------------------------------
  energy-cutoff  :     1000.00
  volume of cell :     2631.08
      direct lattice vectors                 reciprocal lattice vectors
    12.325000000  0.000000000  0.000000000     0.081135903  0.046843835  0.000000000
    -6.162500000 10.673763102  0.000000000     0.000000000  0.093687670  0.000000000
     0.000000000  0.000000000 20.000000000     0.000000000  0.000000000  0.050000000

  length of vectors
    12.325000000 12.325000000 20.000000000     0.093687670  0.093687670  0.050000000


 FORCES acting on ions:
    Electron-Ion                     Ewald-Force                    Non-Local-Force
 -----------------------------------------------------------------------------------------------
   0.725E+00 0.640E+00 0.628E+01   -.726E+00 -.641E+00 -.628E+01   0.433E-02 -.609E-03 0.571E-02
   0.989E+00 0.543E+00 0.720E+01   -.993E+00 -.540E+00 -.720E+01   0.281E-02 -.304E-02 -.586E-02
   0.396E+00 0.108E+01 0.711E+01   -.398E+00 -.108E+01 -.712E+01   -.305E-04 0.113E-01 -.195E-02
   0.495E+00 0.718E+00 0.917E+01   -.493E+00 -.717E+00 -.917E+01   0.114E-01 0.740E-03 -.161E-01
   0.806E+00 0.212E+00 0.672E+01   -.805E+00 -.213E+00 -.672E+01   -.710E-03 -.518E-02 0.389E-02
   0.822E+00 -.187E+00 0.689E+01   -.825E+00 0.189E+00 -.689E+01   -.637E-02 0.356E-02 -.193E-02
   0.944E+00 0.414E+00 0.926E+01   -.945E+00 -.415E+00 -.926E+01   0.114E-01 -.188E-01 -.700E-02
   0.968E+00 -.306E+00 0.104E+02   -.972E+00 0.308E+00 -.104E+02   -.751E-02 -.504E-02 -.567E-02
   -.469E+00 0.106E+01 0.755E+01   0.472E+00 -.106E+01 -.755E+01   0.286E-03 -.133E-01 -.483E-02
   -.595E+00 0.524E+00 0.950E+01   0.595E+00 -.525E+00 -.949E+01   -.254E-01 0.145E-01 0.168E-02
   0.211E+00 -.223E+00 0.611E+01   -.208E+00 0.222E+00 -.611E+01   0.393E-02 -.280E-02 0.967E-03
   0.212E+00 -.176E+00 0.595E+01   -.212E+00 0.176E+00 -.596E+01   -.648E-02 0.325E-02 0.682E-02
   0.274E+00 -.753E+00 0.112E+02   -.274E+00 0.754E+00 -.111E+02   0.261E-01 -.728E-02 -.280E-02
   0.177E+00 -.116E+01 0.869E+01   -.181E+00 0.116E+01 -.868E+01   0.335E-02 0.703E-02 -.158E-01
   -.764E+00 0.457E+00 0.635E+01   0.766E+00 -.458E+00 -.635E+01   0.746E-02 -.403E-02 0.828E-02
   -.958E+00 0.261E+00 0.648E+01   0.958E+00 -.261E+00 -.648E+01   -.143E-02 0.506E-02 -.415E-02
   -.137E+00 -.568E-01 0.555E+01   0.140E+00 0.551E-01 -.555E+01   0.126E-03 0.228E-03 0.220E-02
   0.641E-01 0.473E+00 0.561E+01   -.637E-01 -.474E+00 -.562E+01   -.268E-02 0.138E-02 0.921E-02
   -.199E+00 -.111E+01 0.739E+01   0.199E+00 0.111E+01 -.739E+01   0.571E-02 -.142E-02 0.102E-03
   -.121E+00 -.690E+00 0.626E+01   0.118E+00 0.691E+00 -.626E+01   -.305E-03 -.796E-03 -.534E-03
   0.104E+01 -.442E+00 0.810E+01   -.104E+01 0.442E+00 -.808E+01   -.196E-02 -.203E-02 -.155E-01
   0.755E+00 -.600E+00 0.732E+01   -.758E+00 0.601E+00 -.732E+01   -.688E-02 0.532E-02 -.103E-02
   -.168E+00 0.293E+00 0.110E+02   0.164E+00 -.291E+00 -.109E+02   -.100E-01 0.103E-01 -.704E-03
   -.250E+00 -.470E+00 0.109E+02   0.252E+00 0.468E+00 -.109E+02   0.119E-01 -.145E-01 -.121E-01
   0.409E+00 -.146E+00 0.619E+01   -.407E+00 0.144E+00 -.619E+01   0.384E-02 -.270E-02 -.214E-02
   0.124E+00 0.351E+00 0.603E+01   -.125E+00 -.350E+00 -.603E+01   -.487E-02 0.324E-02 0.647E-02
   -.113E+01 0.101E+00 0.793E+01   0.114E+01 -.103E+00 -.793E+01   0.123E-01 0.759E-02 -.241E-02
   -.104E+01 -.439E+00 0.737E+01   0.104E+01 0.439E+00 -.738E+01   -.816E-02 0.889E-02 0.244E-04
   0.405E+00 -.852E+00 0.743E+01   -.405E+00 0.852E+00 -.743E+01   0.405E-02 0.233E-02 -.593E-02
   0.378E-01 -.375E+00 0.643E+01   -.399E-01 0.376E+00 -.643E+01   -.490E-02 0.236E-02 -.127E-02
   -.741E+00 -.739E+00 0.827E+01   0.739E+00 0.740E+00 -.827E+01   -.115E-01 -.787E-02 -.140E-01
   -.552E+00 -.106E+01 0.713E+01   0.553E+00 0.106E+01 -.713E+01   0.541E-03 -.669E-03 0.108E-02
   0.393E-01 0.241E+00 0.583E+01   -.392E-01 -.241E+00 -.584E+01   0.477E-02 -.454E-02 0.777E-02
   0.131E+00 0.207E+00 0.597E+01   -.134E+00 -.206E+00 -.597E+01   -.241E-02 0.472E-02 -.315E-03
   -.510E+00 0.972E-01 0.609E+01   0.513E+00 -.982E-01 -.610E+01   0.419E-02 -.250E-02 0.680E-02
   -.449E+00 -.214E+00 0.603E+01   0.449E+00 0.214E+00 -.604E+01   -.360E-02 0.219E-02 0.447E-02
   -.837E+00 -.464E+00 0.620E+01   0.840E+00 0.462E+00 -.620E+01   -.466E-03 0.885E-03 0.327E-02
   -.563E+00 -.455E+00 0.586E+01   0.564E+00 0.455E+00 -.587E+01   -.355E-02 0.122E-02 0.881E-02
   -.514E+00 -.648E+00 0.603E+01   0.514E+00 0.649E+00 -.603E+01   -.270E-02 0.306E-03 0.422E-02
   -.743E-01 -.186E+00 0.573E+01   0.753E-01 0.186E+00 -.573E+01   0.175E-02 0.742E-03 0.698E-02
   0.198E+00 0.489E+00 0.567E+01   -.199E+00 -.489E+00 -.567E+01   -.386E-02 0.146E-02 0.646E-02
   0.591E+00 0.881E+00 0.620E+01   -.590E+00 -.882E+00 -.620E+01   -.958E-03 -.101E-02 0.680E-02
   0.723E-01 0.801E+00 0.584E+01   -.693E-01 -.803E+00 -.585E+01   0.144E-03 0.407E-03 0.240E-02
   0.637E-02 0.114E+01 0.676E+01   -.578E-02 -.114E+01 -.677E+01   -.765E-02 0.139E-02 0.480E-02
   -.158E+00 0.290E+00 0.618E+01   0.160E+00 -.291E+00 -.618E+01   0.419E-02 -.310E-02 0.249E-02
   -.548E+00 0.704E+00 0.650E+01   0.547E+00 -.704E+00 -.650E+01   -.581E-02 0.681E-05 -.479E-03
   -.172E+00 -.357E+00 0.621E+01   0.172E+00 0.357E+00 -.621E+01   0.594E-02 -.123E-02 0.661E-02
   -.328E+00 0.113E+00 0.582E+01   0.326E+00 -.112E+00 -.582E+01   -.376E-02 0.323E-02 -.209E-02
   0.283E-01 -.216E+00 0.581E+01   -.285E-01 0.217E+00 -.582E+01   0.398E-02 -.301E-02 0.571E-02
   0.348E+00 0.250E+00 0.578E+01   -.350E+00 -.248E+00 -.578E+01   -.584E-03 0.175E-02 0.336E-02
   -.304E-02 0.283E-01 -.871E+02   -.798E-03 -.248E-01 0.871E+02   -.290E-02 0.190E-02 -.297E-02
   -.229E+03 0.156E+03 -.142E+03   0.279E+03 -.190E+03 0.146E+03   -.511E+02 0.348E+02 -.343E+01
   0.229E+03 -.156E+03 -.123E+03   -.279E+03 0.190E+03 0.119E+03   0.511E+02 -.348E+02 0.309E+01
 -----------------------------------------------------------------------------------------------
   -.653E-02 0.133E-01 0.343E+00   0.568E-13 0.284E-13 -.284E-13   0.699E-02 -.138E-01 -.342E+00
 
 
 POSITION                                       TOTAL-FORCE (eV/Angst)
 -----------------------------------------------------------------------------------
     11.98348      0.00342      0.01417         0.003251     -0.001665     -0.000967
     -0.34154      1.42665      0.01100        -0.000584     -0.000118     -0.003443
      2.12355      0.00315      0.01249        -0.001740      0.010938     -0.006365
      2.12326      1.42653      0.00641         0.013579      0.001351     -0.008422
     10.75099      2.13819      0.01213         0.000388     -0.005750     -0.000045
     -1.57382      3.56123      0.01110        -0.009025      0.004770     -0.001380
      0.89078      2.13854      0.00548         0.009772     -0.019262      0.002264
      0.89099      3.56147      0.00181        -0.011793     -0.002536      0.011524
      4.58864      0.00346      0.01135         0.003563     -0.015843     -0.003493
      4.58894      1.42623      0.00646        -0.023892      0.013506      0.013604
      9.51854      4.27281      0.01369         0.006562     -0.003098      0.000220
     -2.80632      5.69591      0.01434        -0.006605      0.003420      0.000783
      2.12300      4.27302      0.00000         0.025385     -0.005172      0.020028
      2.12335      5.69594      0.00581        -0.000463      0.009148     -0.002724
      7.05344      0.00333      0.01399         0.009382     -0.005305     -0.000329
      7.05353      1.42635      0.01368        -0.001727      0.005029     -0.003778
      8.28610      6.40752      0.01601         0.002895     -0.001444     -0.000782
     -4.03885      7.83070      0.01636        -0.002253      0.000888     -0.000053
      3.35586      6.40753      0.01007         0.005576      0.000515     -0.001213
      3.35599      7.83072      0.01320        -0.003159     -0.000009     -0.000666
     -0.34146      4.27290      0.00723        -0.001866     -0.001494     -0.004505
     -0.34138      5.69591      0.00946        -0.009220      0.006569     -0.001046
      3.35624      2.13791      0.00222        -0.013765      0.012117      0.015578
      3.35573      3.56155      0.00139         0.013748     -0.016150      0.008099
     -1.57395      6.40758      0.01311         0.005366     -0.003916     -0.000578
     -1.57385      7.83068      0.01438        -0.004899      0.003799      0.000078
      5.82093      2.13784      0.01033         0.015997      0.005275     -0.002955
      5.82114      3.56097      0.01156        -0.006505      0.008664     -0.003648
      0.89092      6.40755      0.00907         0.004619      0.002329     -0.002265
      0.89106      7.83068      0.01235        -0.006843      0.003934      0.000356
      4.58871      4.27293      0.00850        -0.013127     -0.006578     -0.010866
      4.58852      5.69606      0.01149         0.001977     -0.001252     -0.003956
      9.51845      0.00337      0.01490         0.004787     -0.004679      0.000215
      9.51855      1.42644      0.01438        -0.005148      0.005451     -0.000308
      8.28593      2.13803      0.01453         0.006756     -0.003382      0.000652
      8.28613      3.56115      0.01464        -0.004385      0.002240     -0.000007
      7.05356      4.27269      0.01457         0.002553     -0.001075     -0.000650
      7.05362      5.69588      0.01553        -0.002536      0.001566     -0.000024
      5.82112      6.40755      0.01489        -0.002999      0.001574     -0.000049
      5.82102      7.83073      0.01579         0.002734      0.000287     -0.000253
      7.05363      8.54227      0.01631        -0.004699      0.001291      0.001078
     -5.27149      9.96549      0.01495         0.000167     -0.001969     -0.002110
     -2.80638      8.54234      0.01558         0.003107     -0.001330     -0.001188
     -2.80627      9.96553      0.01362        -0.006915     -0.000047     -0.003720
     -0.34149      8.54239      0.01378         0.005787     -0.004916      0.000262
     -0.34138      9.96550      0.01354        -0.005971     -0.000062     -0.001260
      2.12343      8.54232      0.01336         0.005917     -0.001532      0.000791
      2.12354      9.96544      0.01469        -0.005151      0.003811     -0.001842
      4.58846      8.54235      0.01505         0.003723     -0.002789      0.001019
      4.58853      9.96550      0.01517        -0.002734      0.003330      0.000154
      3.04930      2.68154      8.40896        -0.006578      0.005305      0.033544
      4.02070      2.02068      8.47339        -0.520876      0.353951     -0.051024
      2.07767      3.34267      8.34951         0.527869     -0.359686      0.015667
 -----------------------------------------------------------------------------------
    total drift:                                0.000464     -0.000418      0.000924


--------------------------------------------------------------------------------------------------------



  FREE ENERGIE OF THE ION-ELECTRON SYSTEM (eV)
  ---------------------------------------------------
  free  energy   TOTEN  =      -486.49465784 eV

  energy  without entropy=     -486.49465784  energy(sigma->0) =     -486.49465784
 


--------------------------------------------------------------------------------------------------------


    POTLOK:  cpu time    0.2784: real time    0.2805


--------------------------------------------------------------------------------------------------------


     LOOP+:  cpu time  108.4104: real time  110.2022
    4ORBIT:  cpu time    0.0000: real time    0.0000

 total amount of memory used by VASP MPI-rank0   175916. kBytes
=======================================================================

   base      :      30000. kBytes
   nonl-proj :      46129. kBytes
   fftplans  :      35778. kBytes
   grid      :      52596. kBytes
   one-center:         43. kBytes
   wavefun   :      11370. kBytes
 
  
  
 General timing and accounting informations for this job:
 ========================================================
  
                  Total CPU time used (sec):      142.320
                            User time (sec):      131.720
                          System time (sec):       10.600
                         Elapsed time (sec):      145.789
  
                   Maximum memory used (kb):      508276.
                   Average memory used (kb):          N/A
  
                          Minor page faults:        52975
                          Major page faults:           93
                 Voluntary context switches:         3623
