 vasp.6.2.1 16May21 (build Nov 06 2021 14:46:37) complex                        
  
 executed on             LinuxIFC date 2025.04.16  23:05:15
 running on  112 total cores
 distrk:  each k-point on  112 cores,    1 groups
 distr:  one band on NCORE=   4 cores,   28 groups


--------------------------------------------------------------------------------------------------------


 INCAR:
   ALGO = Conjugate
   NCORE = 4
   ISMEAR = 0
   SIGMA = 0.01
   PREC = Accurate
   EDIFF = 1E-6
   ENCUT = 1000
   ISIF = 0
   IVDW = 11
   LWAVE = .FALSE.
   LCHARGE = .FALSE.
   SYMPREC = 1E-6

 POTCAR:    PAW_PBE C_h 06Feb2004                 
 POTCAR:    PAW_PBE O_h 06Feb2004                 
 -----------------------------------------------------------------------------
|                                                                             |
|           W    W    AA    RRRRR   N    N  II  N    N   GGGG   !!!           |
|           W    W   A  A   R    R  NN   N  II  NN   N  G    G  !!!           |
|           W    W  A    A  R    R  N N  N  II  N N  N  G       !!!           |
|           W WW W  AAAAAA  RRRRR   N  N N  II  N  N N  G  GGG   !            |
|           WW  WW  A    A  R   R   N   NN  II  N   NN  G    G                |
|           W    W  A    A  R    R  N    N  II  N    N   GGGG   !!!           |
|                                                                             |
|     For optimal performance we recommend to set                             |
|       NCORE = 2 up to number-of-cores-per-socket                            |
|     NCORE specifies how many cores store one orbital (NPAR=cpu/NCORE).      |
|     This setting can greatly improve the performance of VASP for DFT.       |
|     The default, NCORE=1 might be grossly inefficient on modern             |
|     multi-core architectures or massively parallel machines. Do your        |
|     own testing! More info at https://www.vasp.at/wiki/index.php/NCORE      |
|     Unfortunately you need to use the default for GW and RPA                |
|     calculations (for HF NCORE is supported but not extensively tested      |
|     yet).                                                                   |
|                                                                             |
 -----------------------------------------------------------------------------

 POTCAR:    PAW_PBE C_h 06Feb2004                 
   VRHFIN =C: s2p2                                                                                  
   LEXCH  = PE                                                                                      
   EATOM  =   147.1560 eV,   10.8157 Ry                                                             
                                                                                                    
   TITEL  = PAW_PBE C_h 06Feb2004                                                                   
   LULTRA =        F    use ultrasoft PP ?                                                          
   IUNSCR =        1    unscreen: 0-lin 1-nonlin 2-no                                               
   RPACOR =    0.800    partial core radius                                                         
   POMASS =   12.011; ZVAL   =    4.000    mass and valenz                                          
   RCORE  =    1.100    outmost cutoff radius                                                       
   RWIGS  =    1.630; RWIGS  =    0.863    wigner-seitz radius (au A)                               
   ENMAX  =  700.000; ENMIN  =  500.000 eV                                                          
   ICORE  =        2    local potential                                                             
   LCOR   =        T    correct aug charges                                                         
   LPAW   =        T    paw PP                                                                      
   EAUG   =  946.768                                                                                
   DEXC   =    0.000                                                                                
   RMAX   =    1.128    core radius for proj-oper                                                   
   RAUG   =    1.300    factor for augmentation sphere                                              
   RDEP   =    1.162    radius for radial grids                                                     
   RDEPT  =    1.088    core radius for aug-charge                                                  
                                                                                                    
   Atomic configuration                                                                             
    4 entries                                                                                       
     n  l   j            E        occ.                                                              
     1  0  0.50      -273.3789   2.0000                                                             
     2  0  0.50       -13.7508   2.0000                                                             
     2  1  0.50        -5.2854   2.0000                                                             
     3  2  1.50        -5.4423   0.0000                                                             
   Description                                                                                      
     l       E           TYP  RCUT    TYP  RCUT                                                     
     0    -13.7508458     23  1.100                                                                 
     0     -8.2022199     23  1.100                                                                 
     1     -5.2854383     23  1.100                                                                 
     1      1.1560700     23  1.100                                                                 
     2     -5.4423304      7  1.100                                                                 
  local pseudopotential read in
  partial core-charges read in
  partial kinetic energy density read in
  atomic valenz-charges read in
  non local Contribution for L=           0  read in
    real space projection operators read in
  non local Contribution for L=           0  read in
    real space projection operators read in
  non local Contribution for L=           1  read in
    real space projection operators read in
  non local Contribution for L=           1  read in
    real space projection operators read in
    PAW grid and wavefunctions read in
 
   number of l-projection  operators is LMAX  =           4
   number of lm-projection operators is LMMAX =           8
 
 POTCAR:    PAW_PBE O_h 06Feb2004                 
   VRHFIN =O: s2p4                                                                                  
   LEXCH  = PE                                                                                      
   EATOM  =   432.3788 eV,   31.7789 Ry                                                             
                                                                                                    
   TITEL  = PAW_PBE O_h 06Feb2004                                                                   
   LULTRA =        F    use ultrasoft PP ?                                                          
   IUNSCR =        1    unscreen: 0-lin 1-nonlin 2-no                                               
   RPACOR =    0.800    partial core radius                                                         
   POMASS =   16.000; ZVAL   =    6.000    mass and valenz                                          
   RCORE  =    1.100    outmost cutoff radius                                                       
   RWIGS  =    1.400; RWIGS  =    0.741    wigner-seitz radius (au A)                               
   ENMAX  =  700.000; ENMIN  =  500.000 eV                                                          
   ICORE  =        2    local potential                                                             
   LCOR   =        T    correct aug charges                                                         
   LPAW   =        T    paw PP                                                                      
   EAUG   =  888.804                                                                                
   DEXC   =    0.000                                                                                
   RMAX   =    1.128    core radius for proj-oper                                                   
   RAUG   =    1.300    factor for augmentation sphere                                              
   RDEP   =    1.125    radius for radial grids                                                     
   RDEPT  =    1.088    core radius for aug-charge                                                  
                                                                                                    
   Atomic configuration                                                                             
    4 entries                                                                                       
     n  l   j            E        occ.                                                              
     1  0  0.50      -514.6923   2.0000                                                             
     2  0  0.50       -23.9615   2.0000                                                             
     2  1  0.50        -9.0305   4.0000                                                             
     3  2  1.50        -9.5241   0.0000                                                             
   Description                                                                                      
     l       E           TYP  RCUT    TYP  RCUT                                                     
     0    -23.9615319     23  1.100                                                                 
     0    -25.3221145     23  1.100                                                                 
     1     -9.0304911     23  1.100                                                                 
     1     -5.4802209     23  1.100                                                                 
     2     -9.5240782      7  1.100                                                                 
  local pseudopotential read in
  partial core-charges read in
  partial kinetic energy density read in
  atomic valenz-charges read in
  non local Contribution for L=           0  read in
    real space projection operators read in
  non local Contribution for L=           0  read in
    real space projection operators read in
  non local Contribution for L=           1  read in
    real space projection operators read in
  non local Contribution for L=           1  read in
    real space projection operators read in
    PAW grid and wavefunctions read in
 
   number of l-projection  operators is LMAX  =           4
   number of lm-projection operators is LMMAX =           8
 
 -----------------------------------------------------------------------------
|                                                                             |
|               ----> ADVICE to this user running VASP <----                  |
|                                                                             |
|     You have a (more or less) 'large supercell' and for larger cells it     |
|     might be more efficient to use real-space projection operators.         |
|     Therefore, try LREAL= Auto in the INCAR file.                           |
|     Mind: For very accurate calculation, you might also keep the            |
|     reciprocal projection scheme (i.e. LREAL=.FALSE.).                      |
|                                                                             |
 -----------------------------------------------------------------------------

  PAW_PBE C_h 06Feb2004                 :
 energy of atom  1       EATOM= -147.1560
 kinetic energy error for atom=    0.0031 (will be added to EATOM!!)
  PAW_PBE O_h 06Feb2004                 :
 energy of atom  2       EATOM= -432.3788
 kinetic energy error for atom=    0.0171 (will be added to EATOM!!)
 
 
 POSCAR:  C  O
  positions in cartesian coordinates
  No initial velocities read in
 exchange correlation table for  LEXCH =        8
   RHO(1)=    0.500       N(1)  =     2000
   RHO(2)=  100.500       N(2)  =     4000
 


--------------------------------------------------------------------------------------------------------


 ion  position               nearest neighbor table
   1  0.972  0.000  0.001-  50 1.42   2 1.42  42 1.42
   2  0.039  0.134  0.000-   5 1.42   7 1.42   1 1.42
   3  0.172  0.000  0.000-  42 1.42  44 1.42   4 1.42
   4  0.239  0.134  0.000-   7 1.42   3 1.42  23 1.42
   5  0.972  0.200  0.000-   6 1.42   2 1.42  34 1.42
   6  0.039  0.334  0.000-   5 1.42  21 1.42  11 1.42
   7  0.172  0.200  0.000-   8 1.42   2 1.42   4 1.42
   8  0.239  0.334  0.000-  13 1.42   7 1.42  21 1.42
   9  0.372  0.000  0.000-  10 1.42  44 1.42  46 1.42
  10  0.439  0.134  0.000-  27 1.42   9 1.42  23 1.42
  11  0.972  0.400  0.001-  12 1.42  36 1.42   6 1.42
  12  0.039  0.534  0.001-  25 1.42  11 1.42  17 1.42
  13  0.372  0.400  0.000-   8 1.42  14 1.42  24 1.42
  14  0.439  0.534  0.000-  13 1.42  29 1.42  19 1.42
  15  0.572  0.000  0.001-  46 1.42  16 1.42  48 1.42
  16  0.639  0.134  0.001-  15 1.42  35 1.42  27 1.42
  17  0.972  0.600  0.001-  38 1.42  18 1.42  12 1.42
  18  0.039  0.734  0.001-  43 1.42  41 1.42  17 1.42
  19  0.572  0.600  0.000-  14 1.42  20 1.42  32 1.42
  20  0.639  0.734  0.001-  49 1.42  19 1.42  47 1.42
  21  0.172  0.400  0.000-  22 1.42   8 1.42   6 1.42
  22  0.239  0.534  0.000-  21 1.42  29 1.42  25 1.42
  23  0.372  0.200  0.000-  10 1.42   4 1.42  24 1.42
  24  0.439  0.334  0.000-  13 1.42  31 1.42  23 1.42
  25  0.172  0.600  0.001-  26 1.42  12 1.42  22 1.42
  26  0.239  0.734  0.001-  25 1.42  45 1.42  43 1.42
  27  0.572  0.200  0.000-  10 1.42  28 1.42  16 1.42
  28  0.639  0.334  0.000-  27 1.42  37 1.42  31 1.42
  29  0.372  0.600  0.000-  22 1.42  14 1.42  30 1.42
  30  0.439  0.734  0.000-  47 1.42  29 1.42  45 1.42
  31  0.572  0.400  0.000-  32 1.42  28 1.42  24 1.42
  32  0.639  0.534  0.000-  31 1.42  39 1.42  19 1.42
  33  0.772  0.000  0.001-  34 1.42  48 1.42  50 1.42
  34  0.839  0.134  0.001-  33 1.42   5 1.42  35 1.42
  35  0.772  0.200  0.001-  36 1.42  16 1.42  34 1.42
  36  0.839  0.334  0.001-  35 1.42  11 1.42  37 1.42
  37  0.772  0.400  0.001-  28 1.42  38 1.42  36 1.42
  38  0.839  0.534  0.001-  17 1.42  37 1.42  39 1.42
  39  0.772  0.600  0.001-  40 1.42  38 1.42  32 1.42
  40  0.839  0.734  0.001-  39 1.42  49 1.42  41 1.42
  41  0.972  0.800  0.001-  18 1.42  42 1.42  40 1.42
  42  0.039  0.934  0.001-   3 1.42  41 1.42   1 1.42
  43  0.172  0.800  0.001-  18 1.42  44 1.42  26 1.42
  44  0.239  0.934  0.001-   9 1.42  43 1.42   3 1.42
  45  0.372  0.800  0.001-  26 1.42  46 1.42  30 1.42
  46  0.439  0.934  0.001-  15 1.42  45 1.42   9 1.42
  47  0.572  0.800  0.001-  30 1.42  48 1.42  20 1.42
  48  0.639  0.934  0.001-  47 1.42  33 1.42  15 1.42
  49  0.772  0.800  0.001-  50 1.42  20 1.42  40 1.42
  50  0.839  0.934  0.001-  49 1.42   1 1.42  33 1.42
  51  0.373  0.251  0.336-  52 1.18  53 1.18
  52  0.421  0.189  0.339-  51 1.18
  53  0.325  0.313  0.334-  51 1.18
 
  LATTYP: Found a hexagonal cell.
 ALAT       =    12.3250000000
 C/A-ratio  =     2.0283975659
  
  Lattice vectors:
  
 A1 = (  12.3250000000,   0.0000000000,   0.0000000000)
 A2 = (  -6.1625000000,  10.6737631016,   0.0000000000)
 A3 = (   0.0000000000,   0.0000000000,  25.0000000000)


Analysis of symmetry for initial positions (statically):
=====================================================================
 Subroutine PRICEL returns:
 Original cell was already a primitive cell.
 

 Routine SETGRP: Setting up the symmetry group for a 
 hexagonal supercell.


 Subroutine GETGRP returns: Found  1 space group operations
 (whereof  1 operations were pure point group operations)
 out of a pool of 24 trial point group operations.


The static configuration has the point symmetry C_1 .


Analysis of symmetry for dynamics (positions and initial velocities):
=====================================================================
 Subroutine PRICEL returns:
 Original cell was already a primitive cell.
 

 Routine SETGRP: Setting up the symmetry group for a 
 hexagonal supercell.


 Subroutine GETGRP returns: Found  1 space group operations
 (whereof  1 operations were pure point group operations)
 out of a pool of 24 trial point group operations.


The dynamic configuration has the point symmetry C_1 .


 Subroutine INISYM returns: Found  1 space group operations
 (whereof  1 operations are pure point group operations),
 and found     1 'primitive' translations


----------------------------------------------------------------------------------------

                                     Primitive cell                                     

  volume of cell :    3288.8533

  direct lattice vectors                    reciprocal lattice vectors
    12.325000000  0.000000000  0.000000000     0.081135903  0.046843835  0.000000000
    -6.162500000 10.673763102  0.000000000     0.000000000  0.093687670  0.000000000
     0.000000000  0.000000000 25.000000000     0.000000000  0.000000000  0.040000000

  length of vectors
    12.325000000 12.325000000 25.000000000     0.093687670  0.093687670  0.040000000

  position of ions in fractional coordinates (direct lattice)
     0.972450841  0.000320818  0.000566711
     0.039118382  0.133659505  0.000440173
     0.172443627  0.000295449  0.000499628
     0.239096278  0.133647917  0.000256468
     0.972452058  0.200322012  0.000485219
     0.039128360  0.333643771  0.000444150
     0.172451764  0.200354552  0.000219167
     0.239124359  0.333665720  0.000072260
     0.372465565  0.000324403  0.000453913
     0.439137473  0.133619939  0.000258338
     0.972449824  0.400309362  0.000547611
     0.039124981  0.533636789  0.000573410
     0.372416176  0.400329481  0.000000000
     0.439099602  0.533638981  0.000232414
     0.572443676  0.000312125  0.000559580
     0.639110207  0.133631751  0.000547275
     0.972452703  0.600305653  0.000640289
     0.039124495  0.733640359  0.000654513
     0.572433471  0.600306242  0.000402895
     0.639111888  0.733641879  0.000527905
     0.172454630  0.400318228  0.000289045
     0.239120185  0.533636548  0.000378509
     0.372459750  0.200295993  0.000088997
     0.439107096  0.333673419  0.000055762
     0.172452155  0.600311506  0.000524340
     0.239123371  0.733638574  0.000575129
     0.572431082  0.200289171  0.000413296
     0.639112773  0.333618630  0.000462376
     0.372439808  0.600308022  0.000362844
     0.439116090  0.733637858  0.000494190
     0.572469358  0.400320504  0.000339918
     0.639119408  0.533650873  0.000459610
     0.772445723  0.000315427  0.000596161
     0.839116277  0.133640203  0.000575306
     0.772440513  0.200307432  0.000581033
     0.839120241  0.333635728  0.000585467
     0.772446320  0.400298367  0.000582978
     0.839118980  0.533633964  0.000621100
     0.772456143  0.600308173  0.000595712
     0.839115033  0.733643180  0.000631512
     0.972455313  0.800305582  0.000652233
     0.039114714  0.933643289  0.000598051
     0.172457971  0.800312211  0.000623372
     0.239134551  0.933647193  0.000544850
     0.372451396  0.800316674  0.000551399
     0.439124489  0.933644769  0.000541430
     0.572441101  0.800310054  0.000534535
     0.639115067  0.933638985  0.000587644
     0.772445098  0.800313187  0.000602062
     0.839116614  0.933644338  0.000606830
     0.373021009  0.251226878  0.336358566
     0.420879805  0.189313152  0.338935440
     0.325156981  0.313167186  0.333980371

  ion indices of the primitive-cell ions
   primitive index   ion index
                 1           1
                 2           2
                 3           3
                 4           4
                 5           5
                 6           6
                 7           7
                 8           8
                 9           9
                10          10
                11          11
                12          12
                13          13
                14          14
                15          15
                16          16
                17          17
                18          18
                19          19
                20          20
                21          21
                22          22
                23          23
                24          24
                25          25
                26          26
                27          27
                28          28
                29          29
                30          30
                31          31
                32          32
                33          33
                34          34
                35          35
                36          36
                37          37
                38          38
                39          39
                40          40
                41          41
                42          42
                43          43
                44          44
                45          45
                46          46
                47          47
                48          48
                49          49
                50          50
                51          51
                52          52
                53          53

----------------------------------------------------------------------------------------

 
 
 KPOINTS: auto                                    

Automatic generation of k-mesh.
 Grid dimensions read from file:
 generate k-points for:    1    1    1

 Generating k-lattice:

  Cartesian coordinates                     Fractional coordinates (reciprocal lattice)
     0.081135903  0.046843835  0.000000000     1.000000000 -0.000000000  0.000000000
     0.000000000  0.093687670  0.000000000     0.000000000  1.000000000  0.000000000
     0.000000000  0.000000000  0.040000000     0.000000000  0.000000000  1.000000000

  Length of vectors
     0.093687670  0.093687670  0.040000000

  Shift w.r.t. Gamma in fractional coordinates (k-lattice)
     0.000000000  0.000000000  0.000000000

 
 Subroutine IBZKPT returns following result:
 ===========================================
 
 Found      1 irreducible k-points:
 
 Following reciprocal coordinates:
            Coordinates               Weight
  0.000000  0.000000  0.000000      1.000000
 
 Following cartesian coordinates:
            Coordinates               Weight
  0.000000  0.000000  0.000000      1.000000
 


--------------------------------------------------------------------------------------------------------




 Dimension of arrays:
   k-points           NKPTS =      1   k-points in BZ     NKDIM =      1   number of bands    NBANDS=    140
   number of dos      NEDOS =    301   number of ions     NIONS =     53
   non local maximal  LDIM  =      4   non local SUM 2l+1 LMDIM =      8
   total plane-waves  NPLWV = ******
   max r-space proj   IRMAX =      1   max aug-charges    IRDMAX=  10008
   dimension x,y,z NGX =   128 NGY =  128 NGZ =  270
   dimension x,y,z NGXF=   256 NGYF=  256 NGZF=  540
   support grid    NGXF=   256 NGYF=  256 NGZF=  540
   ions per type =              51   2
   NGX,Y,Z   is equivalent  to a cutoff of  17.27, 17.27, 17.95 a.u.
   NGXF,Y,Z  is equivalent  to a cutoff of  34.53, 34.53, 35.91 a.u.

 SYSTEM =  unknown system                          
 POSCAR =   C  O                                   

 Startparameter for this run:
   NWRITE =      2    write-flag & timer
   PREC   = accura    normal or accurate (medium, high low for compatibility)
   ISTART =      0    job   : 0-new  1-cont  2-samecut
   ICHARG =      2    charge: 1-file 2-atom 10-const
   ISPIN  =      1    spin polarized calculation?
   LNONCOLLINEAR =      F non collinear calculations
   LSORBIT =      F    spin-orbit coupling
   INIWAV =      1    electr: 0-lowe 1-rand  2-diag
   LASPH  =      F    aspherical Exc in radial PAW
 Electronic Relaxation 1
   ENCUT  = 1000.0 eV  73.50 Ry    8.57 a.u.  31.78 31.78 64.46*2*pi/ulx,y,z
   ENINI  = 1000.0     initial cutoff
   ENAUG  =  946.8 eV  augmentation charge cutoff
   NELM   =     60;   NELMIN=  2; NELMDL= -5     # of ELM steps 
   EDIFF  = 0.1E-05   stopping-criterion for ELM
   LREAL  =      F    real-space projection
   NLSPLINE    = F    spline interpolate recip. space projectors
   LCOMPAT=      F    compatible to vasp.4.4
   GGA_COMPAT  = T    GGA compatible to vasp.4.4-vasp.4.6
   LMAXPAW     = -100 max onsite density
   LMAXMIX     =    2 max onsite mixed and CHGCAR
   VOSKOWN=      0    Vosko Wilk Nusair interpolation
   ROPT   =    0.00000   0.00000
 Ionic relaxation
   EDIFFG = 0.1E-04   stopping-criterion for IOM
   NSW    =      0    number of steps for IOM
   NBLOCK =      1;   KBLOCK =      1    inner block; outer block 
   IBRION =     -1    ionic relax: 0-MD 1-quasi-New 2-CG
   NFREE  =      0    steps in history (QN), initial steepest desc. (CG)
   ISIF   =      0    stress and relaxation
   IWAVPR =     10    prediction:  0-non 1-charg 2-wave 3-comb
   ISYM   =      2    0-nonsym 1-usesym 2-fastsym
   LCORR  =      T    Harris-Foulkes like correction to forces

   POTIM  = 0.5000    time-step for ionic-motion
   TEIN   =    0.0    initial temperature
   TEBEG  =    0.0;   TEEND  =   0.0 temperature during run
   SMASS  =  -3.00    Nose mass-parameter (am)
   estimated Nose-frequenzy (Omega)   =  0.10E-29 period in steps = 0.13E+47 mass=  -0.347E-26a.u.
   SCALEE = 1.0000    scale energy and forces
   NPACO  =    256;   APACO  = 16.0  distance and # of slots for P.C.
   PSTRESS=    0.0 pullay stress

  Mass of Ions in am
   POMASS =  12.01 16.00
  Ionic Valenz
   ZVAL   =   4.00  6.00
  Atomic Wigner-Seitz radii
   RWIGS  =  -1.00 -1.00
  virtual crystal weights 
   VCA    =   1.00  1.00
   NELECT =     216.0000    total number of electrons
   NUPDOWN=      -1.0000    fix difference up-down

 DOS related values:
   EMIN   =  10.00;   EMAX   =-10.00  energy-range for DOS
   EFERMI =   0.00
   ISMEAR =     0;   SIGMA  =   0.01  broadening in eV -4-tet -1-fermi 0-gaus

 Electronic relaxation 2 (details)
   IALGO  =     58    algorithm
   LDIAG  =      T    sub-space diagonalisation (order eigenvalues)
   LSUBROT=      F    optimize rotation matrix (better conditioning)
   TURBO    =      0    0=normal 1=particle mesh
   IRESTART =      0    0=no restart 2=restart with 2 vectors
   NREBOOT  =      0    no. of reboots
   NMIN     =      0    reboot dimension
   EREF     =   0.00    reference energy to select bands
   IMIX   =      4    mixing-type and parameters
     AMIX     =   0.40;   BMIX     =  1.00
     AMIX_MAG =   1.60;   BMIX_MAG =  1.00
     AMIN     =   0.10
     WC   =   100.;   INIMIX=   1;  MIXPRE=   1;  MAXMIX= -45

 Intra band minimization:
   WEIMIN = 0.0000     energy-eigenvalue tresh-hold
   EBREAK =  0.18E-08  absolut break condition
   DEPER  =   0.30     relativ break condition  

   TIME   =   0.40     timestep for ELM

  volume/ion in A,a.u.               =      62.05       418.76
  Fermi-wavevector in a.u.,A,eV,Ry     =   0.660508  1.248179  5.935820  0.436270
  Thomas-Fermi vector in A             =   1.732977
 
 Write flags
   LWAVE        =      F    write WAVECAR
   LDOWNSAMPLE  =      F    k-point downsampling of WAVECAR
   LCHARG       =      T    write CHGCAR
   LVTOT        =      F    write LOCPOT, total local potential
   LVHAR        =      F    write LOCPOT, Hartree potential only
   LELF         =      F    write electronic localiz. function (ELF)
   LORBIT       =      0    0 simple, 1 ext, 2 COOP (PROOUT), +10 PAW based schemes


 Dipole corrections
   LMONO  =      F    monopole corrections only (constant potential shift)
   LDIPOL =      F    correct potential (dipole corrections)
   IDIPOL =      0    1-x, 2-y, 3-z, 4-all directions 
   EPSILON=  1.0000000 bulk dielectric constant

 Exchange correlation treatment:
   GGA     =    --    GGA type
   LEXCH   =     8    internal setting for exchange type
   VOSKOWN=      0    Vosko Wilk Nusair interpolation
   LHFCALC =     F    Hartree Fock is set to
   LHFONE  =     F    Hartree Fock one center treatment
   AEXX    =    0.0000 exact exchange contribution

 Linear response parameters
   LEPSILON=     F    determine dielectric tensor
   LRPA    =     F    only Hartree local field effects (RPA)
   LNABLA  =     F    use nabla operator in PAW spheres
   LVEL    =     F    velocity operator in full k-point grid
   LINTERFAST=   F  fast interpolation
   KINTER  =     0    interpolate to denser k-point grid
   CSHIFT  =0.1000    complex shift for real part using Kramers Kronig
   OMEGAMAX=  -1.0    maximum frequency
   DEG_THRESHOLD= 0.2000000E-02 threshold for treating states as degnerate
   RTIME   =   -0.100 relaxation time in fs
  (WPLASMAI=    0.000 imaginary part of plasma frequency in eV, 0.658/RTIME)
   DFIELD  = 0.0000000 0.0000000 0.0000000 field for delta impulse in time
 
 Orbital magnetization related:
   ORBITALMAG=     F  switch on orbital magnetization
   LCHIMAG   =     F  perturbation theory with respect to B field
   DQ        =  0.001000  dq finite difference perturbation B field
   LLRAUG    =     F  two centre corrections for induced B field



--------------------------------------------------------------------------------------------------------


 Static calculation
 charge density and potential will be updated during run
 non-spin polarized calculation
 Conjugate gradient for all bands (Freysoldt, et al. PRB 79, 241103 (2009))
 preconditioned conjugated gradient                                        
 perform sub-space diagonalisation
    before iterative eigenvector-optimisation
 modified Broyden-mixing scheme, WC =      100.0
 initial mixing is a Kerker type mixing with AMIX =  0.4000 and BMIX =      1.0000
 Hartree-type preconditioning will be used
 using additional bands           32
 reciprocal scheme for non local part
 use partial core corrections
 no Harris-corrections to forces 
 use gradient corrections 
 use of overlap-Matrix (Vanderbilt PP)
 Gauss-broadening in eV      SIGMA  =   0.01


--------------------------------------------------------------------------------------------------------


  energy-cutoff  :     1000.00
  volume of cell :     3288.85
      direct lattice vectors                 reciprocal lattice vectors
    12.325000000  0.000000000  0.000000000     0.081135903  0.046843835  0.000000000
    -6.162500000 10.673763102  0.000000000     0.000000000  0.093687670  0.000000000
     0.000000000  0.000000000 25.000000000     0.000000000  0.000000000  0.040000000

  length of vectors
    12.325000000 12.325000000 25.000000000     0.093687670  0.093687670  0.040000000


 
 k-points in units of 2pi/SCALE and weight: auto                                    
   0.00000000  0.00000000  0.00000000       1.000
 
 k-points in reciprocal lattice and weights: auto                                    
   0.00000000  0.00000000  0.00000000       1.000
 
 position of ions in fractional coordinates (direct lattice) 
   0.97245084  0.00032082  0.00056671
   0.03911838  0.13365950  0.00044017
   0.17244363  0.00029545  0.00049963
   0.23909628  0.13364792  0.00025647
   0.97245206  0.20032201  0.00048522
   0.03912836  0.33364377  0.00044415
   0.17245176  0.20035455  0.00021917
   0.23912436  0.33366572  0.00007226
   0.37246557  0.00032440  0.00045391
   0.43913747  0.13361994  0.00025834
   0.97244982  0.40030936  0.00054761
   0.03912498  0.53363679  0.00057341
   0.37241618  0.40032948  0.00000000
   0.43909960  0.53363898  0.00023241
   0.57244368  0.00031213  0.00055958
   0.63911021  0.13363175  0.00054727
   0.97245270  0.60030565  0.00064029
   0.03912449  0.73364036  0.00065451
   0.57243347  0.60030624  0.00040289
   0.63911189  0.73364188  0.00052791
   0.17245463  0.40031823  0.00028904
   0.23912018  0.53363655  0.00037851
   0.37245975  0.20029599  0.00008900
   0.43910710  0.33367342  0.00005576
   0.17245216  0.60031151  0.00052434
   0.23912337  0.73363857  0.00057513
   0.57243108  0.20028917  0.00041330
   0.63911277  0.33361863  0.00046238
   0.37243981  0.60030802  0.00036284
   0.43911609  0.73363786  0.00049419
   0.57246936  0.40032050  0.00033992
   0.63911941  0.53365087  0.00045961
   0.77244572  0.00031543  0.00059616
   0.83911628  0.13364020  0.00057531
   0.77244051  0.20030743  0.00058103
   0.83912024  0.33363573  0.00058547
   0.77244632  0.40029837  0.00058298
   0.83911898  0.53363396  0.00062110
   0.77245614  0.60030817  0.00059571
   0.83911503  0.73364318  0.00063151
   0.97245531  0.80030558  0.00065223
   0.03911471  0.93364329  0.00059805
   0.17245797  0.80031221  0.00062337
   0.23913455  0.93364719  0.00054485
   0.37245140  0.80031667  0.00055140
   0.43912449  0.93364477  0.00054143
   0.57244110  0.80031005  0.00053453
   0.63911507  0.93363899  0.00058764
   0.77244510  0.80031319  0.00060206
   0.83911661  0.93364434  0.00060683
   0.37302101  0.25122688  0.33635857
   0.42087980  0.18931315  0.33893544
   0.32515698  0.31316719  0.33398037
 
 position of ions in cartesian coordinates  (Angst):
  11.98347958  0.00342433  0.01416777
  -0.34154264  1.42664989  0.01100432
   2.12354700  0.00315355  0.01249070
   2.12325634  1.42652621  0.00641170
  10.75098721  2.13818970  0.01213047
  -1.57382270  3.56123457  0.01110375
   0.89078307  2.13853702  0.00547917
   0.89099273  3.56146885  0.00180651
   4.58863896  0.00346260  0.01134782
   4.58893648  1.42622757  0.00645846
   9.51853763  4.27280730  0.01369027
  -2.80632132  5.69591267  0.01433526
   2.12299894  4.27302204  0.00000000
   2.12335237  5.69593607  0.00581036
   7.05344483  0.00333155  0.01398950
   7.05352764  1.42635365  0.01368187
   8.28609598  6.40752033  0.01600723
  -4.03884931  7.83070339  0.01636283
   3.35585531  6.40752662  0.01007237
   3.35598594  7.83071962  0.01319763
  -0.34145776  4.27290193  0.00722612
  -0.34137895  5.69591010  0.00946273
   3.35624236  2.13791198  0.00222492
   3.35573251  3.56155103  0.00139405
  -1.57394684  6.40758280  0.01310850
  -1.57385216  7.83068434  0.01437823
   5.82093107  2.13783916  0.01033241
   5.82114012  3.56096622  0.01155939
   0.89092245  6.40754561  0.00907111
   0.89106251  7.83067670  0.01235474
   4.58870974  4.27292622  0.00849795
   4.58852320  5.69606300  0.01149026
   9.51844972  0.00336679  0.01490402
   9.51855036  1.42644387  0.01438264
   8.28593477  2.13803408  0.01452582
   8.28612680  3.56114872  0.01463668
   7.05356221  4.27268994  0.01457444
   7.05362213  5.69588251  0.01552751
   5.82112285  6.40754723  0.01489279
   5.82101669  7.83073350  0.01578780
   7.05362858  8.54227219  0.01630582
  -5.27148792  9.96548729  0.01495127
  -2.80637951  8.54234295  0.01558431
  -2.80626749  9.96552896  0.01362126
  -0.34148805  8.54239058  0.01378498
  -0.34137657  9.96550309  0.01353576
   2.12342586  8.54231992  0.01336337
   2.12354296  9.96544135  0.01469111
   4.58845581  8.54235337  0.01505154
   4.58852904  9.96549848  0.01517076
   3.04929830  2.68153618  8.40896415
   4.02070129  2.02068374  8.47338601
   2.07766701  3.34267235  8.34950928
 


--------------------------------------------------------------------------------------------------------


 k-point   1 :   0.0000 0.0000 0.0000  plane waves:  236157

 maximum and minimum number of plane-waves per node :     59046    59034

 maximum number of plane-waves:    236157
 maximum index in each direction: 
   IXMAX=   31   IYMAX=   31   IZMAX=   64
   IXMIN=  -31   IYMIN=  -31   IZMIN=  -64


 parallel 3D FFT for wavefunctions:
    minimum data exchange during FFTs selected (reduces bandwidth)
 parallel 3D FFT for charge:
    minimum data exchange during FFTs selected (reduces bandwidth)


 total amount of memory used by VASP MPI-rank0   215378. kBytes
=======================================================================

   base      :      30000. kBytes
   nonl-proj :      57634. kBytes
   fftplans  :      45914. kBytes
   grid      :      67588. kBytes
   one-center:         43. kBytes
   wavefun   :      14199. kBytes
 
     INWAV:  cpu time    0.0000: real time    0.0000
 Broyden mixing: mesh for mixing (old mesh)
   NGX = 63   NGY = 63   NGZ =129
  (NGX  =256   NGY  =256   NGZ  =540)
  gives a total of 512001 points

 initial charge density was supplied:
 charge density of overlapping atoms calculated
 number of electron     216.0000000 magnetization 
 keeping initial charge density in first step


--------------------------------------------------------------------------------------------------------


 Maximum index for augmentation-charges          471 (set IRDMAX)


--------------------------------------------------------------------------------------------------------


 First call to EWALD:  gamma=   0.119
 Maximum number of real-space cells 4x 4x 2
 Maximum number of reciprocal cells 2x 2x 4

    FEWALD:  cpu time    0.0024: real time    0.0025


--------------------------------------- Iteration      1(   1)  ---------------------------------------


    POTLOK:  cpu time    0.3880: real time    0.3930
    SETDIJ:  cpu time    0.0045: real time    0.0048
    TRIAL :  cpu time    5.5495: real time    5.6253
    CORREC:  cpu time    0.0007: real time    0.0007
    --------------------------------------------
      LOOP:  cpu time    5.9501: real time    6.0325

 eigenvalue-minimisations  :   280
 total energy-change (2. order) : 0.2769156E+04  (-0.1022638E+05)
 number of electron     216.0000000 magnetization 
 augmentation part      216.0000000 magnetization 

 Free energy of the ion-electron system (eV)
  ---------------------------------------------------
  alpha Z        PSCENC =        47.94900195
  Ewald energy   TEWEN  =     41309.03722986
  -Hartree energ DENC   =    -47378.26075386
  -exchange      EXHF   =         0.00000000
  -V(xc)+E(xc)   XCENC  =       420.79770538
  PAW double counting   =      6525.96553977    -6260.36035765
  entropy T*S    EENTRO =        -0.00024854
  eigenvalues    EBANDS =      -265.49544346
  atomic energy  EATOM  =      8369.52358910
  ---------------------------------------------------
  free energy    TOTEN  =      2769.15626256 eV

  energy without entropy =     2769.15651109  energy(sigma->0) =     2769.15638683


--------------------------------------------------------------------------------------------------------




--------------------------------------- Iteration      1(   2)  ---------------------------------------


    TRIAL :  cpu time    8.9436: real time    9.0246
    CORREC:  cpu time    0.0001: real time    0.0001
    --------------------------------------------
      LOOP:  cpu time    8.9894: real time    9.0749

 eigenvalue-minimisations  :   504
 total energy-change (2. order) :-0.2499922E+04  (-0.2370131E+04)
 number of electron     216.0000000 magnetization 
 augmentation part      216.0000000 magnetization 

 Free energy of the ion-electron system (eV)
  ---------------------------------------------------
  alpha Z        PSCENC =        47.94900195
  Ewald energy   TEWEN  =     41309.03722986
  -Hartree energ DENC   =    -47378.26075386
  -exchange      EXHF   =         0.00000000
  -V(xc)+E(xc)   XCENC  =       420.79770538
  PAW double counting   =      6525.96553977    -6260.36035765
  entropy T*S    EENTRO =        -0.00000000
  eigenvalues    EBANDS =     -2765.41778742
  atomic energy  EATOM  =      8369.52358910
  ---------------------------------------------------
  free energy    TOTEN  =       269.23416714 eV

  energy without entropy =      269.23416714  energy(sigma->0) =      269.23416714


--------------------------------------------------------------------------------------------------------




--------------------------------------- Iteration      1(   3)  ---------------------------------------


    TRIAL :  cpu time    6.8351: real time    6.8987
    CORREC:  cpu time    0.0001: real time    0.0001
    --------------------------------------------
      LOOP:  cpu time    6.8771: real time    6.9411

 eigenvalue-minimisations  :   364
 total energy-change (2. order) :-0.7409395E+03  (-0.7356498E+03)
 number of electron     216.0000000 magnetization 
 augmentation part      216.0000000 magnetization 

 Free energy of the ion-electron system (eV)
  ---------------------------------------------------
  alpha Z        PSCENC =        47.94900195
  Ewald energy   TEWEN  =     41309.03722986
  -Hartree energ DENC   =    -47378.26075386
  -exchange      EXHF   =         0.00000000
  -V(xc)+E(xc)   XCENC  =       420.79770538
  PAW double counting   =      6525.96553977    -6260.36035765
  entropy T*S    EENTRO =        -0.00000000
  eigenvalues    EBANDS =     -3506.35730844
  atomic energy  EATOM  =      8369.52358910
  ---------------------------------------------------
  free energy    TOTEN  =      -471.70535388 eV

  energy without entropy =     -471.70535388  energy(sigma->0) =     -471.70535388


--------------------------------------------------------------------------------------------------------




--------------------------------------- Iteration      1(   4)  ---------------------------------------


    TRIAL :  cpu time    6.4140: real time    6.4845
    CORREC:  cpu time    0.0001: real time    0.0001
    --------------------------------------------
      LOOP:  cpu time    6.5544: real time    6.6258

 eigenvalue-minimisations  :   336
 total energy-change (2. order) :-0.4499197E+02  (-0.4475854E+02)
 number of electron     216.0000000 magnetization 
 augmentation part      216.0000000 magnetization 

 Free energy of the ion-electron system (eV)
  ---------------------------------------------------
  alpha Z        PSCENC =        47.94900195
  Ewald energy   TEWEN  =     41309.03722986
  -Hartree energ DENC   =    -47378.26075386
  -exchange      EXHF   =         0.00000000
  -V(xc)+E(xc)   XCENC  =       420.79770538
  PAW double counting   =      6525.96553977    -6260.36035765
  entropy T*S    EENTRO =        -0.00000000
  eigenvalues    EBANDS =     -3551.34928323
  atomic energy  EATOM  =      8369.52358910
  ---------------------------------------------------
  free energy    TOTEN  =      -516.69732867 eV

  energy without entropy =     -516.69732867  energy(sigma->0) =     -516.69732867


--------------------------------------------------------------------------------------------------------




--------------------------------------- Iteration      1(   5)  ---------------------------------------


    TRIAL :  cpu time    7.6624: real time    7.7423
    CORREC:  cpu time    0.0001: real time    0.0001
    CHARGE:  cpu time    0.3110: real time    0.3146
    --------------------------------------------
      LOOP:  cpu time    8.0014: real time    8.0945

 eigenvalue-minimisations  :   420
 total energy-change (2. order) :-0.1334430E+01  (-0.1328072E+01)
 number of electron     216.0000000 magnetization 
 augmentation part       -0.2660910 magnetization 

 Free energy of the ion-electron system (eV)
  ---------------------------------------------------
  alpha Z        PSCENC =        47.94900195
  Ewald energy   TEWEN  =     41309.03722986
  -Hartree energ DENC   =    -47378.26075386
  -exchange      EXHF   =         0.00000000
  -V(xc)+E(xc)   XCENC  =       420.79770538
  PAW double counting   =      6525.96553977    -6260.36035765
  entropy T*S    EENTRO =        -0.00000000
  eigenvalues    EBANDS =     -3552.68371315
  atomic energy  EATOM  =      8369.52358910
  ---------------------------------------------------
  free energy    TOTEN  =      -518.03175859 eV

  energy without entropy =     -518.03175859  energy(sigma->0) =     -518.03175859


--------------------------------------------------------------------------------------------------------




--------------------------------------- Iteration      1(   6)  ---------------------------------------


    POTLOK:  cpu time    0.3715: real time    0.3744
    SETDIJ:  cpu time    0.0030: real time    0.0030
    TRIAL :  cpu time    2.6713: real time    2.6964
    CORREC:  cpu time    1.0511: real time    1.0601
    CHARGE:  cpu time    0.3103: real time    0.3127
    --------------------------------------------
      LOOP:  cpu time    4.4575: real time    4.4978

 eigenvalue-minimisations  :     0
 total energy-change (2. order) : 0.5125355E+02  (-0.1542265E+02)
 number of electron     216.0000000 magnetization 
 augmentation part       -0.3649097 magnetization 

 Free energy of the ion-electron system (eV)
  ---------------------------------------------------
  alpha Z        PSCENC =        47.94900195
  Ewald energy   TEWEN  =     41309.03722986
  -Hartree energ DENC   =    -48815.96050827
  -exchange      EXHF   =         0.00000000
  -V(xc)+E(xc)   XCENC  =       468.96070578
  PAW double counting   =     89775.31700064   -89517.98223458
  entropy T*S    EENTRO =        -0.00000000
  eigenvalues    EBANDS =     -2103.62298836
  atomic energy  EATOM  =      8369.52358910
  ---------------------------------------------------
  free energy    TOTEN  =      -466.77820388 eV

  energy without entropy =     -466.77820388  energy(sigma->0) =     -466.77820388


--------------------------------------------------------------------------------------------------------




--------------------------------------- Iteration      1(   7)  ---------------------------------------


    POTLOK:  cpu time    0.3702: real time    0.3731
    SETDIJ:  cpu time    0.0030: real time    0.0030
    TRIAL :  cpu time    2.6712: real time    2.6977
    CORREC:  cpu time    1.0480: real time    1.0569
    CHARGE:  cpu time    0.3099: real time    0.3122
    --------------------------------------------
      LOOP:  cpu time    4.4592: real time    4.5002

 eigenvalue-minimisations  :     0
 total energy-change (2. order) :-0.1546498E+02  (-0.1803976E+01)
 number of electron     216.0000000 magnetization 
 augmentation part       -0.4127239 magnetization 

 Free energy of the ion-electron system (eV)
  ---------------------------------------------------
  alpha Z        PSCENC =        47.94900195
  Ewald energy   TEWEN  =     41309.03722986
  -Hartree energ DENC   =    -48307.78891766
  -exchange      EXHF   =         0.00000000
  -V(xc)+E(xc)   XCENC  =       451.93464378
  PAW double counting   =    105853.83159952  -105593.68176635
  entropy T*S    EENTRO =        -0.00000000
  eigenvalues    EBANDS =     -2613.04855959
  atomic energy  EATOM  =      8369.52358910
  ---------------------------------------------------
  free energy    TOTEN  =      -482.24317941 eV

  energy without entropy =     -482.24317941  energy(sigma->0) =     -482.24317941


--------------------------------------------------------------------------------------------------------




--------------------------------------- Iteration      1(   8)  ---------------------------------------


    POTLOK:  cpu time    0.3712: real time    0.3738
    SETDIJ:  cpu time    0.0028: real time    0.0028
    TRIAL :  cpu time    2.6788: real time    2.7038
    CORREC:  cpu time    1.0477: real time    1.0565
    CHARGE:  cpu time    0.3107: real time    0.3131
    --------------------------------------------
      LOOP:  cpu time    4.4478: real time    4.5151

 eigenvalue-minimisations  :     0
 total energy-change (2. order) :-0.1802461E+01  (-0.4720662E+00)
 number of electron     216.0000000 magnetization 
 augmentation part       -0.4300903 magnetization 

 Free energy of the ion-electron system (eV)
  ---------------------------------------------------
  alpha Z        PSCENC =        47.94900195
  Ewald energy   TEWEN  =     41309.03722986
  -Hartree energ DENC   =    -48278.76470881
  -exchange      EXHF   =         0.00000000
  -V(xc)+E(xc)   XCENC  =       451.35052621
  PAW double counting   =    110170.45933242  -109909.89861541
  entropy T*S    EENTRO =        -0.00000000
  eigenvalues    EBANDS =     -2643.70199578
  atomic energy  EATOM  =      8369.52358910
  ---------------------------------------------------
  free energy    TOTEN  =      -484.04564046 eV

  energy without entropy =     -484.04564046  energy(sigma->0) =     -484.04564046


--------------------------------------------------------------------------------------------------------




--------------------------------------- Iteration      1(   9)  ---------------------------------------


    POTLOK:  cpu time    0.3706: real time    0.3731
    SETDIJ:  cpu time    0.0027: real time    0.0027
    TRIAL :  cpu time    2.6770: real time    2.7013
    CORREC:  cpu time    1.0490: real time    1.0581
    CHARGE:  cpu time    0.3102: real time    0.3124
    --------------------------------------------
      LOOP:  cpu time    4.4323: real time    4.4938

 eigenvalue-minimisations  :     0
 total energy-change (2. order) :-0.4719389E+00  (-0.1525406E+00)
 number of electron     216.0000000 magnetization 
 augmentation part       -0.4376384 magnetization 

 Free energy of the ion-electron system (eV)
  ---------------------------------------------------
  alpha Z        PSCENC =        47.94900195
  Ewald energy   TEWEN  =     41309.03722986
  -Hartree energ DENC   =    -48295.85019538
  -exchange      EXHF   =         0.00000000
  -V(xc)+E(xc)   XCENC  =       451.55658159
  PAW double counting   =    112932.14919505  -112671.43643768
  entropy T*S    EENTRO =        -0.00000000
  eigenvalues    EBANDS =     -2627.44654386
  atomic energy  EATOM  =      8369.52358910
  ---------------------------------------------------
  free energy    TOTEN  =      -484.51757937 eV

  energy without entropy =     -484.51757937  energy(sigma->0) =     -484.51757937


--------------------------------------------------------------------------------------------------------




--------------------------------------- Iteration      1(  10)  ---------------------------------------


    POTLOK:  cpu time    0.3699: real time    0.3723
    SETDIJ:  cpu time    0.0029: real time    0.0029
    TRIAL :  cpu time    2.6755: real time    2.6997
    CORREC:  cpu time    1.0549: real time    1.0638
    CHARGE:  cpu time    0.3106: real time    0.3127
    --------------------------------------------
      LOOP:  cpu time    4.4843: real time    4.5277

 eigenvalue-minimisations  :     0
 total energy-change (2. order) :-0.1523201E+00  (-0.6193746E-01)
 number of electron     216.0000000 magnetization 
 augmentation part       -0.4381935 magnetization 

 Free energy of the ion-electron system (eV)
  ---------------------------------------------------
  alpha Z        PSCENC =        47.94900195
  Ewald energy   TEWEN  =     41309.03722986
  -Hartree energ DENC   =    -48297.34609292
  -exchange      EXHF   =         0.00000000
  -V(xc)+E(xc)   XCENC  =       451.48572592
  PAW double counting   =    113421.59916060  -113160.80181329
  entropy T*S    EENTRO =        -0.00000000
  eigenvalues    EBANDS =     -2626.11670067
  atomic energy  EATOM  =      8369.52358910
  ---------------------------------------------------
  free energy    TOTEN  =      -484.66989945 eV

  energy without entropy =     -484.66989945  energy(sigma->0) =     -484.66989945


--------------------------------------------------------------------------------------------------------




--------------------------------------- Iteration      1(  11)  ---------------------------------------


    POTLOK:  cpu time    0.3706: real time    0.3731
    SETDIJ:  cpu time    0.0030: real time    0.0030
    TRIAL :  cpu time    2.6771: real time    2.7016
    CORREC:  cpu time    1.0472: real time    1.0558
    CHARGE:  cpu time    0.3105: real time    0.3129
    --------------------------------------------
      LOOP:  cpu time    4.4698: real time    4.5098

 eigenvalue-minimisations  :     0
 total energy-change (2. order) :-0.6177600E-01  (-0.2530650E-01)
 number of electron     216.0000000 magnetization 
 augmentation part       -0.4376314 magnetization 

 Free energy of the ion-electron system (eV)
  ---------------------------------------------------
  alpha Z        PSCENC =        47.94900195
  Ewald energy   TEWEN  =     41309.03722986
  -Hartree energ DENC   =    -48293.18435795
  -exchange      EXHF   =         0.00000000
  -V(xc)+E(xc)   XCENC  =       451.42626005
  PAW double counting   =    112952.04272934  -112691.24435713
  entropy T*S    EENTRO =        -0.00000000
  eigenvalues    EBANDS =     -2630.28177066
  atomic energy  EATOM  =      8369.52358910
  ---------------------------------------------------
  free energy    TOTEN  =      -484.73167545 eV

  energy without entropy =     -484.73167545  energy(sigma->0) =     -484.73167545


--------------------------------------------------------------------------------------------------------




--------------------------------------- Iteration      1(  12)  ---------------------------------------


    POTLOK:  cpu time    0.3697: real time    0.3722
    SETDIJ:  cpu time    0.0029: real time    0.0029
    TRIAL :  cpu time    2.6759: real time    2.6997
    CORREC:  cpu time    1.0455: real time    1.0556
    CHARGE:  cpu time    0.3106: real time    0.3129
    --------------------------------------------
      LOOP:  cpu time    4.4596: real time    4.4991

 eigenvalue-minimisations  :     0
 total energy-change (2. order) :-0.2520228E-01  (-0.8688579E-02)
 number of electron     216.0000000 magnetization 
 augmentation part       -0.4376686 magnetization 

 Free energy of the ion-electron system (eV)
  ---------------------------------------------------
  alpha Z        PSCENC =        47.94900195
  Ewald energy   TEWEN  =     41309.03722986
  -Hartree energ DENC   =    -48291.29683028
  -exchange      EXHF   =         0.00000000
  -V(xc)+E(xc)   XCENC  =       451.39112285
  PAW double counting   =    112568.26970344  -112307.49372645
  entropy T*S    EENTRO =        -0.00000000
  eigenvalues    EBANDS =     -2632.13696819
  atomic energy  EATOM  =      8369.52358910
  ---------------------------------------------------
  free energy    TOTEN  =      -484.75687773 eV

  energy without entropy =     -484.75687773  energy(sigma->0) =     -484.75687773


--------------------------------------------------------------------------------------------------------




--------------------------------------- Iteration      1(  13)  ---------------------------------------


    POTLOK:  cpu time    0.3699: real time    0.3725
    SETDIJ:  cpu time    0.0030: real time    0.0030
    TRIAL :  cpu time    2.6731: real time    2.6987
    CORREC:  cpu time    1.0424: real time    1.0519
    CHARGE:  cpu time    0.3108: real time    0.3132
    --------------------------------------------
      LOOP:  cpu time    4.4129: real time    4.4819

 eigenvalue-minimisations  :     0
 total energy-change (2. order) :-0.8673107E-02  (-0.2616818E-02)
 number of electron     216.0000000 magnetization 
 augmentation part       -0.4372780 magnetization 

 Free energy of the ion-electron system (eV)
  ---------------------------------------------------
  alpha Z        PSCENC =        47.94900195
  Ewald energy   TEWEN  =     41309.03722986
  -Hartree energ DENC   =    -48291.31179218
  -exchange      EXHF   =         0.00000000
  -V(xc)+E(xc)   XCENC  =       451.38278553
  PAW double counting   =    112453.98797226  -112193.22260806
  entropy T*S    EENTRO =        -0.00000000
  eigenvalues    EBANDS =     -2632.11172929
  atomic energy  EATOM  =      8369.52358910
  ---------------------------------------------------
  free energy    TOTEN  =      -484.76555084 eV

  energy without entropy =     -484.76555084  energy(sigma->0) =     -484.76555084


--------------------------------------------------------------------------------------------------------




--------------------------------------- Iteration      1(  14)  ---------------------------------------


    POTLOK:  cpu time    0.3644: real time    0.3670
    SETDIJ:  cpu time    0.0028: real time    0.0028
    TRIAL :  cpu time    2.6736: real time    2.6986
    CORREC:  cpu time    1.0432: real time    1.0525
    CHARGE:  cpu time    0.3104: real time    0.3127
    --------------------------------------------
      LOOP:  cpu time    4.4523: real time    4.5034

 eigenvalue-minimisations  :     0
 total energy-change (2. order) :-0.2618346E-02  (-0.7929124E-03)
 number of electron     216.0000000 magnetization 
 augmentation part       -0.4370191 magnetization 

 Free energy of the ion-electron system (eV)
  ---------------------------------------------------
  alpha Z        PSCENC =        47.94900195
  Ewald energy   TEWEN  =     41309.03722986
  -Hartree energ DENC   =    -48291.32172477
  -exchange      EXHF   =         0.00000000
  -V(xc)+E(xc)   XCENC  =       451.38146365
  PAW double counting   =    112492.22727220  -112231.46451181
  entropy T*S    EENTRO =        -0.00000000
  eigenvalues    EBANDS =     -2632.10048935
  atomic energy  EATOM  =      8369.52358910
  ---------------------------------------------------
  free energy    TOTEN  =      -484.76816918 eV

  energy without entropy =     -484.76816918  energy(sigma->0) =     -484.76816918


--------------------------------------------------------------------------------------------------------




--------------------------------------- Iteration      1(  15)  ---------------------------------------


    POTLOK:  cpu time    0.3656: real time    0.3679
    SETDIJ:  cpu time    0.0029: real time    0.0029
    TRIAL :  cpu time    2.6733: real time    2.7022
    CORREC:  cpu time    1.0488: real time    1.0571
    CHARGE:  cpu time    0.3098: real time    0.3120
    --------------------------------------------
      LOOP:  cpu time    4.4570: real time    4.5006

 eigenvalue-minimisations  :     0
 total energy-change (2. order) :-0.7949763E-03  (-0.3002971E-03)
 number of electron     216.0000000 magnetization 
 augmentation part       -0.4367030 magnetization 

 Free energy of the ion-electron system (eV)
  ---------------------------------------------------
  alpha Z        PSCENC =        47.94900195
  Ewald energy   TEWEN  =     41309.03722986
  -Hartree energ DENC   =    -48290.99504713
  -exchange      EXHF   =         0.00000000
  -V(xc)+E(xc)   XCENC  =       451.36726124
  PAW double counting   =    112522.38498645  -112261.62031397
  entropy T*S    EENTRO =        -0.00000000
  eigenvalues    EBANDS =     -2632.41567166
  atomic energy  EATOM  =      8369.52358910
  ---------------------------------------------------
  free energy    TOTEN  =      -484.76896416 eV

  energy without entropy =     -484.76896416  energy(sigma->0) =     -484.76896416


--------------------------------------------------------------------------------------------------------




--------------------------------------- Iteration      1(  16)  ---------------------------------------


    POTLOK:  cpu time    0.3643: real time    0.3670
    SETDIJ:  cpu time    0.0031: real time    0.0031
    TRIAL :  cpu time    2.6757: real time    2.7010
    CORREC:  cpu time    1.0432: real time    1.0515
    CHARGE:  cpu time    0.3090: real time    0.3120
    --------------------------------------------
      LOOP:  cpu time    4.4462: real time    4.4875

 eigenvalue-minimisations  :     0
 total energy-change (2. order) :-0.3016727E-03  (-0.1266679E-03)
 number of electron     216.0000000 magnetization 
 augmentation part       -0.4365297 magnetization 

 Free energy of the ion-electron system (eV)
  ---------------------------------------------------
  alpha Z        PSCENC =        47.94900195
  Ewald energy   TEWEN  =     41309.03722986
  -Hartree energ DENC   =    -48291.11273435
  -exchange      EXHF   =         0.00000000
  -V(xc)+E(xc)   XCENC  =       451.37218660
  PAW double counting   =    112496.46490846  -112235.70098154
  entropy T*S    EENTRO =        -0.00000000
  eigenvalues    EBANDS =     -2632.30246590
  atomic energy  EATOM  =      8369.52358910
  ---------------------------------------------------
  free energy    TOTEN  =      -484.76926583 eV

  energy without entropy =     -484.76926583  energy(sigma->0) =     -484.76926583


--------------------------------------------------------------------------------------------------------




--------------------------------------- Iteration      1(  17)  ---------------------------------------


    POTLOK:  cpu time    0.3651: real time    0.3675
    SETDIJ:  cpu time    0.0030: real time    0.0030
    TRIAL :  cpu time    2.6715: real time    2.7010
    CORREC:  cpu time    1.0446: real time    1.0532
    CHARGE:  cpu time    0.3097: real time    0.3122
    --------------------------------------------
      LOOP:  cpu time    4.4418: real time    4.4883

 eigenvalue-minimisations  :     0
 total energy-change (2. order) :-0.1272001E-03  (-0.5070580E-04)
 number of electron     216.0000000 magnetization 
 augmentation part       -0.4365443 magnetization 

 Free energy of the ion-electron system (eV)
  ---------------------------------------------------
  alpha Z        PSCENC =        47.94900195
  Ewald energy   TEWEN  =     41309.03722986
  -Hartree energ DENC   =    -48291.22235951
  -exchange      EXHF   =         0.00000000
  -V(xc)+E(xc)   XCENC  =       451.37559262
  PAW double counting   =    112460.47721131  -112199.71362283
  entropy T*S    EENTRO =        -0.00000000
  eigenvalues    EBANDS =     -2632.19603552
  atomic energy  EATOM  =      8369.52358910
  ---------------------------------------------------
  free energy    TOTEN  =      -484.76939303 eV

  energy without entropy =     -484.76939303  energy(sigma->0) =     -484.76939303


--------------------------------------------------------------------------------------------------------




--------------------------------------- Iteration      1(  18)  ---------------------------------------


    POTLOK:  cpu time    0.3638: real time    0.3665
    SETDIJ:  cpu time    0.0031: real time    0.0031
    TRIAL :  cpu time    2.6719: real time    2.6993
    CORREC:  cpu time    1.0874: real time    1.0964
    CHARGE:  cpu time    0.3101: real time    0.3124
    --------------------------------------------
      LOOP:  cpu time    4.4640: real time    4.5177

 eigenvalue-minimisations  :     0
 total energy-change (2. order) :-0.5060126E-04  (-0.1959731E-04)
 number of electron     216.0000000 magnetization 
 augmentation part       -0.4366241 magnetization 

 Free energy of the ion-electron system (eV)
  ---------------------------------------------------
  alpha Z        PSCENC =        47.94900195
  Ewald energy   TEWEN  =     41309.03722986
  -Hartree energ DENC   =    -48291.21349882
  -exchange      EXHF   =         0.00000000
  -V(xc)+E(xc)   XCENC  =       451.37500552
  PAW double counting   =    112450.71810302  -112189.95405635
  entropy T*S    EENTRO =        -0.00000000
  eigenvalues    EBANDS =     -2632.20481791
  atomic energy  EATOM  =      8369.52358910
  ---------------------------------------------------
  free energy    TOTEN  =      -484.76944363 eV

  energy without entropy =     -484.76944363  energy(sigma->0) =     -484.76944363


--------------------------------------------------------------------------------------------------------




--------------------------------------- Iteration      1(  19)  ---------------------------------------


    POTLOK:  cpu time    0.3647: real time    0.3670
    SETDIJ:  cpu time    0.0030: real time    0.0030
    TRIAL :  cpu time    2.6744: real time    2.6990
    CORREC:  cpu time    1.0423: real time    1.0509
    CHARGE:  cpu time    0.3108: real time    0.3132
    --------------------------------------------
      LOOP:  cpu time    4.5102: real time    4.5604

 eigenvalue-minimisations  :     0
 total energy-change (2. order) :-0.1920442E-04  (-0.6767207E-05)
 number of electron     216.0000000 magnetization 
 augmentation part       -0.4367040 magnetization 

 Free energy of the ion-electron system (eV)
  ---------------------------------------------------
  alpha Z        PSCENC =        47.94900195
  Ewald energy   TEWEN  =     41309.03722986
  -Hartree energ DENC   =    -48291.22710304
  -exchange      EXHF   =         0.00000000
  -V(xc)+E(xc)   XCENC  =       451.37573028
  PAW double counting   =    112457.48003774  -112196.71572864
  entropy T*S    EENTRO =        -0.00000000
  eigenvalues    EBANDS =     -2632.19222008
  atomic energy  EATOM  =      8369.52358910
  ---------------------------------------------------
  free energy    TOTEN  =      -484.76946284 eV

  energy without entropy =     -484.76946284  energy(sigma->0) =     -484.76946284


--------------------------------------------------------------------------------------------------------




--------------------------------------- Iteration      1(  20)  ---------------------------------------


    POTLOK:  cpu time    0.3638: real time    0.3663
    SETDIJ:  cpu time    0.0030: real time    0.0030
    TRIAL :  cpu time    2.6742: real time    2.6987
    CORREC:  cpu time    1.0443: real time    1.0531
    CHARGE:  cpu time    0.3091: real time    0.3115
    --------------------------------------------
      LOOP:  cpu time    4.4073: real time    4.4728

 eigenvalue-minimisations  :     0
 total energy-change (2. order) :-0.6432194E-05  (-0.2455045E-05)
 number of electron     216.0000000 magnetization 
 augmentation part       -0.4367150 magnetization 

 Free energy of the ion-electron system (eV)
  ---------------------------------------------------
  alpha Z        PSCENC =        47.94900195
  Ewald energy   TEWEN  =     41309.03722986
  -Hartree energ DENC   =    -48291.22446329
  -exchange      EXHF   =         0.00000000
  -V(xc)+E(xc)   XCENC  =       451.37517414
  PAW double counting   =    112464.55702444  -112203.79242055
  entropy T*S    EENTRO =        -0.00000000
  eigenvalues    EBANDS =     -2632.19460491
  atomic energy  EATOM  =      8369.52358910
  ---------------------------------------------------
  free energy    TOTEN  =      -484.76946927 eV

  energy without entropy =     -484.76946927  energy(sigma->0) =     -484.76946927


--------------------------------------------------------------------------------------------------------




--------------------------------------- Iteration      1(  21)  ---------------------------------------


    POTLOK:  cpu time    0.3653: real time    0.3677
    SETDIJ:  cpu time    0.0030: real time    0.0030
    TRIAL :  cpu time    2.6740: real time    2.6981
    CORREC:  cpu time    1.0422: real time    1.0509
    CHARGE:  cpu time    0.3106: real time    0.3128
    --------------------------------------------
      LOOP:  cpu time    4.4212: real time    4.4597

 eigenvalue-minimisations  :     0
 total energy-change (2. order) :-0.2330737E-05  (-0.1009134E-05)
 number of electron     216.0000000 magnetization 
 augmentation part       -0.4367204 magnetization 

 Free energy of the ion-electron system (eV)
  ---------------------------------------------------
  alpha Z        PSCENC =        47.94900195
  Ewald energy   TEWEN  =     41309.03722986
  -Hartree energ DENC   =    -48291.24006405
  -exchange      EXHF   =         0.00000000
  -V(xc)+E(xc)   XCENC  =       451.37596170
  PAW double counting   =    112466.64889606  -112205.88445173
  entropy T*S    EENTRO =        -0.00000000
  eigenvalues    EBANDS =     -2632.17963450
  atomic energy  EATOM  =      8369.52358910
  ---------------------------------------------------
  free energy    TOTEN  =      -484.76947160 eV

  energy without entropy =     -484.76947160  energy(sigma->0) =     -484.76947160


--------------------------------------------------------------------------------------------------------




--------------------------------------- Iteration      1(  22)  ---------------------------------------


    POTLOK:  cpu time    0.3642: real time    0.3666
    SETDIJ:  cpu time    0.0030: real time    0.0030
    TRIAL :  cpu time    2.6761: real time    2.7004
    CORREC:  cpu time    1.0432: real time    1.0519
    EDDIAG:  cpu time    0.5934: real time    0.5988
    CHARGE:  cpu time    0.3103: real time    0.3127
    --------------------------------------------
      LOOP:  cpu time    5.0585: real time    5.1189

 eigenvalue-minimisations  :     0
 total energy-change (2. order) :-0.9881041E-06  (-0.4567838E-06)
 number of electron     216.0000000 magnetization 
 augmentation part       -0.4367126 magnetization 

 Free energy of the ion-electron system (eV)
  ---------------------------------------------------
  alpha Z        PSCENC =        47.94900195
  Ewald energy   TEWEN  =     41309.03722986
  -Hartree energ DENC   =    -48291.22807524
  -exchange      EXHF   =         0.00000000
  -V(xc)+E(xc)   XCENC  =       451.37536154
  PAW double counting   =    112466.12910824  -112205.36463400
  entropy T*S    EENTRO =        -0.00000000
  eigenvalues    EBANDS =     -2632.19105404
  atomic energy  EATOM  =      8369.52358910
  ---------------------------------------------------
  free energy    TOTEN  =      -484.76947259 eV

  energy without entropy =     -484.76947259  energy(sigma->0) =     -484.76947259


--------------------------------------------------------------------------------------------------------


  average scaling for gradient   0.9148


 average (electrostatic) potential at core
  the test charge radii are     0.5770  0.5955
  (the norm of the test charge is              1.0000)
       1 -85.6354       2 -85.6350       3 -85.6353       4 -85.6359       5 -85.6344
       6 -85.6344       7 -85.6353       8 -85.6343       9 -85.6346      10 -85.6347
      11 -85.6345      12 -85.6344      13 -85.6347      14 -85.6346      15 -85.6343
      16 -85.6345      17 -85.6349      18 -85.6351      19 -85.6353      20 -85.6349
      21 -85.6342      22 -85.6342      23 -85.6362      24 -85.6362      25 -85.6343
      26 -85.6344      27 -85.6347      28 -85.6355      29 -85.6342      30 -85.6343
      31 -85.6356      32 -85.6351      33 -85.6345      34 -85.6345      35 -85.6345
      36 -85.6346      37 -85.6350      38 -85.6352      39 -85.6350      40 -85.6351
      41 -85.6350      42 -85.6351      43 -85.6349      44 -85.6353      45 -85.6344
      46 -85.6344      47 -85.6344      48 -85.6344      49 -85.6351      50 -85.6349
      51 -89.5732      52-120.3525      53-120.3519
 
 
 
 E-fermi :  -4.2985     XC(G=0):  -1.9483     alpha+bet : -1.6890

 Fermi energy:        -4.2985374011

 k-point     1 :       0.0000    0.0000    0.0000
  band No.  band energies     occupation 
      1     -27.6743      2.00000
      2     -26.6691      2.00000
      3     -22.3847      2.00000
      4     -21.4455      2.00000
      5     -21.4441      2.00000
      6     -21.4439      2.00000
      7     -21.4437      2.00000
      8     -21.4435      2.00000
      9     -21.4430      2.00000
     10     -19.6004      2.00000
     11     -19.6003      2.00000
     12     -19.6001      2.00000
     13     -19.5994      2.00000
     14     -19.5989      2.00000
     15     -19.5987      2.00000
     16     -18.7024      2.00000
     17     -18.7023      2.00000
     18     -18.7018      2.00000
     19     -18.7016      2.00000
     20     -18.7009      2.00000
     21     -18.7006      2.00000
     22     -16.5344      2.00000
     23     -16.5341      2.00000
     24     -16.5334      2.00000
     25     -16.5332      2.00000
     26     -16.5327      2.00000
     27     -16.5326      2.00000
     28     -15.5486      2.00000
     29     -15.5486      2.00000
     30     -15.5475      2.00000
     31     -15.5474      2.00000
     32     -15.5470      2.00000
     33     -15.5469      2.00000
     34     -14.1950      2.00000
     35     -14.1949      2.00000
     36     -14.1942      2.00000
     37     -14.1941      2.00000
     38     -14.1940      2.00000
     39     -14.1937      2.00000
     40     -12.4776      2.00000
     41     -11.8060      2.00000
     42     -11.8058      2.00000
     43     -11.8053      2.00000
     44     -11.8052      2.00000
     45     -11.8041      2.00000
     46     -11.8039      2.00000
     47     -11.7091      2.00000
     48     -11.7089      2.00000
     49     -11.7083      2.00000
     50     -11.7082      2.00000
     51     -11.7081      2.00000
     52     -11.7079      2.00000
     53     -11.2881      2.00000
     54     -11.2235      2.00000
     55     -11.2234      2.00000
     56     -10.4766      2.00000
     57     -10.3320      2.00000
     58     -10.3318      2.00000
     59     -10.3303      2.00000
     60     -10.3299      2.00000
     61     -10.3297      2.00000
     62     -10.3296      2.00000
     63      -9.3608      2.00000
     64      -9.3597      2.00000
     65      -9.3594      2.00000
     66      -9.3593      2.00000
     67      -9.3592      2.00000
     68      -9.3589      2.00000
     69      -9.0523      2.00000
     70      -9.0511      2.00000
     71      -9.0507      2.00000
     72      -9.0507      2.00000
     73      -9.0504      2.00000
     74      -9.0501      2.00000
     75      -9.0035      2.00000
     76      -9.0032      2.00000
     77      -9.0024      2.00000
     78      -9.0023      2.00000
     79      -9.0022      2.00000
     80      -9.0013      2.00000
     81      -7.6768      2.00000
     82      -7.6767      2.00000
     83      -7.3959      2.00000
     84      -7.3942      2.00000
     85      -7.3940      2.00000
     86      -7.3937      2.00000
     87      -7.3928      2.00000
     88      -7.3927      2.00000
     89      -7.2309      2.00000
     90      -7.2306      2.00000
     91      -7.2305      2.00000
     92      -7.2300      2.00000
     93      -7.2297      2.00000
     94      -7.2294      2.00000
     95      -6.3343      2.00000
     96      -6.3342      2.00000
     97      -6.3339      2.00000
     98      -6.3338      2.00000
     99      -6.3331      2.00000
    100      -6.3329      2.00000
    101      -5.9064      2.00000
    102      -5.9042      2.00000
    103      -4.3513      2.00000
    104      -4.3509      2.00000
    105      -4.3504      2.00000
    106      -4.3503      2.00000
    107      -4.3498      2.00000
    108      -4.3498      2.00000
    109      -1.5483      0.00000
    110      -1.5481      0.00000
    111      -1.5478      0.00000
    112      -1.5477      0.00000
    113      -1.5470      0.00000
    114      -1.5467      0.00000
    115       0.2991      0.00000
    116       0.3159      0.00000
    117       0.3162      0.00000
    118       0.3165      0.00000
    119       0.3166      0.00000
    120       0.3169      0.00000
    121       0.3181      0.00000
    122       0.4589      0.00000
    123       0.8389      0.00000
    124       1.1922      0.00000
    125       1.2960      0.00000
    126       1.6430      0.00000
    127       1.6648      0.00000
    128       1.6676      0.00000
    129       1.6797      0.00000
    130       1.6812      0.00000
    131       1.6834      0.00000
    132       1.9755      0.00000
    133       2.0574      0.00000
    134       2.0609      0.00000
    135       2.0688      0.00000
    136       2.0876      0.00000
    137       2.1754      0.00000
    138       2.5501      0.00000
    139       2.6797      0.00000
    140       2.9477      0.00000


--------------------------------------------------------------------------------------------------------


 soft charge-density along one line, spin component           1
         0         1         2         3         4         5         6         7         8         9
 total charge-density along one line
 
 pseudopotential strength for first ion, spin component:           1
 12.703  21.376   0.000   0.000   0.000   0.000   0.000   0.000
 21.376  35.970   0.000   0.000   0.000   0.000   0.000   0.000
  0.000   0.000  -3.169  -0.000   0.000  -5.681  -0.000   0.000
  0.000   0.000  -0.000  -3.171  -0.000  -0.000  -5.683  -0.000
  0.000   0.000   0.000  -0.000  -3.169   0.000  -0.000  -5.681
  0.000   0.000  -5.681  -0.000   0.000 -10.161  -0.000   0.000
  0.000   0.000  -0.000  -5.683  -0.000  -0.000 -10.163  -0.000
  0.000   0.000   0.000  -0.000  -5.681   0.000  -0.000 -10.161
 total augmentation occupancy for first ion, spin component:           1
  7.880  -2.765  -0.000  -0.002  -0.000   0.000   0.001   0.000
 -2.765   1.007   0.000   0.001   0.000  -0.000  -0.000  -0.000
 -0.000   0.000   7.264  -0.008   0.000  -2.462   0.003  -0.000
 -0.002   0.001  -0.008   3.235  -0.000   0.003  -0.862   0.000
 -0.000   0.000   0.000  -0.000   7.263  -0.000   0.000  -2.462
  0.000  -0.000  -2.462   0.003  -0.000   0.849  -0.001   0.000
  0.001  -0.000   0.003  -0.862   0.000  -0.001   0.236  -0.000
  0.000  -0.000  -0.000   0.000  -2.462   0.000  -0.000   0.849


------------------------ aborting loop because EDIFF is reached ----------------------------------------


    FORLOC:  cpu time    0.0668: real time    0.0674
    FORNL :  cpu time    1.0852: real time    1.0981
    FORCOR:  cpu time    0.3835: real time    0.3861
    OFIELD:  cpu time    0.0017: real time    0.0017

 ---------------------------------------------------------------------------------------------

         DFTD3 V3.0 Rev 1        
 IVDW         = 11
 DF pbe       
 parameters
 VDW_S6       =    1.0000
 VDW_S8       =    0.7220
 VDW_SR       =    1.2170
 rs18     =    1.0000
 alpha6   =   14.0000
 alpha8   =   16.0000
 k1-k3    =   16.0000    1.3333   -4.0000
 VDW_RADIUS   =   50.2022 A
 VDW_CNRADIUS =   21.1671 A
 Edisp (eV)   -1.72398

 E6    (eV) :    -0.9703
 E8    (eV) :    -0.7537
 % E8        : 43.72
    FORVDW:  cpu time    0.1598: real time    0.1615

 VOLUME and BASIS-vectors are now :
 -----------------------------------------------------------------------------
  energy-cutoff  :     1000.00
  volume of cell :     3288.85
      direct lattice vectors                 reciprocal lattice vectors
    12.325000000  0.000000000  0.000000000     0.081135903  0.046843835  0.000000000
    -6.162500000 10.673763102  0.000000000     0.000000000  0.093687670  0.000000000
     0.000000000  0.000000000 25.000000000     0.000000000  0.000000000  0.040000000

  length of vectors
    12.325000000 12.325000000 25.000000000     0.093687670  0.093687670  0.040000000


 FORCES acting on ions:
    Electron-Ion                     Ewald-Force                    Non-Local-Force
 -----------------------------------------------------------------------------------------------
   0.629E+00 0.561E+00 0.136E+02   -.629E+00 -.562E+00 -.136E+02   0.426E-02 -.625E-03 0.576E-02
   0.861E+00 0.485E+00 0.146E+02   -.864E+00 -.482E+00 -.146E+02   0.260E-02 -.301E-02 -.575E-02
   0.343E+00 0.940E+00 0.146E+02   -.344E+00 -.940E+00 -.146E+02   -.268E-04 0.112E-01 -.186E-02
   0.429E+00 0.632E+00 0.168E+02   -.427E+00 -.631E+00 -.168E+02   0.114E-01 0.687E-03 -.160E-01
   0.711E+00 0.191E+00 0.141E+02   -.710E+00 -.191E+00 -.141E+02   -.859E-03 -.515E-02 0.379E-02
   0.726E+00 -.164E+00 0.143E+02   -.729E+00 0.165E+00 -.143E+02   -.649E-02 0.358E-02 -.207E-02
   0.817E+00 0.376E+00 0.169E+02   -.818E+00 -.377E+00 -.169E+02   0.113E-01 -.188E-01 -.682E-02
   0.846E+00 -.258E+00 0.181E+02   -.851E+00 0.261E+00 -.181E+02   -.763E-02 -.497E-02 -.561E-02
   -.405E+00 0.933E+00 0.150E+02   0.408E+00 -.936E+00 -.150E+02   0.446E-03 -.134E-01 -.487E-02
   -.505E+00 0.450E+00 0.171E+02   0.506E+00 -.451E+00 -.171E+02   -.253E-01 0.144E-01 0.180E-02
   0.189E+00 -.192E+00 0.134E+02   -.186E+00 0.192E+00 -.134E+02   0.389E-02 -.279E-02 0.762E-03
   0.191E+00 -.156E+00 0.132E+02   -.192E+00 0.157E+00 -.132E+02   -.642E-02 0.324E-02 0.660E-02
   0.219E+00 -.652E+00 0.189E+02   -.219E+00 0.654E+00 -.189E+02   0.261E-01 -.720E-02 -.265E-02
   0.144E+00 -.102E+01 0.162E+02   -.147E+00 0.103E+01 -.162E+02   0.328E-02 0.716E-02 -.158E-01
   -.672E+00 0.401E+00 0.137E+02   0.674E+00 -.402E+00 -.137E+02   0.749E-02 -.404E-02 0.808E-02
   -.839E+00 0.223E+00 0.139E+02   0.839E+00 -.223E+00 -.139E+02   -.131E-02 0.498E-02 -.429E-02
   -.117E+00 -.506E-01 0.128E+02   0.120E+00 0.490E-01 -.128E+02   0.248E-03 0.175E-03 0.216E-02
   0.575E-01 0.411E+00 0.129E+02   -.572E-01 -.412E+00 -.129E+02   -.257E-02 0.127E-02 0.918E-02
   -.181E+00 -.968E+00 0.148E+02   0.181E+00 0.969E+00 -.148E+02   0.560E-02 -.131E-02 0.126E-03
   -.109E+00 -.602E+00 0.136E+02   0.106E+00 0.603E+00 -.136E+02   -.389E-03 -.706E-03 -.552E-03
   0.920E+00 -.384E+00 0.156E+02   -.920E+00 0.385E+00 -.156E+02   -.206E-02 -.192E-02 -.156E-01
   0.668E+00 -.531E+00 0.147E+02   -.670E+00 0.533E+00 -.147E+02   -.698E-02 0.543E-02 -.116E-02
   -.150E+00 0.255E+00 0.187E+02   0.146E+00 -.253E+00 -.187E+02   -.998E-02 0.102E-01 -.462E-03
   -.228E+00 -.404E+00 0.187E+02   0.230E+00 0.402E+00 -.187E+02   0.119E-01 -.145E-01 -.118E-01
   0.359E+00 -.131E+00 0.135E+02   -.357E+00 0.129E+00 -.135E+02   0.380E-02 -.268E-02 -.234E-02
   0.112E+00 0.302E+00 0.133E+02   -.113E+00 -.301E+00 -.133E+02   -.478E-02 0.319E-02 0.621E-02
   -.997E+00 0.791E-01 0.154E+02   0.100E+01 -.811E-01 -.155E+02   0.125E-01 0.747E-02 -.243E-02
   -.909E+00 -.386E+00 0.149E+02   0.910E+00 0.386E+00 -.149E+02   -.800E-02 0.887E-02 0.144E-03
   0.353E+00 -.754E+00 0.148E+02   -.352E+00 0.754E+00 -.148E+02   0.397E-02 0.246E-02 -.591E-02
   0.362E-01 -.331E+00 0.137E+02   -.383E-01 0.333E+00 -.137E+02   -.495E-02 0.241E-02 -.144E-02
   -.650E+00 -.638E+00 0.159E+02   0.648E+00 0.639E+00 -.158E+02   -.114E-01 -.786E-02 -.139E-01
   -.484E+00 -.927E+00 0.146E+02   0.486E+00 0.926E+00 -.146E+02   0.523E-03 -.595E-03 0.128E-02
   0.331E-01 0.212E+00 0.131E+02   -.328E-01 -.212E+00 -.131E+02   0.467E-02 -.451E-02 0.757E-02
   0.117E+00 0.179E+00 0.132E+02   -.119E+00 -.178E+00 -.132E+02   -.245E-02 0.467E-02 -.465E-03
   -.444E+00 0.855E-01 0.134E+02   0.447E+00 -.865E-01 -.134E+02   0.423E-02 -.249E-02 0.662E-02
   -.389E+00 -.187E+00 0.133E+02   0.388E+00 0.187E+00 -.133E+02   -.353E-02 0.219E-02 0.430E-02
   -.728E+00 -.406E+00 0.135E+02   0.731E+00 0.404E+00 -.135E+02   -.315E-03 0.840E-03 0.326E-02
   -.489E+00 -.396E+00 0.131E+02   0.489E+00 0.396E+00 -.131E+02   -.340E-02 0.121E-02 0.876E-02
   -.451E+00 -.564E+00 0.133E+02   0.450E+00 0.566E+00 -.133E+02   -.262E-02 0.347E-03 0.423E-02
   -.657E-01 -.164E+00 0.130E+02   0.667E-01 0.163E+00 -.130E+02   0.173E-02 0.763E-03 0.703E-02
   0.174E+00 0.427E+00 0.129E+02   -.175E+00 -.427E+00 -.129E+02   -.380E-02 0.144E-02 0.652E-02
   0.519E+00 0.771E+00 0.135E+02   -.518E+00 -.772E+00 -.136E+02   -.102E-02 -.106E-02 0.692E-02
   0.650E-01 0.697E+00 0.131E+02   -.621E-01 -.698E+00 -.131E+02   0.258E-03 0.294E-03 0.233E-02
   0.816E-02 0.996E+00 0.142E+02   -.769E-02 -.998E+00 -.142E+02   -.754E-02 0.130E-02 0.477E-02
   -.138E+00 0.250E+00 0.135E+02   0.140E+00 -.252E+00 -.135E+02   0.422E-02 -.314E-02 0.229E-02
   -.474E+00 0.618E+00 0.139E+02   0.474E+00 -.618E+00 -.139E+02   -.565E-02 -.736E-04 -.681E-03
   -.152E+00 -.314E+00 0.135E+02   0.153E+00 0.313E+00 -.135E+02   0.583E-02 -.116E-02 0.649E-02
   -.284E+00 0.961E-01 0.131E+02   0.283E+00 -.954E-01 -.131E+02   -.382E-02 0.328E-02 -.228E-02
   0.209E-01 -.187E+00 0.131E+02   -.209E-01 0.187E+00 -.131E+02   0.389E-02 -.299E-02 0.565E-02
   0.302E+00 0.218E+00 0.130E+02   -.304E+00 -.217E+00 -.130E+02   -.765E-03 0.182E-02 0.330E-02
   -.246E-02 0.276E-01 -.179E+03   -.143E-02 -.241E-01 0.180E+03   -.289E-02 0.189E-02 -.287E-02
   -.229E+03 0.156E+03 -.282E+03   0.279E+03 -.190E+03 0.285E+03   -.511E+02 0.348E+02 -.343E+01
   0.229E+03 -.156E+03 -.260E+03   -.279E+03 0.190E+03 0.257E+03   0.511E+02 -.348E+02 0.309E+01
 -----------------------------------------------------------------------------------------------
   -.662E-02 0.132E-01 0.344E+00   0.114E-12 -.114E-12 -.114E-12   0.709E-02 -.137E-01 -.343E+00
 
 
 POSITION                                       TOTAL-FORCE (eV/Angst)
 -----------------------------------------------------------------------------------
     11.98348      0.00342      0.01417         0.003266     -0.001663     -0.000960
     -0.34154      1.42665      0.01100        -0.000566     -0.000102     -0.003398
      2.12355      0.00315      0.01249        -0.001767      0.010969     -0.006367
      2.12326      1.42653      0.00641         0.013581      0.001340     -0.008424
     10.75099      2.13819      0.01213         0.000411     -0.005749     -0.000040
     -1.57382      3.56123      0.01110        -0.009023      0.004744     -0.001389
      0.89078      2.13854      0.00548         0.009792     -0.019285      0.002268
      0.89099      3.56147      0.00181        -0.011747     -0.002556      0.011548
      4.58864      0.00346      0.01135         0.003525     -0.015800     -0.003494
      4.58894      1.42623      0.00646        -0.023904      0.013505      0.013647
      9.51854      4.27281      0.01369         0.006542     -0.003096      0.000215
     -2.80632      5.69591      0.01434        -0.006615      0.003426      0.000795
      2.12300      4.27302      0.00000         0.025394     -0.005204      0.020058
      2.12335      5.69594      0.00581        -0.000432      0.009110     -0.002716
      7.05344      0.00333      0.01399         0.009386     -0.005263     -0.000305
      7.05353      1.42635      0.01368        -0.001750      0.005027     -0.003770
      8.28610      6.40752      0.01601         0.002872     -0.001432     -0.000779
     -4.03885      7.83070      0.01636        -0.002256      0.000863     -0.000047
      3.35586      6.40753      0.01007         0.005582      0.000489     -0.001219
      3.35599      7.83072      0.01320        -0.003137     -0.000033     -0.000655
     -0.34146      4.27290      0.00723        -0.001828     -0.001493     -0.004517
     -0.34138      5.69591      0.00946        -0.009237      0.006561     -0.001017
      3.35624      2.13791      0.00222        -0.013812      0.012131      0.015598
      3.35573      3.56155      0.00139         0.013763     -0.016148      0.008109
     -1.57395      6.40758      0.01311         0.005367     -0.003931     -0.000574
     -1.57385      7.83068      0.01438        -0.004920      0.003807      0.000082
      5.82093      2.13784      0.01033         0.015958      0.005268     -0.002947
      5.82114      3.56097      0.01156        -0.006524      0.008697     -0.003622
      0.89092      6.40755      0.00907         0.004652      0.002323     -0.002222
      0.89106      7.83068      0.01235        -0.006840      0.003914      0.000381
      4.58871      4.27293      0.00850        -0.013163     -0.006600     -0.010848
      4.58852      5.69606      0.01149         0.001961     -0.001254     -0.003931
      9.51845      0.00337      0.01490         0.004811     -0.004666      0.000207
      9.51855      1.42644      0.01438        -0.005133      0.005417     -0.000300
      8.28593      2.13803      0.01453         0.006762     -0.003377      0.000655
      8.28613      3.56115      0.01464        -0.004410      0.002272     -0.000008
      7.05356      4.27269      0.01457         0.002528     -0.001091     -0.000629
      7.05362      5.69588      0.01553        -0.002529      0.001584     -0.000044
      5.82112      6.40755      0.01489        -0.003028      0.001600     -0.000052
      5.82102      7.83073      0.01579         0.002735      0.000253     -0.000257
      7.05363      8.54227      0.01631        -0.004700      0.001329      0.001080
     -5.27149      9.96549      0.01495         0.000179     -0.001974     -0.002106
     -2.80638      8.54234      0.01558         0.003109     -0.001308     -0.001189
     -2.80627      9.96553      0.01362        -0.006929     -0.000026     -0.003734
     -0.34149      8.54239      0.01378         0.005811     -0.004932      0.000270
     -0.34138      9.96550      0.01354        -0.005963     -0.000052     -0.001235
      2.12343      8.54232      0.01336         0.005931     -0.001541      0.000790
      2.12354      9.96544      0.01469        -0.005148      0.003835     -0.001859
      4.58846      8.54235      0.01505         0.003733     -0.002798      0.001034
      4.58853      9.96550      0.01517        -0.002731      0.003343      0.000169
      3.04930      2.68154      8.40896        -0.006620      0.005340      0.033387
      4.02070      2.02068      8.47339        -0.520689      0.353787     -0.051171
      2.07767      3.34267      8.34951         0.527749     -0.359560      0.015530
 -----------------------------------------------------------------------------------
    total drift:                                0.000475     -0.000503      0.000504


--------------------------------------------------------------------------------------------------------



  FREE ENERGIE OF THE ION-ELECTRON SYSTEM (eV)
  ---------------------------------------------------
  free  energy   TOTEN  =      -486.49345106 eV

  energy  without entropy=     -486.49345106  energy(sigma->0) =     -486.49345106
 


--------------------------------------------------------------------------------------------------------


    POTLOK:  cpu time    0.3700: real time    0.3725


--------------------------------------------------------------------------------------------------------


     LOOP+:  cpu time  142.0283: real time  143.6815
    4ORBIT:  cpu time    0.0000: real time    0.0000

 total amount of memory used by VASP MPI-rank0   215378. kBytes
=======================================================================

   base      :      30000. kBytes
   nonl-proj :      57634. kBytes
   fftplans  :      45914. kBytes
   grid      :      67588. kBytes
   one-center:         43. kBytes
   wavefun   :      14199. kBytes
 
  
  
 General timing and accounting informations for this job:
 ========================================================
  
                  Total CPU time used (sec):      183.465
                            User time (sec):      169.115
                          System time (sec):       14.350
                         Elapsed time (sec):      186.263
  
                   Maximum memory used (kb):      584596.
                   Average memory used (kb):          N/A
  
                          Minor page faults:       220013
                          Major page faults:           91
                 Voluntary context switches:         3525
