 vasp.6.2.1 16May21 (build Nov 06 2021 14:46:37) complex                        
  
 executed on             LinuxIFC date 2025.03.03  16:59:24
 running on  112 total cores
 distrk:  each k-point on  112 cores,    1 groups
 distr:  one band on NCORE=   4 cores,   28 groups


--------------------------------------------------------------------------------------------------------


 INCAR:
   ALGO = Conjugate
   NCORE = 4
   ISMEAR = 0
   SIGMA = 0.01
   PREC = Accurate
   EDIFF = 1E-6
   ENCUT = 1000
   ISIF = 0
   IVDW = 11
   LWAVE = .FALSE.
   LCHARGE = .FALSE.
   SYMPREC = 1E-6

 POTCAR:    PAW_PBE C_h 06Feb2004                 
 POTCAR:    PAW_PBE O_h 06Feb2004                 
 -----------------------------------------------------------------------------
|                                                                             |
|           W    W    AA    RRRRR   N    N  II  N    N   GGGG   !!!           |
|           W    W   A  A   R    R  NN   N  II  NN   N  G    G  !!!           |
|           W    W  A    A  R    R  N N  N  II  N N  N  G       !!!           |
|           W WW W  AAAAAA  RRRRR   N  N N  II  N  N N  G  GGG   !            |
|           WW  WW  A    A  R   R   N   NN  II  N   NN  G    G                |
|           W    W  A    A  R    R  N    N  II  N    N   GGGG   !!!           |
|                                                                             |
|     For optimal performance we recommend to set                             |
|       NCORE = 2 up to number-of-cores-per-socket                            |
|     NCORE specifies how many cores store one orbital (NPAR=cpu/NCORE).      |
|     This setting can greatly improve the performance of VASP for DFT.       |
|     The default, NCORE=1 might be grossly inefficient on modern             |
|     multi-core architectures or massively parallel machines. Do your        |
|     own testing! More info at https://www.vasp.at/wiki/index.php/NCORE      |
|     Unfortunately you need to use the default for GW and RPA                |
|     calculations (for HF NCORE is supported but not extensively tested      |
|     yet).                                                                   |
|                                                                             |
 -----------------------------------------------------------------------------

 POTCAR:    PAW_PBE C_h 06Feb2004                 
   VRHFIN =C: s2p2                                                                                  
   LEXCH  = PE                                                                                      
   EATOM  =   147.1560 eV,   10.8157 Ry                                                             
                                                                                                    
   TITEL  = PAW_PBE C_h 06Feb2004                                                                   
   LULTRA =        F    use ultrasoft PP ?                                                          
   IUNSCR =        1    unscreen: 0-lin 1-nonlin 2-no                                               
   RPACOR =    0.800    partial core radius                                                         
   POMASS =   12.011; ZVAL   =    4.000    mass and valenz                                          
   RCORE  =    1.100    outmost cutoff radius                                                       
   RWIGS  =    1.630; RWIGS  =    0.863    wigner-seitz radius (au A)                               
   ENMAX  =  700.000; ENMIN  =  500.000 eV                                                          
   ICORE  =        2    local potential                                                             
   LCOR   =        T    correct aug charges                                                         
   LPAW   =        T    paw PP                                                                      
   EAUG   =  946.768                                                                                
   DEXC   =    0.000                                                                                
   RMAX   =    1.128    core radius for proj-oper                                                   
   RAUG   =    1.300    factor for augmentation sphere                                              
   RDEP   =    1.162    radius for radial grids                                                     
   RDEPT  =    1.088    core radius for aug-charge                                                  
                                                                                                    
   Atomic configuration                                                                             
    4 entries                                                                                       
     n  l   j            E        occ.                                                              
     1  0  0.50      -273.3789   2.0000                                                             
     2  0  0.50       -13.7508   2.0000                                                             
     2  1  0.50        -5.2854   2.0000                                                             
     3  2  1.50        -5.4423   0.0000                                                             
   Description                                                                                      
     l       E           TYP  RCUT    TYP  RCUT                                                     
     0    -13.7508458     23  1.100                                                                 
     0     -8.2022199     23  1.100                                                                 
     1     -5.2854383     23  1.100                                                                 
     1      1.1560700     23  1.100                                                                 
     2     -5.4423304      7  1.100                                                                 
  local pseudopotential read in
  partial core-charges read in
  partial kinetic energy density read in
  atomic valenz-charges read in
  non local Contribution for L=           0  read in
    real space projection operators read in
  non local Contribution for L=           0  read in
    real space projection operators read in
  non local Contribution for L=           1  read in
    real space projection operators read in
  non local Contribution for L=           1  read in
    real space projection operators read in
    PAW grid and wavefunctions read in
 
   number of l-projection  operators is LMAX  =           4
   number of lm-projection operators is LMMAX =           8
 
 POTCAR:    PAW_PBE O_h 06Feb2004                 
   VRHFIN =O: s2p4                                                                                  
   LEXCH  = PE                                                                                      
   EATOM  =   432.3788 eV,   31.7789 Ry                                                             
                                                                                                    
   TITEL  = PAW_PBE O_h 06Feb2004                                                                   
   LULTRA =        F    use ultrasoft PP ?                                                          
   IUNSCR =        1    unscreen: 0-lin 1-nonlin 2-no                                               
   RPACOR =    0.800    partial core radius                                                         
   POMASS =   16.000; ZVAL   =    6.000    mass and valenz                                          
   RCORE  =    1.100    outmost cutoff radius                                                       
   RWIGS  =    1.400; RWIGS  =    0.741    wigner-seitz radius (au A)                               
   ENMAX  =  700.000; ENMIN  =  500.000 eV                                                          
   ICORE  =        2    local potential                                                             
   LCOR   =        T    correct aug charges                                                         
   LPAW   =        T    paw PP                                                                      
   EAUG   =  888.804                                                                                
   DEXC   =    0.000                                                                                
   RMAX   =    1.128    core radius for proj-oper                                                   
   RAUG   =    1.300    factor for augmentation sphere                                              
   RDEP   =    1.125    radius for radial grids                                                     
   RDEPT  =    1.088    core radius for aug-charge                                                  
                                                                                                    
   Atomic configuration                                                                             
    4 entries                                                                                       
     n  l   j            E        occ.                                                              
     1  0  0.50      -514.6923   2.0000                                                             
     2  0  0.50       -23.9615   2.0000                                                             
     2  1  0.50        -9.0305   4.0000                                                             
     3  2  1.50        -9.5241   0.0000                                                             
   Description                                                                                      
     l       E           TYP  RCUT    TYP  RCUT                                                     
     0    -23.9615319     23  1.100                                                                 
     0    -25.3221145     23  1.100                                                                 
     1     -9.0304911     23  1.100                                                                 
     1     -5.4802209     23  1.100                                                                 
     2     -9.5240782      7  1.100                                                                 
  local pseudopotential read in
  partial core-charges read in
  partial kinetic energy density read in
  atomic valenz-charges read in
  non local Contribution for L=           0  read in
    real space projection operators read in
  non local Contribution for L=           0  read in
    real space projection operators read in
  non local Contribution for L=           1  read in
    real space projection operators read in
  non local Contribution for L=           1  read in
    real space projection operators read in
    PAW grid and wavefunctions read in
 
   number of l-projection  operators is LMAX  =           4
   number of lm-projection operators is LMMAX =           8
 
 -----------------------------------------------------------------------------
|                                                                             |
|               ----> ADVICE to this user running VASP <----                  |
|                                                                             |
|     You have a (more or less) 'large supercell' and for larger cells it     |
|     might be more efficient to use real-space projection operators.         |
|     Therefore, try LREAL= Auto in the INCAR file.                           |
|     Mind: For very accurate calculation, you might also keep the            |
|     reciprocal projection scheme (i.e. LREAL=.FALSE.).                      |
|                                                                             |
 -----------------------------------------------------------------------------

  PAW_PBE C_h 06Feb2004                 :
 energy of atom  1       EATOM= -147.1560
 kinetic energy error for atom=    0.0031 (will be added to EATOM!!)
  PAW_PBE O_h 06Feb2004                 :
 energy of atom  2       EATOM= -432.3788
 kinetic energy error for atom=    0.0171 (will be added to EATOM!!)
 
 
 POSCAR:  C  O
  positions in cartesian coordinates
  No initial velocities read in
 exchange correlation table for  LEXCH =        8
   RHO(1)=    0.500       N(1)  =     2000
   RHO(2)=  100.500       N(2)  =     4000
 


--------------------------------------------------------------------------------------------------------


 ion  position               nearest neighbor table
   1  0.972  0.000  0.001-  50 1.42   2 1.42  42 1.42
   2  0.039  0.134  0.001-   5 1.42   7 1.42   1 1.42
   3  0.172  0.000  0.001-  42 1.42  44 1.42   4 1.42
   4  0.239  0.134  0.000-   7 1.42   3 1.42  23 1.42
   5  0.972  0.200  0.001-   6 1.42   2 1.42  34 1.42
   6  0.039  0.334  0.001-   5 1.42  21 1.42  11 1.42
   7  0.172  0.200  0.000-   8 1.42   2 1.42   4 1.42
   8  0.239  0.334  0.000-  13 1.42   7 1.42  21 1.42
   9  0.372  0.000  0.001-  10 1.42  44 1.42  46 1.42
  10  0.439  0.134  0.000-  27 1.42   9 1.42  23 1.42
  11  0.972  0.400  0.001-  12 1.42  36 1.42   6 1.42
  12  0.039  0.534  0.001-  25 1.42  11 1.42  17 1.42
  13  0.372  0.400  0.000-   8 1.42  14 1.42  24 1.42
  14  0.439  0.534  0.000-  13 1.42  29 1.42  19 1.42
  15  0.572  0.000  0.001-  46 1.42  16 1.42  48 1.42
  16  0.639  0.134  0.001-  15 1.42  35 1.42  27 1.42
  17  0.972  0.600  0.001-  38 1.42  18 1.42  12 1.42
  18  0.039  0.734  0.001-  43 1.42  41 1.42  17 1.42
  19  0.572  0.600  0.001-  14 1.42  20 1.42  32 1.42
  20  0.639  0.734  0.001-  49 1.42  19 1.42  47 1.42
  21  0.172  0.400  0.000-  22 1.42   8 1.42   6 1.42
  22  0.239  0.534  0.000-  21 1.42  29 1.42  25 1.42
  23  0.372  0.200  0.000-  10 1.42   4 1.42  24 1.42
  24  0.439  0.334  0.000-  13 1.42  31 1.42  23 1.42
  25  0.172  0.600  0.001-  26 1.42  12 1.42  22 1.42
  26  0.239  0.734  0.001-  25 1.42  45 1.42  43 1.42
  27  0.572  0.200  0.001-  10 1.42  28 1.42  16 1.42
  28  0.639  0.334  0.001-  27 1.42  37 1.42  31 1.42
  29  0.372  0.600  0.000-  22 1.42  14 1.42  30 1.42
  30  0.439  0.734  0.001-  47 1.42  29 1.42  45 1.42
  31  0.572  0.400  0.000-  32 1.42  28 1.42  24 1.42
  32  0.639  0.534  0.001-  31 1.42  39 1.42  19 1.42
  33  0.772  0.000  0.001-  34 1.42  48 1.42  50 1.42
  34  0.839  0.134  0.001-  33 1.42   5 1.42  35 1.42
  35  0.772  0.200  0.001-  36 1.42  16 1.42  34 1.42
  36  0.839  0.334  0.001-  35 1.42  11 1.42  37 1.42
  37  0.772  0.400  0.001-  28 1.42  38 1.42  36 1.42
  38  0.839  0.534  0.001-  17 1.42  37 1.42  39 1.42
  39  0.772  0.600  0.001-  40 1.42  38 1.42  32 1.42
  40  0.839  0.734  0.001-  39 1.42  49 1.42  41 1.42
  41  0.972  0.800  0.001-  18 1.42  42 1.42  40 1.42
  42  0.039  0.934  0.001-   3 1.42  41 1.42   1 1.42
  43  0.172  0.800  0.001-  18 1.42  44 1.42  26 1.42
  44  0.239  0.934  0.001-   9 1.42  43 1.42   3 1.42
  45  0.372  0.800  0.001-  26 1.42  46 1.42  30 1.42
  46  0.439  0.934  0.001-  15 1.42  45 1.42   9 1.42
  47  0.572  0.800  0.001-  30 1.42  48 1.42  20 1.42
  48  0.639  0.934  0.001-  47 1.42  33 1.42  15 1.42
  49  0.772  0.800  0.001-  50 1.42  20 1.42  40 1.42
  50  0.839  0.934  0.001-  49 1.42   1 1.42  33 1.42
  51  0.373  0.251  0.177-  52 1.18  53 1.18
  52  0.421  0.189  0.180-  51 1.18
  53  0.325  0.313  0.174-  51 1.18
 
  LATTYP: Found a hexagonal cell.
 ALAT       =    12.3250000000
 C/A-ratio  =     1.6227180527
  
  Lattice vectors:
  
 A1 = (  12.3250000000,   0.0000000000,   0.0000000000)
 A2 = (  -6.1625000000,  10.6737631016,   0.0000000000)
 A3 = (   0.0000000000,   0.0000000000,  20.0000000000)


Analysis of symmetry for initial positions (statically):
=====================================================================
 Subroutine PRICEL returns:
 Original cell was already a primitive cell.
 

 Routine SETGRP: Setting up the symmetry group for a 
 hexagonal supercell.


 Subroutine GETGRP returns: Found  1 space group operations
 (whereof  1 operations were pure point group operations)
 out of a pool of 24 trial point group operations.


The static configuration has the point symmetry C_1 .


Analysis of symmetry for dynamics (positions and initial velocities):
=====================================================================
 Subroutine PRICEL returns:
 Original cell was already a primitive cell.
 

 Routine SETGRP: Setting up the symmetry group for a 
 hexagonal supercell.


 Subroutine GETGRP returns: Found  1 space group operations
 (whereof  1 operations were pure point group operations)
 out of a pool of 24 trial point group operations.


The dynamic configuration has the point symmetry C_1 .


 Subroutine INISYM returns: Found  1 space group operations
 (whereof  1 operations are pure point group operations),
 and found     1 'primitive' translations


----------------------------------------------------------------------------------------

                                     Primitive cell                                     

  volume of cell :    2631.0826

  direct lattice vectors                    reciprocal lattice vectors
    12.325000000  0.000000000  0.000000000     0.081135903  0.046843835  0.000000000
    -6.162500000 10.673763102  0.000000000     0.000000000  0.093687670  0.000000000
     0.000000000  0.000000000 20.000000000     0.000000000  0.000000000  0.050000000

  length of vectors
    12.325000000 12.325000000 20.000000000     0.093687670  0.093687670  0.050000000

  position of ions in fractional coordinates (direct lattice)
     0.972450841  0.000320818  0.000708389
     0.039118382  0.133659505  0.000550216
     0.172443627  0.000295449  0.000624535
     0.239096278  0.133647917  0.000320585
     0.972452058  0.200322012  0.000606523
     0.039128360  0.333643771  0.000555187
     0.172451764  0.200354552  0.000273959
     0.239124359  0.333665720  0.000090325
     0.372465565  0.000324403  0.000567391
     0.439137473  0.133619939  0.000322923
     0.972449824  0.400309362  0.000684513
     0.039124981  0.533636789  0.000716763
     0.372416176  0.400329481  0.000000000
     0.439099602  0.533638981  0.000290518
     0.572443676  0.000312125  0.000699475
     0.639110207  0.133631751  0.000684093
     0.972452703  0.600305653  0.000800361
     0.039124495  0.733640359  0.000818141
     0.572433471  0.600306242  0.000503618
     0.639111888  0.733641879  0.000659881
     0.172454630  0.400318228  0.000361306
     0.239120185  0.533636548  0.000473136
     0.372459750  0.200295993  0.000111246
     0.439107096  0.333673419  0.000069702
     0.172452155  0.600311506  0.000655425
     0.239123371  0.733638574  0.000718912
     0.572431082  0.200289171  0.000516621
     0.639112773  0.333618630  0.000577970
     0.372439808  0.600308022  0.000453556
     0.439116090  0.733637858  0.000617737
     0.572469358  0.400320504  0.000424897
     0.639119408  0.533650873  0.000574513
     0.772445723  0.000315427  0.000745201
     0.839116277  0.133640203  0.000719132
     0.772440513  0.200307432  0.000726291
     0.839120241  0.333635728  0.000731834
     0.772446320  0.400298367  0.000728722
     0.839118980  0.533633964  0.000776376
     0.772456143  0.600308173  0.000744639
     0.839115033  0.733643180  0.000789390
     0.972455313  0.800305582  0.000815291
     0.039114714  0.933643289  0.000747563
     0.172457971  0.800312211  0.000779216
     0.239134551  0.933647193  0.000681063
     0.372451396  0.800316674  0.000689249
     0.439124489  0.933644769  0.000676788
     0.572441101  0.800310054  0.000668168
     0.639115067  0.933638985  0.000734556
     0.772445098  0.800313187  0.000752577
     0.839116614  0.933644338  0.000758538
     0.373021009  0.251226878  0.176776696
     0.420879805  0.189313152  0.179997789
     0.325156981  0.313167186  0.173803952

  ion indices of the primitive-cell ions
   primitive index   ion index
                 1           1
                 2           2
                 3           3
                 4           4
                 5           5
                 6           6
                 7           7
                 8           8
                 9           9
                10          10
                11          11
                12          12
                13          13
                14          14
                15          15
                16          16
                17          17
                18          18
                19          19
                20          20
                21          21
                22          22
                23          23
                24          24
                25          25
                26          26
                27          27
                28          28
                29          29
                30          30
                31          31
                32          32
                33          33
                34          34
                35          35
                36          36
                37          37
                38          38
                39          39
                40          40
                41          41
                42          42
                43          43
                44          44
                45          45
                46          46
                47          47
                48          48
                49          49
                50          50
                51          51
                52          52
                53          53

----------------------------------------------------------------------------------------

 
 
 KPOINTS: auto                                    

Automatic generation of k-mesh.
 Grid dimensions read from file:
 generate k-points for:    1    1    1

 Generating k-lattice:

  Cartesian coordinates                     Fractional coordinates (reciprocal lattice)
     0.081135903  0.046843835  0.000000000     1.000000000 -0.000000000  0.000000000
     0.000000000  0.093687670  0.000000000     0.000000000  1.000000000  0.000000000
     0.000000000  0.000000000  0.050000000     0.000000000  0.000000000  1.000000000

  Length of vectors
     0.093687670  0.093687670  0.050000000

  Shift w.r.t. Gamma in fractional coordinates (k-lattice)
     0.000000000  0.000000000  0.000000000

 
 Subroutine IBZKPT returns following result:
 ===========================================
 
 Found      1 irreducible k-points:
 
 Following reciprocal coordinates:
            Coordinates               Weight
  0.000000  0.000000  0.000000      1.000000
 
 Following cartesian coordinates:
            Coordinates               Weight
  0.000000  0.000000  0.000000      1.000000
 


--------------------------------------------------------------------------------------------------------




 Dimension of arrays:
   k-points           NKPTS =      1   k-points in BZ     NKDIM =      1   number of bands    NBANDS=    140
   number of dos      NEDOS =    301   number of ions     NIONS =     53
   non local maximal  LDIM  =      4   non local SUM 2l+1 LMDIM =      8
   total plane-waves  NPLWV = ******
   max r-space proj   IRMAX =      1   max aug-charges    IRDMAX=   9736
   dimension x,y,z NGX =   128 NGY =  128 NGZ =  210
   dimension x,y,z NGXF=   256 NGYF=  256 NGZF=  420
   support grid    NGXF=   256 NGYF=  256 NGZF=  420
   ions per type =              51   2
   NGX,Y,Z   is equivalent  to a cutoff of  17.27, 17.27, 17.46 a.u.
   NGXF,Y,Z  is equivalent  to a cutoff of  34.53, 34.53, 34.91 a.u.

 SYSTEM =  unknown system                          
 POSCAR =   C  O                                   

 Startparameter for this run:
   NWRITE =      2    write-flag & timer
   PREC   = accura    normal or accurate (medium, high low for compatibility)
   ISTART =      0    job   : 0-new  1-cont  2-samecut
   ICHARG =      2    charge: 1-file 2-atom 10-const
   ISPIN  =      1    spin polarized calculation?
   LNONCOLLINEAR =      F non collinear calculations
   LSORBIT =      F    spin-orbit coupling
   INIWAV =      1    electr: 0-lowe 1-rand  2-diag
   LASPH  =      F    aspherical Exc in radial PAW
 Electronic Relaxation 1
   ENCUT  = 1000.0 eV  73.50 Ry    8.57 a.u.  31.78 31.78 51.57*2*pi/ulx,y,z
   ENINI  = 1000.0     initial cutoff
   ENAUG  =  946.8 eV  augmentation charge cutoff
   NELM   =     60;   NELMIN=  2; NELMDL= -5     # of ELM steps 
   EDIFF  = 0.1E-05   stopping-criterion for ELM
   LREAL  =      F    real-space projection
   NLSPLINE    = F    spline interpolate recip. space projectors
   LCOMPAT=      F    compatible to vasp.4.4
   GGA_COMPAT  = T    GGA compatible to vasp.4.4-vasp.4.6
   LMAXPAW     = -100 max onsite density
   LMAXMIX     =    2 max onsite mixed and CHGCAR
   VOSKOWN=      0    Vosko Wilk Nusair interpolation
   ROPT   =    0.00000   0.00000
 Ionic relaxation
   EDIFFG = 0.1E-04   stopping-criterion for IOM
   NSW    =      0    number of steps for IOM
   NBLOCK =      1;   KBLOCK =      1    inner block; outer block 
   IBRION =     -1    ionic relax: 0-MD 1-quasi-New 2-CG
   NFREE  =      0    steps in history (QN), initial steepest desc. (CG)
   ISIF   =      0    stress and relaxation
   IWAVPR =     10    prediction:  0-non 1-charg 2-wave 3-comb
   ISYM   =      2    0-nonsym 1-usesym 2-fastsym
   LCORR  =      T    Harris-Foulkes like correction to forces

   POTIM  = 0.5000    time-step for ionic-motion
   TEIN   =    0.0    initial temperature
   TEBEG  =    0.0;   TEEND  =   0.0 temperature during run
   SMASS  =  -3.00    Nose mass-parameter (am)
   estimated Nose-frequenzy (Omega)   =  0.10E-29 period in steps = 0.13E+47 mass=  -0.347E-26a.u.
   SCALEE = 1.0000    scale energy and forces
   NPACO  =    256;   APACO  = 16.0  distance and # of slots for P.C.
   PSTRESS=    0.0 pullay stress

  Mass of Ions in am
   POMASS =  12.01 16.00
  Ionic Valenz
   ZVAL   =   4.00  6.00
  Atomic Wigner-Seitz radii
   RWIGS  =  -1.00 -1.00
  virtual crystal weights 
   VCA    =   1.00  1.00
   NELECT =     216.0000    total number of electrons
   NUPDOWN=      -1.0000    fix difference up-down

 DOS related values:
   EMIN   =  10.00;   EMAX   =-10.00  energy-range for DOS
   EFERMI =   0.00
   ISMEAR =     0;   SIGMA  =   0.01  broadening in eV -4-tet -1-fermi 0-gaus

 Electronic relaxation 2 (details)
   IALGO  =     58    algorithm
   LDIAG  =      T    sub-space diagonalisation (order eigenvalues)
   LSUBROT=      F    optimize rotation matrix (better conditioning)
   TURBO    =      0    0=normal 1=particle mesh
   IRESTART =      0    0=no restart 2=restart with 2 vectors
   NREBOOT  =      0    no. of reboots
   NMIN     =      0    reboot dimension
   EREF     =   0.00    reference energy to select bands
   IMIX   =      4    mixing-type and parameters
     AMIX     =   0.40;   BMIX     =  1.00
     AMIX_MAG =   1.60;   BMIX_MAG =  1.00
     AMIN     =   0.10
     WC   =   100.;   INIMIX=   1;  MIXPRE=   1;  MAXMIX= -45

 Intra band minimization:
   WEIMIN = 0.0000     energy-eigenvalue tresh-hold
   EBREAK =  0.18E-08  absolut break condition
   DEPER  =   0.30     relativ break condition  

   TIME   =   0.40     timestep for ELM

  volume/ion in A,a.u.               =      49.64       335.01
  Fermi-wavevector in a.u.,A,eV,Ry     =   0.711510  1.344560  6.887909  0.506247
  Thomas-Fermi vector in A             =   1.798641
 
 Write flags
   LWAVE        =      F    write WAVECAR
   LDOWNSAMPLE  =      F    k-point downsampling of WAVECAR
   LCHARG       =      T    write CHGCAR
   LVTOT        =      F    write LOCPOT, total local potential
   LVHAR        =      F    write LOCPOT, Hartree potential only
   LELF         =      F    write electronic localiz. function (ELF)
   LORBIT       =      0    0 simple, 1 ext, 2 COOP (PROOUT), +10 PAW based schemes


 Dipole corrections
   LMONO  =      F    monopole corrections only (constant potential shift)
   LDIPOL =      F    correct potential (dipole corrections)
   IDIPOL =      0    1-x, 2-y, 3-z, 4-all directions 
   EPSILON=  1.0000000 bulk dielectric constant

 Exchange correlation treatment:
   GGA     =    --    GGA type
   LEXCH   =     8    internal setting for exchange type
   VOSKOWN=      0    Vosko Wilk Nusair interpolation
   LHFCALC =     F    Hartree Fock is set to
   LHFONE  =     F    Hartree Fock one center treatment
   AEXX    =    0.0000 exact exchange contribution

 Linear response parameters
   LEPSILON=     F    determine dielectric tensor
   LRPA    =     F    only Hartree local field effects (RPA)
   LNABLA  =     F    use nabla operator in PAW spheres
   LVEL    =     F    velocity operator in full k-point grid
   LINTERFAST=   F  fast interpolation
   KINTER  =     0    interpolate to denser k-point grid
   CSHIFT  =0.1000    complex shift for real part using Kramers Kronig
   OMEGAMAX=  -1.0    maximum frequency
   DEG_THRESHOLD= 0.2000000E-02 threshold for treating states as degnerate
   RTIME   =   -0.100 relaxation time in fs
  (WPLASMAI=    0.000 imaginary part of plasma frequency in eV, 0.658/RTIME)
   DFIELD  = 0.0000000 0.0000000 0.0000000 field for delta impulse in time
 
 Orbital magnetization related:
   ORBITALMAG=     F  switch on orbital magnetization
   LCHIMAG   =     F  perturbation theory with respect to B field
   DQ        =  0.001000  dq finite difference perturbation B field
   LLRAUG    =     F  two centre corrections for induced B field



--------------------------------------------------------------------------------------------------------


 Static calculation
 charge density and potential will be updated during run
 non-spin polarized calculation
 Conjugate gradient for all bands (Freysoldt, et al. PRB 79, 241103 (2009))
 preconditioned conjugated gradient                                        
 perform sub-space diagonalisation
    before iterative eigenvector-optimisation
 modified Broyden-mixing scheme, WC =      100.0
 initial mixing is a Kerker type mixing with AMIX =  0.4000 and BMIX =      1.0000
 Hartree-type preconditioning will be used
 using additional bands           32
 reciprocal scheme for non local part
 use partial core corrections
 no Harris-corrections to forces 
 use gradient corrections 
 use of overlap-Matrix (Vanderbilt PP)
 Gauss-broadening in eV      SIGMA  =   0.01


--------------------------------------------------------------------------------------------------------


  energy-cutoff  :     1000.00
  volume of cell :     2631.08
      direct lattice vectors                 reciprocal lattice vectors
    12.325000000  0.000000000  0.000000000     0.081135903  0.046843835  0.000000000
    -6.162500000 10.673763102  0.000000000     0.000000000  0.093687670  0.000000000
     0.000000000  0.000000000 20.000000000     0.000000000  0.000000000  0.050000000

  length of vectors
    12.325000000 12.325000000 20.000000000     0.093687670  0.093687670  0.050000000


 
 k-points in units of 2pi/SCALE and weight: auto                                    
   0.00000000  0.00000000  0.00000000       1.000
 
 k-points in reciprocal lattice and weights: auto                                    
   0.00000000  0.00000000  0.00000000       1.000
 
 position of ions in fractional coordinates (direct lattice) 
   0.97245084  0.00032082  0.00070839
   0.03911838  0.13365950  0.00055022
   0.17244363  0.00029545  0.00062454
   0.23909628  0.13364792  0.00032058
   0.97245206  0.20032201  0.00060652
   0.03912836  0.33364377  0.00055519
   0.17245176  0.20035455  0.00027396
   0.23912436  0.33366572  0.00009033
   0.37246557  0.00032440  0.00056739
   0.43913747  0.13361994  0.00032292
   0.97244982  0.40030936  0.00068451
   0.03912498  0.53363679  0.00071676
   0.37241618  0.40032948  0.00000000
   0.43909960  0.53363898  0.00029052
   0.57244368  0.00031213  0.00069947
   0.63911021  0.13363175  0.00068409
   0.97245270  0.60030565  0.00080036
   0.03912449  0.73364036  0.00081814
   0.57243347  0.60030624  0.00050362
   0.63911189  0.73364188  0.00065988
   0.17245463  0.40031823  0.00036131
   0.23912018  0.53363655  0.00047314
   0.37245975  0.20029599  0.00011125
   0.43910710  0.33367342  0.00006970
   0.17245216  0.60031151  0.00065542
   0.23912337  0.73363857  0.00071891
   0.57243108  0.20028917  0.00051662
   0.63911277  0.33361863  0.00057797
   0.37243981  0.60030802  0.00045356
   0.43911609  0.73363786  0.00061774
   0.57246936  0.40032050  0.00042490
   0.63911941  0.53365087  0.00057451
   0.77244572  0.00031543  0.00074520
   0.83911628  0.13364020  0.00071913
   0.77244051  0.20030743  0.00072629
   0.83912024  0.33363573  0.00073183
   0.77244632  0.40029837  0.00072872
   0.83911898  0.53363396  0.00077638
   0.77245614  0.60030817  0.00074464
   0.83911503  0.73364318  0.00078939
   0.97245531  0.80030558  0.00081529
   0.03911471  0.93364329  0.00074756
   0.17245797  0.80031221  0.00077922
   0.23913455  0.93364719  0.00068106
   0.37245140  0.80031667  0.00068925
   0.43912449  0.93364477  0.00067679
   0.57244110  0.80031005  0.00066817
   0.63911507  0.93363899  0.00073456
   0.77244510  0.80031319  0.00075258
   0.83911661  0.93364434  0.00075854
   0.37302101  0.25122688  0.17677670
   0.42087980  0.18931315  0.17999779
   0.32515698  0.31316719  0.17380395
 
 position of ions in cartesian coordinates  (Angst):
  11.98347958  0.00342433  0.01416777
  -0.34154264  1.42664989  0.01100432
   2.12354700  0.00315355  0.01249070
   2.12325634  1.42652621  0.00641170
  10.75098721  2.13818970  0.01213047
  -1.57382270  3.56123457  0.01110375
   0.89078307  2.13853702  0.00547917
   0.89099273  3.56146885  0.00180651
   4.58863896  0.00346260  0.01134782
   4.58893648  1.42622757  0.00645846
   9.51853763  4.27280730  0.01369027
  -2.80632132  5.69591267  0.01433526
   2.12299894  4.27302204  0.00000000
   2.12335237  5.69593607  0.00581036
   7.05344483  0.00333155  0.01398950
   7.05352764  1.42635365  0.01368187
   8.28609598  6.40752033  0.01600723
  -4.03884931  7.83070339  0.01636283
   3.35585531  6.40752662  0.01007237
   3.35598594  7.83071962  0.01319763
  -0.34145776  4.27290193  0.00722612
  -0.34137895  5.69591010  0.00946273
   3.35624236  2.13791198  0.00222492
   3.35573251  3.56155103  0.00139405
  -1.57394684  6.40758280  0.01310850
  -1.57385216  7.83068434  0.01437823
   5.82093107  2.13783916  0.01033241
   5.82114012  3.56096622  0.01155939
   0.89092245  6.40754561  0.00907111
   0.89106251  7.83067670  0.01235474
   4.58870974  4.27292622  0.00849795
   4.58852320  5.69606300  0.01149026
   9.51844972  0.00336679  0.01490402
   9.51855036  1.42644387  0.01438264
   8.28593477  2.13803408  0.01452582
   8.28612680  3.56114872  0.01463668
   7.05356221  4.27268994  0.01457444
   7.05362213  5.69588251  0.01552751
   5.82112285  6.40754723  0.01489279
   5.82101669  7.83073350  0.01578780
   7.05362858  8.54227219  0.01630582
  -5.27148792  9.96548729  0.01495127
  -2.80637951  8.54234295  0.01558431
  -2.80626749  9.96552896  0.01362126
  -0.34148805  8.54239058  0.01378498
  -0.34137657  9.96550309  0.01353576
   2.12342586  8.54231992  0.01336337
   2.12354296  9.96544135  0.01469111
   4.58845581  8.54235337  0.01505154
   4.58852904  9.96549848  0.01517076
   3.04929830  2.68153618  3.53553391
   4.02070129  2.02068374  3.59995577
   2.07766701  3.34267235  3.47607904
 


--------------------------------------------------------------------------------------------------------


 k-point   1 :   0.0000 0.0000 0.0000  plane waves:  189031

 maximum and minimum number of plane-waves per node :     47262    47254

 maximum number of plane-waves:    189031
 maximum index in each direction: 
   IXMAX=   31   IYMAX=   31   IZMAX=   51
   IXMIN=  -31   IYMIN=  -31   IZMIN=  -51


 parallel 3D FFT for wavefunctions:
    minimum data exchange during FFTs selected (reduces bandwidth)
 parallel 3D FFT for charge:
    minimum data exchange during FFTs selected (reduces bandwidth)


 total amount of memory used by VASP MPI-rank0   175916. kBytes
=======================================================================

   base      :      30000. kBytes
   nonl-proj :      46129. kBytes
   fftplans  :      35778. kBytes
   grid      :      52596. kBytes
   one-center:         43. kBytes
   wavefun   :      11370. kBytes
 
     INWAV:  cpu time    0.0000: real time    0.0000
 Broyden mixing: mesh for mixing (old mesh)
   NGX = 63   NGY = 63   NGZ =103
  (NGX  =256   NGY  =256   NGZ  =420)
  gives a total of 408807 points

 initial charge density was supplied:
 charge density of overlapping atoms calculated
 number of electron     216.0000000 magnetization 
 keeping initial charge density in first step


--------------------------------------------------------------------------------------------------------


 Maximum index for augmentation-charges          459 (set IRDMAX)


--------------------------------------------------------------------------------------------------------


 First call to EWALD:  gamma=   0.128
 Maximum number of real-space cells 3x 3x 2
 Maximum number of reciprocal cells 3x 3x 4

    FEWALD:  cpu time    0.0026: real time    0.0026


--------------------------------------- Iteration      1(   1)  ---------------------------------------


    POTLOK:  cpu time    0.2981: real time    0.3015
    SETDIJ:  cpu time    0.0051: real time    0.0052
    TRIAL :  cpu time    4.1790: real time    4.2258
    CORREC:  cpu time    0.0007: real time    0.0007
    --------------------------------------------
      LOOP:  cpu time    4.4858: real time    4.5564

 eigenvalue-minimisations  :   280
 total energy-change (2. order) : 0.2674532E+04  (-0.1114452E+05)
 number of electron     216.0000000 magnetization 
 augmentation part      216.0000000 magnetization 

 Free energy of the ion-electron system (eV)
  ---------------------------------------------------
  alpha Z        PSCENC =        59.93625244
  Ewald energy   TEWEN  =     33820.06779040
  -Hartree energ DENC   =    -39995.28311885
  -exchange      EXHF   =         0.00000000
  -V(xc)+E(xc)   XCENC  =       420.90121390
  PAW double counting   =      6525.96553977    -6260.36035765
  entropy T*S    EENTRO =        -0.00000000
  eigenvalues    EBANDS =      -266.21888598
  atomic energy  EATOM  =      8369.52358910
  ---------------------------------------------------
  free energy    TOTEN  =      2674.53202312 eV

  energy without entropy =     2674.53202312  energy(sigma->0) =     2674.53202312


--------------------------------------------------------------------------------------------------------




--------------------------------------- Iteration      1(   2)  ---------------------------------------


    TRIAL :  cpu time    6.6698: real time    6.7367
    CORREC:  cpu time    0.0001: real time    0.0001
    --------------------------------------------
      LOOP:  cpu time    6.7202: real time    6.7878

 eigenvalue-minimisations  :   504
 total energy-change (2. order) :-0.2492631E+04  (-0.2367480E+04)
 number of electron     216.0000000 magnetization 
 augmentation part      216.0000000 magnetization 

 Free energy of the ion-electron system (eV)
  ---------------------------------------------------
  alpha Z        PSCENC =        59.93625244
  Ewald energy   TEWEN  =     33820.06779040
  -Hartree energ DENC   =    -39995.28311885
  -exchange      EXHF   =         0.00000000
  -V(xc)+E(xc)   XCENC  =       420.90121390
  PAW double counting   =      6525.96553977    -6260.36035765
  entropy T*S    EENTRO =        -0.00000000
  eigenvalues    EBANDS =     -2758.85013090
  atomic energy  EATOM  =      8369.52358910
  ---------------------------------------------------
  free energy    TOTEN  =       181.90077821 eV

  energy without entropy =      181.90077821  energy(sigma->0) =      181.90077821


--------------------------------------------------------------------------------------------------------




--------------------------------------- Iteration      1(   3)  ---------------------------------------


    TRIAL :  cpu time    5.0924: real time    5.1470
    CORREC:  cpu time    0.0001: real time    0.0001
    --------------------------------------------
      LOOP:  cpu time    5.1749: real time    5.2343

 eigenvalue-minimisations  :   364
 total energy-change (2. order) :-0.6661361E+03  (-0.6638062E+03)
 number of electron     216.0000000 magnetization 
 augmentation part      216.0000000 magnetization 

 Free energy of the ion-electron system (eV)
  ---------------------------------------------------
  alpha Z        PSCENC =        59.93625244
  Ewald energy   TEWEN  =     33820.06779040
  -Hartree energ DENC   =    -39995.28311885
  -exchange      EXHF   =         0.00000000
  -V(xc)+E(xc)   XCENC  =       420.90121390
  PAW double counting   =      6525.96553977    -6260.36035765
  entropy T*S    EENTRO =        -0.00000000
  eigenvalues    EBANDS =     -3424.98627231
  atomic energy  EATOM  =      8369.52358910
  ---------------------------------------------------
  free energy    TOTEN  =      -484.23536320 eV

  energy without entropy =     -484.23536320  energy(sigma->0) =     -484.23536320


--------------------------------------------------------------------------------------------------------




--------------------------------------- Iteration      1(   4)  ---------------------------------------


    TRIAL :  cpu time    5.4065: real time    5.4598
    CORREC:  cpu time    0.0001: real time    0.0001
    --------------------------------------------
      LOOP:  cpu time    5.4355: real time    5.4891

 eigenvalue-minimisations  :   392
 total energy-change (2. order) :-0.3303141E+02  (-0.3290328E+02)
 number of electron     216.0000000 magnetization 
 augmentation part      216.0000000 magnetization 

 Free energy of the ion-electron system (eV)
  ---------------------------------------------------
  alpha Z        PSCENC =        59.93625244
  Ewald energy   TEWEN  =     33820.06779040
  -Hartree energ DENC   =    -39995.28311885
  -exchange      EXHF   =         0.00000000
  -V(xc)+E(xc)   XCENC  =       420.90121390
  PAW double counting   =      6525.96553977    -6260.36035765
  entropy T*S    EENTRO =        -0.00000000
  eigenvalues    EBANDS =     -3458.01768511
  atomic energy  EATOM  =      8369.52358910
  ---------------------------------------------------
  free energy    TOTEN  =      -517.26677600 eV

  energy without entropy =     -517.26677600  energy(sigma->0) =     -517.26677600


--------------------------------------------------------------------------------------------------------




--------------------------------------- Iteration      1(   5)  ---------------------------------------


    TRIAL :  cpu time    5.7382: real time    5.7939
    CORREC:  cpu time    0.0001: real time    0.0001
    CHARGE:  cpu time    0.2326: real time    0.2366
    --------------------------------------------
      LOOP:  cpu time    6.0477: real time    6.1099

 eigenvalue-minimisations  :   420
 total energy-change (2. order) :-0.7201378E+00  (-0.7183369E+00)
 number of electron     216.0000000 magnetization 
 augmentation part       -0.2635047 magnetization 

 Free energy of the ion-electron system (eV)
  ---------------------------------------------------
  alpha Z        PSCENC =        59.93625244
  Ewald energy   TEWEN  =     33820.06779040
  -Hartree energ DENC   =    -39995.28311885
  -exchange      EXHF   =         0.00000000
  -V(xc)+E(xc)   XCENC  =       420.90121390
  PAW double counting   =      6525.96553977    -6260.36035765
  entropy T*S    EENTRO =        -0.00000000
  eigenvalues    EBANDS =     -3458.73782293
  atomic energy  EATOM  =      8369.52358910
  ---------------------------------------------------
  free energy    TOTEN  =      -517.98691383 eV

  energy without entropy =     -517.98691383  energy(sigma->0) =     -517.98691383


--------------------------------------------------------------------------------------------------------




--------------------------------------- Iteration      1(   6)  ---------------------------------------


    POTLOK:  cpu time    0.2767: real time    0.2790
    SETDIJ:  cpu time    0.0030: real time    0.0030
    TRIAL :  cpu time    2.0158: real time    2.0369
    CORREC:  cpu time    0.8099: real time    0.8168
    CHARGE:  cpu time    0.2354: real time    0.2376
    --------------------------------------------
      LOOP:  cpu time    3.4470: real time    3.4924

 eigenvalue-minimisations  :     0
 total energy-change (2. order) : 0.5124018E+02  (-0.1554243E+02)
 number of electron     216.0000000 magnetization 
 augmentation part       -0.3637721 magnetization 

 Free energy of the ion-electron system (eV)
  ---------------------------------------------------
  alpha Z        PSCENC =        59.93625244
  Ewald energy   TEWEN  =     33820.06779040
  -Hartree energ DENC   =    -41405.00398990
  -exchange      EXHF   =         0.00000000
  -V(xc)+E(xc)   XCENC  =       468.97513216
  PAW double counting   =     89490.83697707   -89233.51512964
  entropy T*S    EENTRO =        -0.00000000
  eigenvalues    EBANDS =     -2037.56735777
  atomic energy  EATOM  =      8369.52358910
  ---------------------------------------------------
  free energy    TOTEN  =      -466.74673615 eV

  energy without entropy =     -466.74673615  energy(sigma->0) =     -466.74673615


--------------------------------------------------------------------------------------------------------




--------------------------------------- Iteration      1(   7)  ---------------------------------------


    POTLOK:  cpu time    0.2759: real time    0.2780
    SETDIJ:  cpu time    0.0030: real time    0.0031
    TRIAL :  cpu time    2.0051: real time    2.0251
    CORREC:  cpu time    0.8110: real time    0.8182
    CHARGE:  cpu time    0.2342: real time    0.2363
    --------------------------------------------
      LOOP:  cpu time    3.3954: real time    3.4418

 eigenvalue-minimisations  :     0
 total energy-change (2. order) :-0.1557958E+02  (-0.1776194E+01)
 number of electron     216.0000000 magnetization 
 augmentation part       -0.4125221 magnetization 

 Free energy of the ion-electron system (eV)
  ---------------------------------------------------
  alpha Z        PSCENC =        59.93625244
  Ewald energy   TEWEN  =     33820.06779040
  -Hartree energ DENC   =    -40901.27683336
  -exchange      EXHF   =         0.00000000
  -V(xc)+E(xc)   XCENC  =       451.90796720
  PAW double counting   =    105709.79985618  -105449.64308868
  entropy T*S    EENTRO =        -0.00000000
  eigenvalues    EBANDS =     -2542.64184792
  atomic energy  EATOM  =      8369.52358910
  ---------------------------------------------------
  free energy    TOTEN  =      -482.32631464 eV

  energy without entropy =     -482.32631464  energy(sigma->0) =     -482.32631464


--------------------------------------------------------------------------------------------------------




--------------------------------------- Iteration      1(   8)  ---------------------------------------


    POTLOK:  cpu time    0.2762: real time    0.2784
    SETDIJ:  cpu time    0.0030: real time    0.0030
    TRIAL :  cpu time    2.0078: real time    2.0271
    CORREC:  cpu time    0.8093: real time    0.8161
    CHARGE:  cpu time    0.2342: real time    0.2361
    --------------------------------------------
      LOOP:  cpu time    3.3867: real time    3.4206

 eigenvalue-minimisations  :     0
 total energy-change (2. order) :-0.1775743E+01  (-0.4501447E+00)
 number of electron     216.0000000 magnetization 
 augmentation part       -0.4294927 magnetization 

 Free energy of the ion-electron system (eV)
  ---------------------------------------------------
  alpha Z        PSCENC =        59.93625244
  Ewald energy   TEWEN  =     33820.06779040
  -Hartree energ DENC   =    -40877.53721105
  -exchange      EXHF   =         0.00000000
  -V(xc)+E(xc)   XCENC  =       451.37891443
  PAW double counting   =    110164.77374114  -109904.20939422
  entropy T*S    EENTRO =        -0.00000000
  eigenvalues    EBANDS =     -2568.03573989
  atomic energy  EATOM  =      8369.52358910
  ---------------------------------------------------
  free energy    TOTEN  =      -484.10205765 eV

  energy without entropy =     -484.10205765  energy(sigma->0) =     -484.10205765


--------------------------------------------------------------------------------------------------------




--------------------------------------- Iteration      1(   9)  ---------------------------------------


    POTLOK:  cpu time    0.2739: real time    0.2760
    SETDIJ:  cpu time    0.0030: real time    0.0030
    TRIAL :  cpu time    2.0051: real time    2.0256
    CORREC:  cpu time    0.8062: real time    0.8132
    CHARGE:  cpu time    0.2342: real time    0.2360
    --------------------------------------------
      LOOP:  cpu time    3.3755: real time    3.4084

 eigenvalue-minimisations  :     0
 total energy-change (2. order) :-0.4499487E+00  (-0.1410732E+00)
 number of electron     216.0000000 magnetization 
 augmentation part       -0.4367823 magnetization 

 Free energy of the ion-electron system (eV)
  ---------------------------------------------------
  alpha Z        PSCENC =        59.93625244
  Ewald energy   TEWEN  =     33820.06779040
  -Hartree energ DENC   =    -40892.96495388
  -exchange      EXHF   =         0.00000000
  -V(xc)+E(xc)   XCENC  =       451.56814528
  PAW double counting   =    112882.73437112  -112622.01976734
  entropy T*S    EENTRO =        -0.00000000
  eigenvalues    EBANDS =     -2553.39743350
  atomic energy  EATOM  =      8369.52358910
  ---------------------------------------------------
  free energy    TOTEN  =      -484.55200639 eV

  energy without entropy =     -484.55200639  energy(sigma->0) =     -484.55200639


--------------------------------------------------------------------------------------------------------




--------------------------------------- Iteration      1(  10)  ---------------------------------------


    POTLOK:  cpu time    0.2749: real time    0.2771
    SETDIJ:  cpu time    0.0030: real time    0.0030
    TRIAL :  cpu time    2.0028: real time    2.0254
    CORREC:  cpu time    0.8128: real time    0.8198
    CHARGE:  cpu time    0.2345: real time    0.2364
    --------------------------------------------
      LOOP:  cpu time    3.4075: real time    3.4439

 eigenvalue-minimisations  :     0
 total energy-change (2. order) :-0.1408761E+00  (-0.5548769E-01)
 number of electron     216.0000000 magnetization 
 augmentation part       -0.4376561 magnetization 

 Free energy of the ion-electron system (eV)
  ---------------------------------------------------
  alpha Z        PSCENC =        59.93625244
  Ewald energy   TEWEN  =     33820.06779040
  -Hartree energ DENC   =    -40894.15047354
  -exchange      EXHF   =         0.00000000
  -V(xc)+E(xc)   XCENC  =       451.50653213
  PAW double counting   =    113347.05712859  -113086.26330110
  entropy T*S    EENTRO =        -0.00000000
  eigenvalues    EBANDS =     -2552.37040046
  atomic energy  EATOM  =      8369.52358910
  ---------------------------------------------------
  free energy    TOTEN  =      -484.69288244 eV

  energy without entropy =     -484.69288244  energy(sigma->0) =     -484.69288244


--------------------------------------------------------------------------------------------------------




--------------------------------------- Iteration      1(  11)  ---------------------------------------


    POTLOK:  cpu time    0.2743: real time    0.2764
    SETDIJ:  cpu time    0.0031: real time    0.0031
    TRIAL :  cpu time    2.0050: real time    2.0252
    CORREC:  cpu time    0.8055: real time    0.8124
    CHARGE:  cpu time    0.2347: real time    0.2365
    --------------------------------------------
      LOOP:  cpu time    3.3669: real time    3.3989

 eigenvalue-minimisations  :     0
 total energy-change (2. order) :-0.5535575E-01  (-0.2226676E-01)
 number of electron     216.0000000 magnetization 
 augmentation part       -0.4372997 magnetization 

 Free energy of the ion-electron system (eV)
  ---------------------------------------------------
  alpha Z        PSCENC =        59.93625244
  Ewald energy   TEWEN  =     33820.06779040
  -Hartree energ DENC   =    -40890.48164564
  -exchange      EXHF   =         0.00000000
  -V(xc)+E(xc)   XCENC  =       451.44810315
  PAW double counting   =    112913.12957900  -112652.33413971
  entropy T*S    EENTRO =        -0.00000000
  eigenvalues    EBANDS =     -2556.03776691
  atomic energy  EATOM  =      8369.52358910
  ---------------------------------------------------
  free energy    TOTEN  =      -484.74823819 eV

  energy without entropy =     -484.74823819  energy(sigma->0) =     -484.74823819


--------------------------------------------------------------------------------------------------------




--------------------------------------- Iteration      1(  12)  ---------------------------------------


    POTLOK:  cpu time    0.2765: real time    0.2786
    SETDIJ:  cpu time    0.0031: real time    0.0031
    TRIAL :  cpu time    2.0056: real time    2.0255
    CORREC:  cpu time    0.8026: real time    0.8100
    CHARGE:  cpu time    0.2352: real time    0.2372
    --------------------------------------------
      LOOP:  cpu time    3.3891: real time    3.4363

 eigenvalue-minimisations  :     0
 total energy-change (2. order) :-0.2218749E-01  (-0.7763991E-02)
 number of electron     216.0000000 magnetization 
 augmentation part       -0.4374881 magnetization 

 Free energy of the ion-electron system (eV)
  ---------------------------------------------------
  alpha Z        PSCENC =        59.93625244
  Ewald energy   TEWEN  =     33820.06779040
  -Hartree energ DENC   =    -40888.83328847
  -exchange      EXHF   =         0.00000000
  -V(xc)+E(xc)   XCENC  =       451.41880945
  PAW double counting   =    112551.63987151  -112290.86559923
  entropy T*S    EENTRO =        -0.00000000
  eigenvalues    EBANDS =     -2557.65785088
  atomic energy  EATOM  =      8369.52358910
  ---------------------------------------------------
  free energy    TOTEN  =      -484.77042567 eV

  energy without entropy =     -484.77042567  energy(sigma->0) =     -484.77042567


--------------------------------------------------------------------------------------------------------




--------------------------------------- Iteration      1(  13)  ---------------------------------------


    POTLOK:  cpu time    0.2729: real time    0.2749
    SETDIJ:  cpu time    0.0030: real time    0.0030
    TRIAL :  cpu time    2.0033: real time    2.0233
    CORREC:  cpu time    0.8045: real time    0.8118
    CHARGE:  cpu time    0.2344: real time    0.2363
    --------------------------------------------
      LOOP:  cpu time    3.3675: real time    3.4104

 eigenvalue-minimisations  :     0
 total energy-change (2. order) :-0.7748733E-02  (-0.2246730E-02)
 number of electron     216.0000000 magnetization 
 augmentation part       -0.4372136 magnetization 

 Free energy of the ion-electron system (eV)
  ---------------------------------------------------
  alpha Z        PSCENC =        59.93625244
  Ewald energy   TEWEN  =     33820.06779040
  -Hartree energ DENC   =    -40888.65975831
  -exchange      EXHF   =         0.00000000
  -V(xc)+E(xc)   XCENC  =       451.40584607
  PAW double counting   =    112442.61377694  -112181.84891661
  entropy T*S    EENTRO =        -0.00000000
  eigenvalues    EBANDS =     -2557.81675444
  atomic energy  EATOM  =      8369.52358910
  ---------------------------------------------------
  free energy    TOTEN  =      -484.77817441 eV

  energy without entropy =     -484.77817441  energy(sigma->0) =     -484.77817441


--------------------------------------------------------------------------------------------------------




--------------------------------------- Iteration      1(  14)  ---------------------------------------


    POTLOK:  cpu time    0.2798: real time    0.2820
    SETDIJ:  cpu time    0.0032: real time    0.0032
    TRIAL :  cpu time    2.0049: real time    2.0246
    CORREC:  cpu time    0.8018: real time    0.8090
    CHARGE:  cpu time    0.2352: real time    0.2370
    --------------------------------------------
      LOOP:  cpu time    3.3333: real time    3.4342

 eigenvalue-minimisations  :     0
 total energy-change (2. order) :-0.2247386E-02  (-0.6000835E-03)
 number of electron     216.0000000 magnetization 
 augmentation part       -0.4369691 magnetization 

 Free energy of the ion-electron system (eV)
  ---------------------------------------------------
  alpha Z        PSCENC =        59.93625244
  Ewald energy   TEWEN  =     33820.06779040
  -Hartree energ DENC   =    -40888.60754025
  -exchange      EXHF   =         0.00000000
  -V(xc)+E(xc)   XCENC  =       451.40261988
  PAW double counting   =    112482.16771705  -112221.40493053
  entropy T*S    EENTRO =        -0.00000000
  eigenvalues    EBANDS =     -2557.86591988
  atomic energy  EATOM  =      8369.52358910
  ---------------------------------------------------
  free energy    TOTEN  =      -484.78042179 eV

  energy without entropy =     -484.78042179  energy(sigma->0) =     -484.78042179


--------------------------------------------------------------------------------------------------------




--------------------------------------- Iteration      1(  15)  ---------------------------------------


    POTLOK:  cpu time    0.2701: real time    0.2723
    SETDIJ:  cpu time    0.0027: real time    0.0027
    TRIAL :  cpu time    2.0030: real time    2.0236
    CORREC:  cpu time    0.8018: real time    0.8090
    CHARGE:  cpu time    0.2349: real time    0.2367
    --------------------------------------------
      LOOP:  cpu time    3.3424: real time    3.3859

 eigenvalue-minimisations  :     0
 total energy-change (2. order) :-0.6014494E-03  (-0.1925642E-03)
 number of electron     216.0000000 magnetization 
 augmentation part       -0.4367191 magnetization 

 Free energy of the ion-electron system (eV)
  ---------------------------------------------------
  alpha Z        PSCENC =        59.93625244
  Ewald energy   TEWEN  =     33820.06779040
  -Hartree energ DENC   =    -40888.36341582
  -exchange      EXHF   =         0.00000000
  -V(xc)+E(xc)   XCENC  =       451.39227325
  PAW double counting   =    112512.59313557  -112251.82905755
  entropy T*S    EENTRO =        -0.00000000
  eigenvalues    EBANDS =     -2558.10159064
  atomic energy  EATOM  =      8369.52358910
  ---------------------------------------------------
  free energy    TOTEN  =      -484.78102324 eV

  energy without entropy =     -484.78102324  energy(sigma->0) =     -484.78102324


--------------------------------------------------------------------------------------------------------




--------------------------------------- Iteration      1(  16)  ---------------------------------------


    POTLOK:  cpu time    0.2713: real time    0.2734
    SETDIJ:  cpu time    0.0029: real time    0.0029
    TRIAL :  cpu time    2.0022: real time    2.0228
    CORREC:  cpu time    0.8013: real time    0.8086
    CHARGE:  cpu time    0.2343: real time    0.2362
    --------------------------------------------
      LOOP:  cpu time    3.3820: real time    3.4435

 eigenvalue-minimisations  :     0
 total energy-change (2. order) :-0.1936782E-03  (-0.6212427E-04)
 number of electron     216.0000000 magnetization 
 augmentation part       -0.4365576 magnetization 

 Free energy of the ion-electron system (eV)
  ---------------------------------------------------
  alpha Z        PSCENC =        59.93625244
  Ewald energy   TEWEN  =     33820.06779040
  -Hartree energ DENC   =    -40888.40842464
  -exchange      EXHF   =         0.00000000
  -V(xc)+E(xc)   XCENC  =       451.39367449
  PAW double counting   =    112496.38627706  -112235.62248958
  entropy T*S    EENTRO =        -0.00000000
  eigenvalues    EBANDS =     -2558.05788618
  atomic energy  EATOM  =      8369.52358910
  ---------------------------------------------------
  free energy    TOTEN  =      -484.78121692 eV

  energy without entropy =     -484.78121692  energy(sigma->0) =     -484.78121692


--------------------------------------------------------------------------------------------------------




--------------------------------------- Iteration      1(  17)  ---------------------------------------


    POTLOK:  cpu time    0.2693: real time    0.2714
    SETDIJ:  cpu time    0.0030: real time    0.0030
    TRIAL :  cpu time    2.0052: real time    2.0256
    CORREC:  cpu time    0.8021: real time    0.8091
    CHARGE:  cpu time    0.2342: real time    0.2361
    --------------------------------------------
      LOOP:  cpu time    3.3485: real time    3.4364

 eigenvalue-minimisations  :     0
 total energy-change (2. order) :-0.6270464E-04  (-0.2361439E-04)
 number of electron     216.0000000 magnetization 
 augmentation part       -0.4365487 magnetization 

 Free energy of the ion-electron system (eV)
  ---------------------------------------------------
  alpha Z        PSCENC =        59.93625244
  Ewald energy   TEWEN  =     33820.06779040
  -Hartree energ DENC   =    -40888.50777811
  -exchange      EXHF   =         0.00000000
  -V(xc)+E(xc)   XCENC  =       451.39736259
  PAW double counting   =    112471.96778387  -112211.20456688
  entropy T*S    EENTRO =        -0.00000000
  eigenvalues    EBANDS =     -2557.96171302
  atomic energy  EATOM  =      8369.52358910
  ---------------------------------------------------
  free energy    TOTEN  =      -484.78127962 eV

  energy without entropy =     -484.78127962  energy(sigma->0) =     -484.78127962


--------------------------------------------------------------------------------------------------------




--------------------------------------- Iteration      1(  18)  ---------------------------------------


    POTLOK:  cpu time    0.2688: real time    0.2707
    SETDIJ:  cpu time    0.0029: real time    0.0029
    TRIAL :  cpu time    2.0054: real time    2.0258
    CORREC:  cpu time    0.8023: real time    0.8094
    CHARGE:  cpu time    0.2355: real time    0.2374
    --------------------------------------------
      LOOP:  cpu time    3.4076: real time    3.4416

 eigenvalue-minimisations  :     0
 total energy-change (2. order) :-0.2386444E-04  (-0.9356817E-05)
 number of electron     216.0000000 magnetization 
 augmentation part       -0.4365733 magnetization 

 Free energy of the ion-electron system (eV)
  ---------------------------------------------------
  alpha Z        PSCENC =        59.93625244
  Ewald energy   TEWEN  =     33820.06779040
  -Hartree energ DENC   =    -40888.48659472
  -exchange      EXHF   =         0.00000000
  -V(xc)+E(xc)   XCENC  =       451.39613301
  PAW double counting   =    112463.53039098  -112202.76676913
  entropy T*S    EENTRO =        -0.00000000
  eigenvalues    EBANDS =     -2557.98209557
  atomic energy  EATOM  =      8369.52358910
  ---------------------------------------------------
  free energy    TOTEN  =      -484.78130349 eV

  energy without entropy =     -484.78130349  energy(sigma->0) =     -484.78130349


--------------------------------------------------------------------------------------------------------




--------------------------------------- Iteration      1(  19)  ---------------------------------------


    POTLOK:  cpu time    0.2702: real time    0.2722
    SETDIJ:  cpu time    0.0027: real time    0.0027
    TRIAL :  cpu time    2.0229: real time    2.0454
    CORREC:  cpu time    0.8039: real time    0.8111
    CHARGE:  cpu time    0.2355: real time    0.2375
    --------------------------------------------
      LOOP:  cpu time    3.4047: real time    3.4707

 eigenvalue-minimisations  :     0
 total energy-change (2. order) :-0.9240845E-05  (-0.3685378E-05)
 number of electron     216.0000000 magnetization 
 augmentation part       -0.4366316 magnetization 

 Free energy of the ion-electron system (eV)
  ---------------------------------------------------
  alpha Z        PSCENC =        59.93625244
  Ewald energy   TEWEN  =     33820.06779040
  -Hartree energ DENC   =    -40888.51205709
  -exchange      EXHF   =         0.00000000
  -V(xc)+E(xc)   XCENC  =       451.39741328
  PAW double counting   =    112466.58322870  -112205.81957001
  entropy T*S    EENTRO =        -0.00000000
  eigenvalues    EBANDS =     -2557.95795955
  atomic energy  EATOM  =      8369.52358910
  ---------------------------------------------------
  free energy    TOTEN  =      -484.78131273 eV

  energy without entropy =     -484.78131273  energy(sigma->0) =     -484.78131273


--------------------------------------------------------------------------------------------------------




--------------------------------------- Iteration      1(  20)  ---------------------------------------


    POTLOK:  cpu time    0.2690: real time    0.2708
    SETDIJ:  cpu time    0.0030: real time    0.0030
    TRIAL :  cpu time    1.9983: real time    2.0267
    CORREC:  cpu time    0.8044: real time    0.8117
    CHARGE:  cpu time    0.2349: real time    0.2367
    --------------------------------------------
      LOOP:  cpu time    3.4310: real time    3.4751

 eigenvalue-minimisations  :     0
 total energy-change (2. order) :-0.3513807E-05  (-0.1403541E-05)
 number of electron     216.0000000 magnetization 
 augmentation part       -0.4366467 magnetization 

 Free energy of the ion-electron system (eV)
  ---------------------------------------------------
  alpha Z        PSCENC =        59.93625244
  Ewald energy   TEWEN  =     33820.06779040
  -Hartree energ DENC   =    -40888.50496608
  -exchange      EXHF   =         0.00000000
  -V(xc)+E(xc)   XCENC  =       451.39675870
  PAW double counting   =    112471.36974241  -112210.60577236
  entropy T*S    EENTRO =        -0.00000000
  eigenvalues    EBANDS =     -2557.96471084
  atomic energy  EATOM  =      8369.52358910
  ---------------------------------------------------
  free energy    TOTEN  =      -484.78131624 eV

  energy without entropy =     -484.78131624  energy(sigma->0) =     -484.78131624


--------------------------------------------------------------------------------------------------------




--------------------------------------- Iteration      1(  21)  ---------------------------------------


    POTLOK:  cpu time    0.2693: real time    0.2713
    SETDIJ:  cpu time    0.0027: real time    0.0027
    TRIAL :  cpu time    2.0067: real time    2.0273
    CORREC:  cpu time    0.8044: real time    0.8115
    CHARGE:  cpu time    0.2355: real time    0.2374
    --------------------------------------------
      LOOP:  cpu time    3.3787: real time    3.4362

 eigenvalue-minimisations  :     0
 total energy-change (2. order) :-0.1268651E-05  (-0.5859067E-06)
 number of electron     216.0000000 magnetization 
 augmentation part       -0.4366553 magnetization 

 Free energy of the ion-electron system (eV)
  ---------------------------------------------------
  alpha Z        PSCENC =        59.93625244
  Ewald energy   TEWEN  =     33820.06779040
  -Hartree energ DENC   =    -40888.52073817
  -exchange      EXHF   =         0.00000000
  -V(xc)+E(xc)   XCENC  =       451.39745364
  PAW double counting   =    112473.10474566  -112212.34085503
  entropy T*S    EENTRO =        -0.00000000
  eigenvalues    EBANDS =     -2557.94955555
  atomic energy  EATOM  =      8369.52358910
  ---------------------------------------------------
  free energy    TOTEN  =      -484.78131751 eV

  energy without entropy =     -484.78131751  energy(sigma->0) =     -484.78131751


--------------------------------------------------------------------------------------------------------




--------------------------------------- Iteration      1(  22)  ---------------------------------------


    POTLOK:  cpu time    0.2702: real time    0.2721
    SETDIJ:  cpu time    0.0031: real time    0.0031
    TRIAL :  cpu time    2.0065: real time    2.0261
    CORREC:  cpu time    0.8068: real time    0.8135
    EDDIAG:  cpu time    0.4576: real time    0.4623
    CHARGE:  cpu time    0.2342: real time    0.2361
    --------------------------------------------
      LOOP:  cpu time    3.8389: real time    3.8763

 eigenvalue-minimisations  :     0
 total energy-change (2. order) :-0.5533657E-06  (-0.2451469E-06)
 number of electron     216.0000000 magnetization 
 augmentation part       -0.4366509 magnetization 

 Free energy of the ion-electron system (eV)
  ---------------------------------------------------
  alpha Z        PSCENC =        59.93625244
  Ewald energy   TEWEN  =     33820.06779040
  -Hartree energ DENC   =    -40888.51424538
  -exchange      EXHF   =         0.00000000
  -V(xc)+E(xc)   XCENC  =       451.39711408
  PAW double counting   =    112472.83448882  -112212.07057503
  entropy T*S    EENTRO =        -0.00000000
  eigenvalues    EBANDS =     -2557.95573249
  atomic energy  EATOM  =      8369.52358910
  ---------------------------------------------------
  free energy    TOTEN  =      -484.78131807 eV

  energy without entropy =     -484.78131807  energy(sigma->0) =     -484.78131807


--------------------------------------------------------------------------------------------------------


  average scaling for gradient   0.9438


 average (electrostatic) potential at core
  the test charge radii are     0.5770  0.5955
  (the norm of the test charge is              1.0000)
       1 -85.2965       2 -85.2929       3 -85.3012       4 -85.3081       5 -85.2899
       6 -85.2874       7 -85.2985       8 -85.2885       9 -85.2906      10 -85.2964
      11 -85.2892      12 -85.2920      13 -85.2952      14 -85.2900      15 -85.2872
      16 -85.2877      17 -85.2921      18 -85.2939      19 -85.2959      20 -85.2921
      21 -85.2849      22 -85.2858      23 -85.3102      24 -85.3089      25 -85.2884
      26 -85.2902      27 -85.2915      28 -85.2988      29 -85.2872      30 -85.2884
      31 -85.3048      32 -85.2984      33 -85.2928      34 -85.2898      35 -85.2888
      36 -85.2909      37 -85.2929      38 -85.2951      39 -85.2954      40 -85.2940
      41 -85.2944      42 -85.2967      43 -85.2917      44 -85.2963      45 -85.2882
      46 -85.2875      47 -85.2914      48 -85.2894      49 -85.2944      50 -85.2926
      51 -89.2001      52-119.9773      53-119.9779
 
 
 
 E-fermi :  -3.9309     XC(G=0):  -2.3481     alpha+bet : -2.1113

 Fermi energy:        -3.9309303174

 k-point     1 :       0.0000    0.0000    0.0000
  band No.  band energies     occupation 
      1     -27.3005      2.00000
      2     -26.2953      2.00000
      3     -22.0433      2.00000
      4     -21.1096      2.00000
      5     -21.1059      2.00000
      6     -21.1012      2.00000
      7     -21.1010      2.00000
      8     -21.0987      2.00000
      9     -21.0982      2.00000
     10     -19.2610      2.00000
     11     -19.2604      2.00000
     12     -19.2576      2.00000
     13     -19.2575      2.00000
     14     -19.2563      2.00000
     15     -19.2562      2.00000
     16     -18.3618      2.00000
     17     -18.3612      2.00000
     18     -18.3606      2.00000
     19     -18.3594      2.00000
     20     -18.3589      2.00000
     21     -18.3587      2.00000
     22     -16.1945      2.00000
     23     -16.1939      2.00000
     24     -16.1927      2.00000
     25     -16.1921      2.00000
     26     -16.1891      2.00000
     27     -16.1890      2.00000
     28     -15.2082      2.00000
     29     -15.2078      2.00000
     30     -15.2055      2.00000
     31     -15.2055      2.00000
     32     -15.2051      2.00000
     33     -15.2049      2.00000
     34     -13.8536      2.00000
     35     -13.8536      2.00000
     36     -13.8532      2.00000
     37     -13.8525      2.00000
     38     -13.8524      2.00000
     39     -13.8516      2.00000
     40     -12.1100      2.00000
     41     -11.4646      2.00000
     42     -11.4645      2.00000
     43     -11.4632      2.00000
     44     -11.4632      2.00000
     45     -11.4630      2.00000
     46     -11.4628      2.00000
     47     -11.3689      2.00000
     48     -11.3687      2.00000
     49     -11.3671      2.00000
     50     -11.3669      2.00000
     51     -11.3649      2.00000
     52     -11.3646      2.00000
     53     -10.9220      2.00000
     54     -10.8756      2.00000
     55     -10.8529      2.00000
     56     -10.1260      2.00000
     57      -9.9897      2.00000
     58      -9.9895      2.00000
     59      -9.9894      2.00000
     60      -9.9893      2.00000
     61      -9.9881      2.00000
     62      -9.9880      2.00000
     63      -9.0227      2.00000
     64      -9.0186      2.00000
     65      -9.0163      2.00000
     66      -9.0150      2.00000
     67      -9.0125      2.00000
     68      -9.0109      2.00000
     69      -8.7127      2.00000
     70      -8.7103      2.00000
     71      -8.7099      2.00000
     72      -8.7082      2.00000
     73      -8.7078      2.00000
     74      -8.7071      2.00000
     75      -8.6625      2.00000
     76      -8.6623      2.00000
     77      -8.6620      2.00000
     78      -8.6603      2.00000
     79      -8.6595      2.00000
     80      -8.6590      2.00000
     81      -7.3262      2.00000
     82      -7.3091      2.00000
     83      -7.0540      2.00000
     84      -7.0538      2.00000
     85      -7.0538      2.00000
     86      -7.0529      2.00000
     87      -7.0498      2.00000
     88      -7.0497      2.00000
     89      -6.8937      2.00000
     90      -6.8935      2.00000
     91      -6.8859      2.00000
     92      -6.8850      2.00000
     93      -6.8843      2.00000
     94      -6.8675      2.00000
     95      -5.9977      2.00000
     96      -5.9952      2.00000
     97      -5.9931      2.00000
     98      -5.9889      2.00000
     99      -5.9883      2.00000
    100      -5.9840      2.00000
    101      -5.5648      2.00000
    102      -5.5626      2.00000
    103      -4.0146      2.00000
    104      -4.0128      2.00000
    105      -4.0102      2.00000
    106      -4.0091      2.00000
    107      -4.0045      2.00000
    108      -4.0042      2.00000
    109      -1.2124      0.00000
    110      -1.2118      0.00000
    111      -1.2058      0.00000
    112      -1.2050      0.00000
    113      -1.2032      0.00000
    114      -1.2025      0.00000
    115       0.5022      0.00000
    116       0.6513      0.00000
    117       0.6526      0.00000
    118       0.6547      0.00000
    119       0.6596      0.00000
    120       0.6603      0.00000
    121       0.6627      0.00000
    122       1.1418      0.00000
    123       1.1837      0.00000
    124       1.2001      0.00000
    125       1.7333      0.00000
    126       1.8935      0.00000
    127       1.9316      0.00000
    128       2.0155      0.00000
    129       2.0240      0.00000
    130       2.0272      0.00000
    131       2.0581      0.00000
    132       2.3943      0.00000
    133       2.3981      0.00000
    134       2.4025      0.00000
    135       2.4030      0.00000
    136       2.4037      0.00000
    137       2.4059      0.00000
    138       3.0148      0.00000
    139       3.4248      0.00000
    140       4.0817      0.00000


--------------------------------------------------------------------------------------------------------


 soft charge-density along one line, spin component           1
         0         1         2         3         4         5         6         7         8         9
 total charge-density along one line
 
 pseudopotential strength for first ion, spin component:           1
 12.690  21.354  -0.000   0.000   0.000  -0.000   0.000   0.000
 21.354  35.933  -0.000   0.000   0.000  -0.000   0.000   0.000
 -0.000  -0.000  -3.165  -0.000   0.000  -5.672  -0.000   0.000
  0.000   0.000  -0.000  -3.166  -0.000  -0.000  -5.673  -0.000
  0.000   0.000   0.000  -0.000  -3.165   0.000  -0.000  -5.672
 -0.000  -0.000  -5.672  -0.000   0.000 -10.143  -0.000   0.000
  0.000   0.000  -0.000  -5.673  -0.000  -0.000 -10.146  -0.000
  0.000   0.000   0.000  -0.000  -5.672   0.000  -0.000 -10.143
 total augmentation occupancy for first ion, spin component:           1
  7.879  -2.765  -0.000  -0.002   0.000   0.000   0.001  -0.000
 -2.765   1.007   0.000   0.001  -0.000  -0.000  -0.000   0.000
 -0.000   0.000   7.264  -0.008   0.000  -2.462   0.003  -0.000
 -0.002   0.001  -0.008   3.234  -0.000   0.003  -0.862   0.000
  0.000  -0.000   0.000  -0.000   7.263  -0.000   0.000  -2.462
  0.000  -0.000  -2.462   0.003  -0.000   0.849  -0.001   0.000
  0.001  -0.000   0.003  -0.862   0.000  -0.001   0.236  -0.000
 -0.000   0.000  -0.000   0.000  -2.462   0.000  -0.000   0.849


------------------------ aborting loop because EDIFF is reached ----------------------------------------


    FORLOC:  cpu time    0.0518: real time    0.0523
    FORNL :  cpu time    0.7563: real time    0.7660
    FORCOR:  cpu time    0.3014: real time    0.3038
    OFIELD:  cpu time    0.0014: real time    0.0014

 ---------------------------------------------------------------------------------------------

         DFTD3 V3.0 Rev 1        
 IVDW         = 11
 DF pbe       
 parameters
 VDW_S6       =    1.0000
 VDW_S8       =    0.7220
 VDW_SR       =    1.2170
 rs18     =    1.0000
 alpha6   =   14.0000
 alpha8   =   16.0000
 k1-k3    =   16.0000    1.3333   -4.0000
 VDW_RADIUS   =   50.2022 A
 VDW_CNRADIUS =   21.1671 A
 Edisp (eV)   -1.86455

 E6    (eV) :    -1.0727
 E8    (eV) :    -0.7918
 % E8        : 42.47
    FORVDW:  cpu time    0.1869: real time    0.1889

 VOLUME and BASIS-vectors are now :
 -----------------------------------------------------------------------------
  energy-cutoff  :     1000.00
  volume of cell :     2631.08
      direct lattice vectors                 reciprocal lattice vectors
    12.325000000  0.000000000  0.000000000     0.081135903  0.046843835  0.000000000
    -6.162500000 10.673763102  0.000000000     0.000000000  0.093687670  0.000000000
     0.000000000  0.000000000 20.000000000     0.000000000  0.000000000  0.050000000

  length of vectors
    12.325000000 12.325000000 20.000000000     0.093687670  0.093687670  0.050000000


 FORCES acting on ions:
    Electron-Ion                     Ewald-Force                    Non-Local-Force
 -----------------------------------------------------------------------------------------------
   0.936E+01 0.820E+01 0.227E+02   -.937E+01 -.820E+01 -.227E+02   0.129E-01 -.356E-02 0.987E-02
   0.150E+02 0.737E+01 0.294E+02   -.150E+02 -.736E+01 -.294E+02   0.182E-01 -.999E-02 -.926E-02
   0.716E+01 0.185E+02 0.359E+02   -.716E+01 -.185E+02 -.359E+02   -.222E-02 0.378E-01 0.206E-01
   0.109E+02 0.158E+02 0.550E+02   -.109E+02 -.159E+02 -.551E+02   0.399E-01 0.155E-01 0.515E-01
   0.101E+02 0.239E+01 0.228E+02   -.101E+02 -.239E+01 -.228E+02   0.422E-02 -.145E-01 -.531E-02
   0.106E+02 -.186E+01 0.232E+02   -.106E+02 0.186E+01 -.232E+02   -.144E-01 -.143E-02 -.149E-01
   0.191E+02 0.751E+01 0.480E+02   -.191E+02 -.747E+01 -.480E+02   0.436E-01 -.459E-01 -.283E-02
   0.186E+02 -.643E+01 0.505E+02   -.187E+02 0.645E+01 -.504E+02   0.111E-01 -.242E-01 -.524E-01
   -.808E+01 0.169E+02 0.365E+02   0.810E+01 -.169E+02 -.365E+02   -.167E-01 -.438E-02 -.284E-01
   -.141E+02 0.120E+02 0.531E+02   0.141E+02 -.120E+02 -.531E+02   -.638E-01 0.385E-01 -.225E-01
   0.252E+01 -.228E+01 0.184E+02   -.251E+01 0.227E+01 -.184E+02   -.266E-02 0.132E-02 -.552E-02
   0.204E+01 -.166E+01 0.171E+02   -.203E+01 0.166E+01 -.171E+02   -.139E-01 0.610E-02 0.179E-02
   0.732E+01 -.168E+02 0.570E+02   -.738E+01 0.169E+02 -.570E+02   0.709E-01 -.277E-01 -.279E-01
   0.355E+01 -.186E+02 0.366E+02   -.357E+01 0.186E+02 -.366E+02   0.216E-01 -.681E-03 -.341E-01
   -.906E+01 0.568E+01 0.222E+02   0.905E+01 -.568E+01 -.222E+02   0.124E-01 -.631E-02 -.679E-02
   -.132E+02 0.377E+01 0.258E+02   0.132E+02 -.378E+01 -.258E+02   -.393E-02 0.111E-01 -.235E-01
   -.141E+01 -.572E+00 0.164E+02   0.142E+01 0.569E+00 -.164E+02   -.584E-02 0.153E-02 0.950E-03
   0.751E+00 0.512E+01 0.175E+02   -.746E+00 -.512E+01 -.175E+02   -.777E-02 0.386E-02 0.877E-02
   -.269E+01 -.158E+02 0.282E+02   0.267E+01 0.158E+02 -.282E+02   0.209E-01 -.759E-02 0.298E-02
   -.120E+01 -.789E+01 0.194E+02   0.119E+01 0.790E+01 -.194E+02   0.570E-02 -.568E-02 -.205E-02
   0.154E+02 -.671E+01 0.316E+02   -.154E+02 0.672E+01 -.316E+02   -.175E-02 -.658E-02 -.452E-01
   0.935E+01 -.802E+01 0.249E+02   -.935E+01 0.801E+01 -.249E+02   -.110E-01 0.120E-01 -.186E-01
   -.360E+01 0.767E+01 0.682E+02   0.364E+01 -.771E+01 -.683E+02   -.409E-01 0.363E-01 0.774E-01
   -.582E+01 -.121E+02 0.651E+02   0.579E+01 0.122E+02 -.652E+02   0.295E-01 -.478E-01 0.631E-01
   0.445E+01 -.193E+01 0.185E+02   -.443E+01 0.192E+01 -.185E+02   -.574E-02 0.763E-03 -.973E-02
   0.853E+00 0.397E+01 0.187E+02   -.847E+00 -.397E+01 -.187E+02   -.119E-01 0.617E-02 -.574E-03
   -.193E+02 0.238E+01 0.401E+02   0.193E+02 -.240E+01 -.401E+02   -.404E-02 0.227E-01 -.272E-01
   -.179E+02 -.752E+01 0.365E+02   0.180E+02 0.750E+01 -.365E+02   -.318E-01 0.245E-01 0.624E-02
   0.567E+01 -.115E+02 0.261E+02   -.568E+01 0.115E+02 -.261E+02   0.119E-01 0.538E-02 -.226E-01
   0.526E+00 -.439E+01 0.198E+02   -.534E+00 0.438E+01 -.198E+02   -.863E-04 0.656E-02 -.933E-02
   -.143E+02 -.153E+02 0.448E+02   0.143E+02 0.153E+02 -.448E+02   -.366E-01 -.227E-01 0.300E-01
   -.844E+01 -.154E+02 0.301E+02   0.844E+01 0.154E+02 -.301E+02   0.213E-03 -.210E-01 0.146E-01
   0.534E+00 0.217E+01 0.170E+02   -.540E+00 -.217E+01 -.170E+02   0.112E-01 -.774E-02 0.392E-02
   0.149E+01 0.218E+01 0.183E+02   -.149E+01 -.217E+01 -.183E+02   0.154E-03 -.465E-03 -.593E-02
   -.634E+01 0.826E+00 0.201E+02   0.634E+01 -.831E+00 -.201E+02   0.780E-02 0.843E-03 -.216E-02
   -.548E+01 -.221E+01 0.195E+02   0.549E+01 0.220E+01 -.195E+02   -.103E-01 0.733E-02 -.226E-02
   -.111E+02 -.576E+01 0.232E+02   0.111E+02 0.575E+01 -.232E+02   -.135E-01 0.352E-02 0.768E-03
   -.650E+01 -.526E+01 0.192E+02   0.651E+01 0.526E+01 -.192E+02   -.102E-01 0.266E-02 0.996E-02
   -.607E+01 -.792E+01 0.207E+02   0.608E+01 0.793E+01 -.207E+02   -.100E-01 -.555E-02 0.768E-02
   -.899E+00 -.191E+01 0.175E+02   0.899E+00 0.191E+01 -.175E+02   0.274E-02 -.186E-02 0.841E-02
   0.228E+01 0.550E+01 0.183E+02   -.228E+01 -.551E+01 -.183E+02   -.474E-02 0.795E-02 0.811E-02
   0.748E+01 0.117E+02 0.242E+02   -.749E+01 -.117E+02 -.242E+02   0.876E-02 0.858E-02 0.138E-01
   0.606E+00 0.970E+01 0.204E+02   -.596E+00 -.971E+01 -.204E+02   -.743E-02 0.751E-02 -.132E-02
   0.171E-01 0.176E+02 0.308E+02   0.680E-02 -.176E+02 -.308E+02   -.272E-01 0.110E-01 0.461E-02
   -.184E+01 0.364E+01 0.197E+02   0.184E+01 -.363E+01 -.197E+02   0.176E-02 -.592E-02 -.661E-02
   -.764E+01 0.966E+01 0.247E+02   0.764E+01 -.965E+01 -.247E+02   -.113E-01 -.138E-03 -.183E-01
   -.136E+01 -.378E+01 0.181E+02   0.136E+01 0.379E+01 -.181E+02   0.132E-01 -.271E-02 0.138E-02
   -.350E+01 0.141E+01 0.174E+02   0.348E+01 -.140E+01 -.174E+02   0.473E-02 0.391E-03 -.822E-02
   0.290E+00 -.235E+01 0.171E+02   -.293E+00 0.235E+01 -.171E+02   0.783E-02 -.407E-02 0.591E-02
   0.372E+01 0.272E+01 0.173E+02   -.373E+01 -.272E+01 -.174E+02   0.596E-02 0.147E-02 0.310E-02
   0.949E-01 -.685E-01 -.355E+03   -.927E-01 0.677E-01 0.355E+03   -.617E-02 0.365E-02 -.104E-01
   -.229E+03 0.156E+03 -.544E+03   0.279E+03 -.190E+03 0.547E+03   -.510E+02 0.347E+02 -.333E+01
   0.229E+03 -.156E+03 -.524E+03   -.279E+03 0.190E+03 0.521E+03   0.510E+02 -.347E+02 0.318E+01
 -----------------------------------------------------------------------------------------------
   0.122E-01 0.385E-02 0.220E+00   0.568E-13 0.284E-13 0.114E-12   -.121E-01 -.398E-02 -.219E+00
 
 
 POSITION                                       TOTAL-FORCE (eV/Angst)
 -----------------------------------------------------------------------------------
     11.98348      0.00342      0.01417         0.002671      0.000455     -0.000460
     -0.34154      1.42665      0.01100        -0.000561      0.000865     -0.000496
      2.12355      0.00315      0.01249         0.001010      0.001712     -0.000119
      2.12326      1.42653      0.00641         0.001987      0.000280      0.002302
     10.75099      2.13819      0.01213         0.001102     -0.004372      0.001343
     -1.57382      3.56123      0.01110        -0.004743      0.006264     -0.000213
      0.89078      2.13854      0.00548         0.002137     -0.005738      0.004987
      0.89099      3.56147      0.00181        -0.010032      0.002407      0.007814
      4.58864      0.00346      0.01135         0.004952     -0.008044     -0.000367
      4.58894      1.42623      0.00646        -0.008339      0.004804      0.010115
      9.51854      4.27281      0.01369         0.007329     -0.005419      0.000461
     -2.80632      5.69591      0.01434        -0.007090      0.003824      0.001150
      2.12300      4.27302      0.00000         0.007256      0.001198      0.012402
      2.12335      5.69594      0.00581        -0.002328      0.002132      0.000551
      7.05344      0.00333      0.01399         0.006492     -0.003110      0.000965
      7.05353      1.42635      0.01368        -0.004367      0.004740     -0.001577
      8.28610      6.40752      0.01601         0.003460     -0.001693     -0.000470
     -4.03885      7.83070      0.01636        -0.001901      0.001893      0.000151
      3.35586      6.40753      0.01007         0.001697     -0.000985      0.000499
      3.35599      7.83072      0.01320        -0.003159      0.000276      0.000122
     -0.34146      4.27290      0.00723         0.004457     -0.004025     -0.001378
     -0.34138      5.69591      0.00946        -0.006865      0.002967      0.000990
      3.35624      2.13791      0.00222        -0.001258      0.002294      0.016298
      3.35573      3.56155      0.00139         0.003916     -0.003395      0.011838
     -1.57395      6.40758      0.01311         0.008494     -0.004251     -0.000455
     -1.57385      7.83068      0.01438        -0.004783      0.004126      0.000579
      5.82093      2.13784      0.01033         0.009909     -0.000228     -0.000187
      5.82114      3.56097      0.01156        -0.003786      0.001880      0.000761
      0.89092      6.40755      0.00907         0.004598     -0.000452      0.000183
      0.89106      7.83068      0.01235        -0.007845      0.001025      0.000616
      4.58871      4.27293      0.00850        -0.002569     -0.004166     -0.001380
      4.58852      5.69606      0.01149         0.000716      0.003325     -0.000670
      9.51845      0.00337      0.01490         0.005019     -0.005046      0.000535
      9.51855      1.42644      0.01438        -0.004500      0.007577     -0.000131
      8.28593      2.13803      0.01453         0.003792     -0.004770      0.001134
      8.28613      3.56115      0.01464        -0.004605      0.001697      0.000576
      7.05356      4.27269      0.01457         0.003081     -0.000855      0.000761
      7.05362      5.69588      0.01553        -0.002556      0.000414      0.000169
      5.82112      6.40755      0.01489        -0.001608      0.001479      0.000404
      5.82102      7.83073      0.01579         0.001883      0.001100     -0.000096
      7.05363      8.54227      0.01631        -0.003643     -0.000050      0.001387
     -5.27149      9.96549      0.01495        -0.001061     -0.002150     -0.001105
     -2.80638      8.54234      0.01558         0.003014     -0.001281     -0.000295
     -2.80627      9.96553      0.01362        -0.002672      0.001633     -0.000873
     -0.34149      8.54239      0.01378         0.005932     -0.002186      0.000697
     -0.34138      9.96550      0.01354        -0.006834      0.002563      0.000623
      2.12343      8.54232      0.01336         0.006015     -0.001571      0.001196
      2.12354      9.96544      0.01469        -0.007400      0.004448     -0.001784
      4.58846      8.54235      0.01505         0.003969     -0.003402      0.001182
      4.58853      9.96550      0.01517        -0.003295      0.003261      0.000674
      3.04930      2.68154      3.53553        -0.003327      0.002617     -0.010848
      4.02070      2.02068      3.59996        -0.519995      0.355842     -0.064956
      2.07767      3.34267      3.47608         0.526235     -0.361907      0.004394
 -----------------------------------------------------------------------------------
    total drift:                                0.000131     -0.000139      0.000898


--------------------------------------------------------------------------------------------------------



  FREE ENERGIE OF THE ION-ELECTRON SYSTEM (eV)
  ---------------------------------------------------
  free  energy   TOTEN  =      -486.64586573 eV

  energy  without entropy=     -486.64586573  energy(sigma->0) =     -486.64586573
 


--------------------------------------------------------------------------------------------------------


    POTLOK:  cpu time    0.2790: real time    0.2813


--------------------------------------------------------------------------------------------------------


     LOOP+:  cpu time  109.2152: real time  111.0166
    4ORBIT:  cpu time    0.0000: real time    0.0000

 total amount of memory used by VASP MPI-rank0   175916. kBytes
=======================================================================

   base      :      30000. kBytes
   nonl-proj :      46129. kBytes
   fftplans  :      35778. kBytes
   grid      :      52596. kBytes
   one-center:         43. kBytes
   wavefun   :      11370. kBytes
 
  
  
 General timing and accounting informations for this job:
 ========================================================
  
                  Total CPU time used (sec):      143.819
                            User time (sec):      133.300
                          System time (sec):       10.519
                         Elapsed time (sec):      147.236
  
                   Maximum memory used (kb):      513296.
                   Average memory used (kb):          N/A
  
                          Minor page faults:        52988
                          Major page faults:          128
                 Voluntary context switches:         3618
