 vasp.6.2.1 16May21 (build Nov 06 2021 14:46:37) complex                        
  
 executed on             LinuxIFC date 2025.03.03  17:12:03
 running on  112 total cores
 distrk:  each k-point on  112 cores,    1 groups
 distr:  one band on NCORE=   4 cores,   28 groups


--------------------------------------------------------------------------------------------------------


 INCAR:
   ALGO = Conjugate
   NCORE = 4
   ISMEAR = 0
   SIGMA = 0.01
   PREC = Accurate
   EDIFF = 1E-6
   ENCUT = 1000
   ISIF = 0
   IVDW = 11
   LWAVE = .FALSE.
   LCHARGE = .FALSE.
   SYMPREC = 1E-6

 POTCAR:    PAW_PBE C_h 06Feb2004                 
 POTCAR:    PAW_PBE O_h 06Feb2004                 
 -----------------------------------------------------------------------------
|                                                                             |
|           W    W    AA    RRRRR   N    N  II  N    N   GGGG   !!!           |
|           W    W   A  A   R    R  NN   N  II  NN   N  G    G  !!!           |
|           W    W  A    A  R    R  N N  N  II  N N  N  G       !!!           |
|           W WW W  AAAAAA  RRRRR   N  N N  II  N  N N  G  GGG   !            |
|           WW  WW  A    A  R   R   N   NN  II  N   NN  G    G                |
|           W    W  A    A  R    R  N    N  II  N    N   GGGG   !!!           |
|                                                                             |
|     For optimal performance we recommend to set                             |
|       NCORE = 2 up to number-of-cores-per-socket                            |
|     NCORE specifies how many cores store one orbital (NPAR=cpu/NCORE).      |
|     This setting can greatly improve the performance of VASP for DFT.       |
|     The default, NCORE=1 might be grossly inefficient on modern             |
|     multi-core architectures or massively parallel machines. Do your        |
|     own testing! More info at https://www.vasp.at/wiki/index.php/NCORE      |
|     Unfortunately you need to use the default for GW and RPA                |
|     calculations (for HF NCORE is supported but not extensively tested      |
|     yet).                                                                   |
|                                                                             |
 -----------------------------------------------------------------------------

 POTCAR:    PAW_PBE C_h 06Feb2004                 
   VRHFIN =C: s2p2                                                                                  
   LEXCH  = PE                                                                                      
   EATOM  =   147.1560 eV,   10.8157 Ry                                                             
                                                                                                    
   TITEL  = PAW_PBE C_h 06Feb2004                                                                   
   LULTRA =        F    use ultrasoft PP ?                                                          
   IUNSCR =        1    unscreen: 0-lin 1-nonlin 2-no                                               
   RPACOR =    0.800    partial core radius                                                         
   POMASS =   12.011; ZVAL   =    4.000    mass and valenz                                          
   RCORE  =    1.100    outmost cutoff radius                                                       
   RWIGS  =    1.630; RWIGS  =    0.863    wigner-seitz radius (au A)                               
   ENMAX  =  700.000; ENMIN  =  500.000 eV                                                          
   ICORE  =        2    local potential                                                             
   LCOR   =        T    correct aug charges                                                         
   LPAW   =        T    paw PP                                                                      
   EAUG   =  946.768                                                                                
   DEXC   =    0.000                                                                                
   RMAX   =    1.128    core radius for proj-oper                                                   
   RAUG   =    1.300    factor for augmentation sphere                                              
   RDEP   =    1.162    radius for radial grids                                                     
   RDEPT  =    1.088    core radius for aug-charge                                                  
                                                                                                    
   Atomic configuration                                                                             
    4 entries                                                                                       
     n  l   j            E        occ.                                                              
     1  0  0.50      -273.3789   2.0000                                                             
     2  0  0.50       -13.7508   2.0000                                                             
     2  1  0.50        -5.2854   2.0000                                                             
     3  2  1.50        -5.4423   0.0000                                                             
   Description                                                                                      
     l       E           TYP  RCUT    TYP  RCUT                                                     
     0    -13.7508458     23  1.100                                                                 
     0     -8.2022199     23  1.100                                                                 
     1     -5.2854383     23  1.100                                                                 
     1      1.1560700     23  1.100                                                                 
     2     -5.4423304      7  1.100                                                                 
  local pseudopotential read in
  partial core-charges read in
  partial kinetic energy density read in
  atomic valenz-charges read in
  non local Contribution for L=           0  read in
    real space projection operators read in
  non local Contribution for L=           0  read in
    real space projection operators read in
  non local Contribution for L=           1  read in
    real space projection operators read in
  non local Contribution for L=           1  read in
    real space projection operators read in
    PAW grid and wavefunctions read in
 
   number of l-projection  operators is LMAX  =           4
   number of lm-projection operators is LMMAX =           8
 
 POTCAR:    PAW_PBE O_h 06Feb2004                 
   VRHFIN =O: s2p4                                                                                  
   LEXCH  = PE                                                                                      
   EATOM  =   432.3788 eV,   31.7789 Ry                                                             
                                                                                                    
   TITEL  = PAW_PBE O_h 06Feb2004                                                                   
   LULTRA =        F    use ultrasoft PP ?                                                          
   IUNSCR =        1    unscreen: 0-lin 1-nonlin 2-no                                               
   RPACOR =    0.800    partial core radius                                                         
   POMASS =   16.000; ZVAL   =    6.000    mass and valenz                                          
   RCORE  =    1.100    outmost cutoff radius                                                       
   RWIGS  =    1.400; RWIGS  =    0.741    wigner-seitz radius (au A)                               
   ENMAX  =  700.000; ENMIN  =  500.000 eV                                                          
   ICORE  =        2    local potential                                                             
   LCOR   =        T    correct aug charges                                                         
   LPAW   =        T    paw PP                                                                      
   EAUG   =  888.804                                                                                
   DEXC   =    0.000                                                                                
   RMAX   =    1.128    core radius for proj-oper                                                   
   RAUG   =    1.300    factor for augmentation sphere                                              
   RDEP   =    1.125    radius for radial grids                                                     
   RDEPT  =    1.088    core radius for aug-charge                                                  
                                                                                                    
   Atomic configuration                                                                             
    4 entries                                                                                       
     n  l   j            E        occ.                                                              
     1  0  0.50      -514.6923   2.0000                                                             
     2  0  0.50       -23.9615   2.0000                                                             
     2  1  0.50        -9.0305   4.0000                                                             
     3  2  1.50        -9.5241   0.0000                                                             
   Description                                                                                      
     l       E           TYP  RCUT    TYP  RCUT                                                     
     0    -23.9615319     23  1.100                                                                 
     0    -25.3221145     23  1.100                                                                 
     1     -9.0304911     23  1.100                                                                 
     1     -5.4802209     23  1.100                                                                 
     2     -9.5240782      7  1.100                                                                 
  local pseudopotential read in
  partial core-charges read in
  partial kinetic energy density read in
  atomic valenz-charges read in
  non local Contribution for L=           0  read in
    real space projection operators read in
  non local Contribution for L=           0  read in
    real space projection operators read in
  non local Contribution for L=           1  read in
    real space projection operators read in
  non local Contribution for L=           1  read in
    real space projection operators read in
    PAW grid and wavefunctions read in
 
   number of l-projection  operators is LMAX  =           4
   number of lm-projection operators is LMMAX =           8
 
 -----------------------------------------------------------------------------
|                                                                             |
|               ----> ADVICE to this user running VASP <----                  |
|                                                                             |
|     You have a (more or less) 'large supercell' and for larger cells it     |
|     might be more efficient to use real-space projection operators.         |
|     Therefore, try LREAL= Auto in the INCAR file.                           |
|     Mind: For very accurate calculation, you might also keep the            |
|     reciprocal projection scheme (i.e. LREAL=.FALSE.).                      |
|                                                                             |
 -----------------------------------------------------------------------------

  PAW_PBE C_h 06Feb2004                 :
 energy of atom  1       EATOM= -147.1560
 kinetic energy error for atom=    0.0031 (will be added to EATOM!!)
  PAW_PBE O_h 06Feb2004                 :
 energy of atom  2       EATOM= -432.3788
 kinetic energy error for atom=    0.0171 (will be added to EATOM!!)
 
 
 POSCAR:  C  O
  positions in cartesian coordinates
  No initial velocities read in
 exchange correlation table for  LEXCH =        8
   RHO(1)=    0.500       N(1)  =     2000
   RHO(2)=  100.500       N(2)  =     4000
 


--------------------------------------------------------------------------------------------------------


 ion  position               nearest neighbor table
   1  0.972  0.000  0.001-  50 1.42   2 1.42  42 1.42
   2  0.039  0.134  0.001-   5 1.42   7 1.42   1 1.42
   3  0.172  0.000  0.001-  42 1.42  44 1.42   4 1.42
   4  0.239  0.134  0.000-   7 1.42   3 1.42  23 1.42
   5  0.972  0.200  0.001-   6 1.42   2 1.42  34 1.42
   6  0.039  0.334  0.001-   5 1.42  21 1.42  11 1.42
   7  0.172  0.200  0.000-   8 1.42   2 1.42   4 1.42
   8  0.239  0.334  0.000-  13 1.42   7 1.42  21 1.42
   9  0.372  0.000  0.001-  10 1.42  44 1.42  46 1.42
  10  0.439  0.134  0.000-  27 1.42   9 1.42  23 1.42
  11  0.972  0.400  0.001-  12 1.42  36 1.42   6 1.42
  12  0.039  0.534  0.001-  25 1.42  11 1.42  17 1.42
  13  0.372  0.400  0.000-   8 1.42  14 1.42  24 1.42
  14  0.439  0.534  0.000-  13 1.42  29 1.42  19 1.42
  15  0.572  0.000  0.001-  46 1.42  16 1.42  48 1.42
  16  0.639  0.134  0.001-  15 1.42  35 1.42  27 1.42
  17  0.972  0.600  0.001-  38 1.42  18 1.42  12 1.42
  18  0.039  0.734  0.001-  43 1.42  41 1.42  17 1.42
  19  0.572  0.600  0.001-  14 1.42  20 1.42  32 1.42
  20  0.639  0.734  0.001-  49 1.42  19 1.42  47 1.42
  21  0.172  0.400  0.000-  22 1.42   8 1.42   6 1.42
  22  0.239  0.534  0.000-  21 1.42  29 1.42  25 1.42
  23  0.372  0.200  0.000-  10 1.42   4 1.42  24 1.42
  24  0.439  0.334  0.000-  13 1.42  31 1.42  23 1.42
  25  0.172  0.600  0.001-  26 1.42  12 1.42  22 1.42
  26  0.239  0.734  0.001-  25 1.42  45 1.42  43 1.42
  27  0.572  0.200  0.001-  10 1.42  28 1.42  16 1.42
  28  0.639  0.334  0.001-  27 1.42  37 1.42  31 1.42
  29  0.372  0.600  0.000-  22 1.42  14 1.42  30 1.42
  30  0.439  0.734  0.001-  47 1.42  29 1.42  45 1.42
  31  0.572  0.400  0.000-  32 1.42  28 1.42  24 1.42
  32  0.639  0.534  0.001-  31 1.42  39 1.42  19 1.42
  33  0.772  0.000  0.001-  34 1.42  48 1.42  50 1.42
  34  0.839  0.134  0.001-  33 1.42   5 1.42  35 1.42
  35  0.772  0.200  0.001-  36 1.42  16 1.42  34 1.42
  36  0.839  0.334  0.001-  35 1.42  11 1.42  37 1.42
  37  0.772  0.400  0.001-  28 1.42  38 1.42  36 1.42
  38  0.839  0.534  0.001-  17 1.42  37 1.42  39 1.42
  39  0.772  0.600  0.001-  40 1.42  38 1.42  32 1.42
  40  0.839  0.734  0.001-  39 1.42  49 1.42  41 1.42
  41  0.972  0.800  0.001-  18 1.42  42 1.42  40 1.42
  42  0.039  0.934  0.001-   3 1.42  41 1.42   1 1.42
  43  0.172  0.800  0.001-  18 1.42  44 1.42  26 1.42
  44  0.239  0.934  0.001-   9 1.42  43 1.42   3 1.42
  45  0.372  0.800  0.001-  26 1.42  46 1.42  30 1.42
  46  0.439  0.934  0.001-  15 1.42  45 1.42   9 1.42
  47  0.572  0.800  0.001-  30 1.42  48 1.42  20 1.42
  48  0.639  0.934  0.001-  47 1.42  33 1.42  15 1.42
  49  0.772  0.800  0.001-  50 1.42  20 1.42  40 1.42
  50  0.839  0.934  0.001-  49 1.42   1 1.42  33 1.42
  51  0.373  0.251  0.236-  52 1.18  53 1.18
  52  0.421  0.189  0.239-  51 1.18
  53  0.325  0.313  0.233-  51 1.18
 
  LATTYP: Found a hexagonal cell.
 ALAT       =    12.3250000000
 C/A-ratio  =     1.6227180527
  
  Lattice vectors:
  
 A1 = (  12.3250000000,   0.0000000000,   0.0000000000)
 A2 = (  -6.1625000000,  10.6737631016,   0.0000000000)
 A3 = (   0.0000000000,   0.0000000000,  20.0000000000)


Analysis of symmetry for initial positions (statically):
=====================================================================
 Subroutine PRICEL returns:
 Original cell was already a primitive cell.
 

 Routine SETGRP: Setting up the symmetry group for a 
 hexagonal supercell.


 Subroutine GETGRP returns: Found  1 space group operations
 (whereof  1 operations were pure point group operations)
 out of a pool of 24 trial point group operations.


The static configuration has the point symmetry C_1 .


Analysis of symmetry for dynamics (positions and initial velocities):
=====================================================================
 Subroutine PRICEL returns:
 Original cell was already a primitive cell.
 

 Routine SETGRP: Setting up the symmetry group for a 
 hexagonal supercell.


 Subroutine GETGRP returns: Found  1 space group operations
 (whereof  1 operations were pure point group operations)
 out of a pool of 24 trial point group operations.


The dynamic configuration has the point symmetry C_1 .


 Subroutine INISYM returns: Found  1 space group operations
 (whereof  1 operations are pure point group operations),
 and found     1 'primitive' translations


----------------------------------------------------------------------------------------

                                     Primitive cell                                     

  volume of cell :    2631.0826

  direct lattice vectors                    reciprocal lattice vectors
    12.325000000  0.000000000  0.000000000     0.081135903  0.046843835  0.000000000
    -6.162500000 10.673763102  0.000000000     0.000000000  0.093687670  0.000000000
     0.000000000  0.000000000 20.000000000     0.000000000  0.000000000  0.050000000

  length of vectors
    12.325000000 12.325000000 20.000000000     0.093687670  0.093687670  0.050000000

  position of ions in fractional coordinates (direct lattice)
     0.972450841  0.000320818  0.000708389
     0.039118382  0.133659505  0.000550216
     0.172443627  0.000295449  0.000624535
     0.239096278  0.133647917  0.000320585
     0.972452058  0.200322012  0.000606523
     0.039128360  0.333643771  0.000555187
     0.172451764  0.200354552  0.000273959
     0.239124359  0.333665720  0.000090325
     0.372465565  0.000324403  0.000567391
     0.439137473  0.133619939  0.000322923
     0.972449824  0.400309362  0.000684513
     0.039124981  0.533636789  0.000716763
     0.372416176  0.400329481  0.000000000
     0.439099602  0.533638981  0.000290518
     0.572443676  0.000312125  0.000699475
     0.639110207  0.133631751  0.000684093
     0.972452703  0.600305653  0.000800361
     0.039124495  0.733640359  0.000818141
     0.572433471  0.600306242  0.000503618
     0.639111888  0.733641879  0.000659881
     0.172454630  0.400318228  0.000361306
     0.239120185  0.533636548  0.000473136
     0.372459750  0.200295993  0.000111246
     0.439107096  0.333673419  0.000069702
     0.172452155  0.600311506  0.000655425
     0.239123371  0.733638574  0.000718912
     0.572431082  0.200289171  0.000516621
     0.639112773  0.333618630  0.000577970
     0.372439808  0.600308022  0.000453556
     0.439116090  0.733637858  0.000617737
     0.572469358  0.400320504  0.000424897
     0.639119408  0.533650873  0.000574513
     0.772445723  0.000315427  0.000745201
     0.839116277  0.133640203  0.000719132
     0.772440513  0.200307432  0.000726291
     0.839120241  0.333635728  0.000731834
     0.772446320  0.400298367  0.000728722
     0.839118980  0.533633964  0.000776376
     0.772456143  0.600308173  0.000744639
     0.839115033  0.733643180  0.000789390
     0.972455313  0.800305582  0.000815291
     0.039114714  0.933643289  0.000747563
     0.172457971  0.800312211  0.000779216
     0.239134551  0.933647193  0.000681063
     0.372451396  0.800316674  0.000689249
     0.439124489  0.933644769  0.000676788
     0.572441101  0.800310054  0.000668168
     0.639115067  0.933638985  0.000734556
     0.772445098  0.800313187  0.000752577
     0.839116614  0.933644338  0.000758538
     0.373021009  0.251226878  0.235968578
     0.420879805  0.189313152  0.239189671
     0.325156981  0.313167186  0.232995835

  ion indices of the primitive-cell ions
   primitive index   ion index
                 1           1
                 2           2
                 3           3
                 4           4
                 5           5
                 6           6
                 7           7
                 8           8
                 9           9
                10          10
                11          11
                12          12
                13          13
                14          14
                15          15
                16          16
                17          17
                18          18
                19          19
                20          20
                21          21
                22          22
                23          23
                24          24
                25          25
                26          26
                27          27
                28          28
                29          29
                30          30
                31          31
                32          32
                33          33
                34          34
                35          35
                36          36
                37          37
                38          38
                39          39
                40          40
                41          41
                42          42
                43          43
                44          44
                45          45
                46          46
                47          47
                48          48
                49          49
                50          50
                51          51
                52          52
                53          53

----------------------------------------------------------------------------------------

 
 
 KPOINTS: auto                                    

Automatic generation of k-mesh.
 Grid dimensions read from file:
 generate k-points for:    1    1    1

 Generating k-lattice:

  Cartesian coordinates                     Fractional coordinates (reciprocal lattice)
     0.081135903  0.046843835  0.000000000     1.000000000 -0.000000000  0.000000000
     0.000000000  0.093687670  0.000000000     0.000000000  1.000000000  0.000000000
     0.000000000  0.000000000  0.050000000     0.000000000  0.000000000  1.000000000

  Length of vectors
     0.093687670  0.093687670  0.050000000

  Shift w.r.t. Gamma in fractional coordinates (k-lattice)
     0.000000000  0.000000000  0.000000000

 
 Subroutine IBZKPT returns following result:
 ===========================================
 
 Found      1 irreducible k-points:
 
 Following reciprocal coordinates:
            Coordinates               Weight
  0.000000  0.000000  0.000000      1.000000
 
 Following cartesian coordinates:
            Coordinates               Weight
  0.000000  0.000000  0.000000      1.000000
 


--------------------------------------------------------------------------------------------------------




 Dimension of arrays:
   k-points           NKPTS =      1   k-points in BZ     NKDIM =      1   number of bands    NBANDS=    140
   number of dos      NEDOS =    301   number of ions     NIONS =     53
   non local maximal  LDIM  =      4   non local SUM 2l+1 LMDIM =      8
   total plane-waves  NPLWV = ******
   max r-space proj   IRMAX =      1   max aug-charges    IRDMAX=   9736
   dimension x,y,z NGX =   128 NGY =  128 NGZ =  210
   dimension x,y,z NGXF=   256 NGYF=  256 NGZF=  420
   support grid    NGXF=   256 NGYF=  256 NGZF=  420
   ions per type =              51   2
   NGX,Y,Z   is equivalent  to a cutoff of  17.27, 17.27, 17.46 a.u.
   NGXF,Y,Z  is equivalent  to a cutoff of  34.53, 34.53, 34.91 a.u.

 SYSTEM =  unknown system                          
 POSCAR =   C  O                                   

 Startparameter for this run:
   NWRITE =      2    write-flag & timer
   PREC   = accura    normal or accurate (medium, high low for compatibility)
   ISTART =      0    job   : 0-new  1-cont  2-samecut
   ICHARG =      2    charge: 1-file 2-atom 10-const
   ISPIN  =      1    spin polarized calculation?
   LNONCOLLINEAR =      F non collinear calculations
   LSORBIT =      F    spin-orbit coupling
   INIWAV =      1    electr: 0-lowe 1-rand  2-diag
   LASPH  =      F    aspherical Exc in radial PAW
 Electronic Relaxation 1
   ENCUT  = 1000.0 eV  73.50 Ry    8.57 a.u.  31.78 31.78 51.57*2*pi/ulx,y,z
   ENINI  = 1000.0     initial cutoff
   ENAUG  =  946.8 eV  augmentation charge cutoff
   NELM   =     60;   NELMIN=  2; NELMDL= -5     # of ELM steps 
   EDIFF  = 0.1E-05   stopping-criterion for ELM
   LREAL  =      F    real-space projection
   NLSPLINE    = F    spline interpolate recip. space projectors
   LCOMPAT=      F    compatible to vasp.4.4
   GGA_COMPAT  = T    GGA compatible to vasp.4.4-vasp.4.6
   LMAXPAW     = -100 max onsite density
   LMAXMIX     =    2 max onsite mixed and CHGCAR
   VOSKOWN=      0    Vosko Wilk Nusair interpolation
   ROPT   =    0.00000   0.00000
 Ionic relaxation
   EDIFFG = 0.1E-04   stopping-criterion for IOM
   NSW    =      0    number of steps for IOM
   NBLOCK =      1;   KBLOCK =      1    inner block; outer block 
   IBRION =     -1    ionic relax: 0-MD 1-quasi-New 2-CG
   NFREE  =      0    steps in history (QN), initial steepest desc. (CG)
   ISIF   =      0    stress and relaxation
   IWAVPR =     10    prediction:  0-non 1-charg 2-wave 3-comb
   ISYM   =      2    0-nonsym 1-usesym 2-fastsym
   LCORR  =      T    Harris-Foulkes like correction to forces

   POTIM  = 0.5000    time-step for ionic-motion
   TEIN   =    0.0    initial temperature
   TEBEG  =    0.0;   TEEND  =   0.0 temperature during run
   SMASS  =  -3.00    Nose mass-parameter (am)
   estimated Nose-frequenzy (Omega)   =  0.10E-29 period in steps = 0.13E+47 mass=  -0.347E-26a.u.
   SCALEE = 1.0000    scale energy and forces
   NPACO  =    256;   APACO  = 16.0  distance and # of slots for P.C.
   PSTRESS=    0.0 pullay stress

  Mass of Ions in am
   POMASS =  12.01 16.00
  Ionic Valenz
   ZVAL   =   4.00  6.00
  Atomic Wigner-Seitz radii
   RWIGS  =  -1.00 -1.00
  virtual crystal weights 
   VCA    =   1.00  1.00
   NELECT =     216.0000    total number of electrons
   NUPDOWN=      -1.0000    fix difference up-down

 DOS related values:
   EMIN   =  10.00;   EMAX   =-10.00  energy-range for DOS
   EFERMI =   0.00
   ISMEAR =     0;   SIGMA  =   0.01  broadening in eV -4-tet -1-fermi 0-gaus

 Electronic relaxation 2 (details)
   IALGO  =     58    algorithm
   LDIAG  =      T    sub-space diagonalisation (order eigenvalues)
   LSUBROT=      F    optimize rotation matrix (better conditioning)
   TURBO    =      0    0=normal 1=particle mesh
   IRESTART =      0    0=no restart 2=restart with 2 vectors
   NREBOOT  =      0    no. of reboots
   NMIN     =      0    reboot dimension
   EREF     =   0.00    reference energy to select bands
   IMIX   =      4    mixing-type and parameters
     AMIX     =   0.40;   BMIX     =  1.00
     AMIX_MAG =   1.60;   BMIX_MAG =  1.00
     AMIN     =   0.10
     WC   =   100.;   INIMIX=   1;  MIXPRE=   1;  MAXMIX= -45

 Intra band minimization:
   WEIMIN = 0.0000     energy-eigenvalue tresh-hold
   EBREAK =  0.18E-08  absolut break condition
   DEPER  =   0.30     relativ break condition  

   TIME   =   0.40     timestep for ELM

  volume/ion in A,a.u.               =      49.64       335.01
  Fermi-wavevector in a.u.,A,eV,Ry     =   0.711510  1.344560  6.887909  0.506247
  Thomas-Fermi vector in A             =   1.798641
 
 Write flags
   LWAVE        =      F    write WAVECAR
   LDOWNSAMPLE  =      F    k-point downsampling of WAVECAR
   LCHARG       =      T    write CHGCAR
   LVTOT        =      F    write LOCPOT, total local potential
   LVHAR        =      F    write LOCPOT, Hartree potential only
   LELF         =      F    write electronic localiz. function (ELF)
   LORBIT       =      0    0 simple, 1 ext, 2 COOP (PROOUT), +10 PAW based schemes


 Dipole corrections
   LMONO  =      F    monopole corrections only (constant potential shift)
   LDIPOL =      F    correct potential (dipole corrections)
   IDIPOL =      0    1-x, 2-y, 3-z, 4-all directions 
   EPSILON=  1.0000000 bulk dielectric constant

 Exchange correlation treatment:
   GGA     =    --    GGA type
   LEXCH   =     8    internal setting for exchange type
   VOSKOWN=      0    Vosko Wilk Nusair interpolation
   LHFCALC =     F    Hartree Fock is set to
   LHFONE  =     F    Hartree Fock one center treatment
   AEXX    =    0.0000 exact exchange contribution

 Linear response parameters
   LEPSILON=     F    determine dielectric tensor
   LRPA    =     F    only Hartree local field effects (RPA)
   LNABLA  =     F    use nabla operator in PAW spheres
   LVEL    =     F    velocity operator in full k-point grid
   LINTERFAST=   F  fast interpolation
   KINTER  =     0    interpolate to denser k-point grid
   CSHIFT  =0.1000    complex shift for real part using Kramers Kronig
   OMEGAMAX=  -1.0    maximum frequency
   DEG_THRESHOLD= 0.2000000E-02 threshold for treating states as degnerate
   RTIME   =   -0.100 relaxation time in fs
  (WPLASMAI=    0.000 imaginary part of plasma frequency in eV, 0.658/RTIME)
   DFIELD  = 0.0000000 0.0000000 0.0000000 field for delta impulse in time
 
 Orbital magnetization related:
   ORBITALMAG=     F  switch on orbital magnetization
   LCHIMAG   =     F  perturbation theory with respect to B field
   DQ        =  0.001000  dq finite difference perturbation B field
   LLRAUG    =     F  two centre corrections for induced B field



--------------------------------------------------------------------------------------------------------


 Static calculation
 charge density and potential will be updated during run
 non-spin polarized calculation
 Conjugate gradient for all bands (Freysoldt, et al. PRB 79, 241103 (2009))
 preconditioned conjugated gradient                                        
 perform sub-space diagonalisation
    before iterative eigenvector-optimisation
 modified Broyden-mixing scheme, WC =      100.0
 initial mixing is a Kerker type mixing with AMIX =  0.4000 and BMIX =      1.0000
 Hartree-type preconditioning will be used
 using additional bands           32
 reciprocal scheme for non local part
 use partial core corrections
 no Harris-corrections to forces 
 use gradient corrections 
 use of overlap-Matrix (Vanderbilt PP)
 Gauss-broadening in eV      SIGMA  =   0.01


--------------------------------------------------------------------------------------------------------


  energy-cutoff  :     1000.00
  volume of cell :     2631.08
      direct lattice vectors                 reciprocal lattice vectors
    12.325000000  0.000000000  0.000000000     0.081135903  0.046843835  0.000000000
    -6.162500000 10.673763102  0.000000000     0.000000000  0.093687670  0.000000000
     0.000000000  0.000000000 20.000000000     0.000000000  0.000000000  0.050000000

  length of vectors
    12.325000000 12.325000000 20.000000000     0.093687670  0.093687670  0.050000000


 
 k-points in units of 2pi/SCALE and weight: auto                                    
   0.00000000  0.00000000  0.00000000       1.000
 
 k-points in reciprocal lattice and weights: auto                                    
   0.00000000  0.00000000  0.00000000       1.000
 
 position of ions in fractional coordinates (direct lattice) 
   0.97245084  0.00032082  0.00070839
   0.03911838  0.13365950  0.00055022
   0.17244363  0.00029545  0.00062454
   0.23909628  0.13364792  0.00032058
   0.97245206  0.20032201  0.00060652
   0.03912836  0.33364377  0.00055519
   0.17245176  0.20035455  0.00027396
   0.23912436  0.33366572  0.00009033
   0.37246557  0.00032440  0.00056739
   0.43913747  0.13361994  0.00032292
   0.97244982  0.40030936  0.00068451
   0.03912498  0.53363679  0.00071676
   0.37241618  0.40032948  0.00000000
   0.43909960  0.53363898  0.00029052
   0.57244368  0.00031213  0.00069947
   0.63911021  0.13363175  0.00068409
   0.97245270  0.60030565  0.00080036
   0.03912449  0.73364036  0.00081814
   0.57243347  0.60030624  0.00050362
   0.63911189  0.73364188  0.00065988
   0.17245463  0.40031823  0.00036131
   0.23912018  0.53363655  0.00047314
   0.37245975  0.20029599  0.00011125
   0.43910710  0.33367342  0.00006970
   0.17245216  0.60031151  0.00065542
   0.23912337  0.73363857  0.00071891
   0.57243108  0.20028917  0.00051662
   0.63911277  0.33361863  0.00057797
   0.37243981  0.60030802  0.00045356
   0.43911609  0.73363786  0.00061774
   0.57246936  0.40032050  0.00042490
   0.63911941  0.53365087  0.00057451
   0.77244572  0.00031543  0.00074520
   0.83911628  0.13364020  0.00071913
   0.77244051  0.20030743  0.00072629
   0.83912024  0.33363573  0.00073183
   0.77244632  0.40029837  0.00072872
   0.83911898  0.53363396  0.00077638
   0.77245614  0.60030817  0.00074464
   0.83911503  0.73364318  0.00078939
   0.97245531  0.80030558  0.00081529
   0.03911471  0.93364329  0.00074756
   0.17245797  0.80031221  0.00077922
   0.23913455  0.93364719  0.00068106
   0.37245140  0.80031667  0.00068925
   0.43912449  0.93364477  0.00067679
   0.57244110  0.80031005  0.00066817
   0.63911507  0.93363899  0.00073456
   0.77244510  0.80031319  0.00075258
   0.83911661  0.93364434  0.00075854
   0.37302101  0.25122688  0.23596858
   0.42087980  0.18931315  0.23918967
   0.32515698  0.31316719  0.23299583
 
 position of ions in cartesian coordinates  (Angst):
  11.98347958  0.00342433  0.01416777
  -0.34154264  1.42664989  0.01100432
   2.12354700  0.00315355  0.01249070
   2.12325634  1.42652621  0.00641170
  10.75098721  2.13818970  0.01213047
  -1.57382270  3.56123457  0.01110375
   0.89078307  2.13853702  0.00547917
   0.89099273  3.56146885  0.00180651
   4.58863896  0.00346260  0.01134782
   4.58893648  1.42622757  0.00645846
   9.51853763  4.27280730  0.01369027
  -2.80632132  5.69591267  0.01433526
   2.12299894  4.27302204  0.00000000
   2.12335237  5.69593607  0.00581036
   7.05344483  0.00333155  0.01398950
   7.05352764  1.42635365  0.01368187
   8.28609598  6.40752033  0.01600723
  -4.03884931  7.83070339  0.01636283
   3.35585531  6.40752662  0.01007237
   3.35598594  7.83071962  0.01319763
  -0.34145776  4.27290193  0.00722612
  -0.34137895  5.69591010  0.00946273
   3.35624236  2.13791198  0.00222492
   3.35573251  3.56155103  0.00139405
  -1.57394684  6.40758280  0.01310850
  -1.57385216  7.83068434  0.01437823
   5.82093107  2.13783916  0.01033241
   5.82114012  3.56096622  0.01155939
   0.89092245  6.40754561  0.00907111
   0.89106251  7.83067670  0.01235474
   4.58870974  4.27292622  0.00849795
   4.58852320  5.69606300  0.01149026
   9.51844972  0.00336679  0.01490402
   9.51855036  1.42644387  0.01438264
   8.28593477  2.13803408  0.01452582
   8.28612680  3.56114872  0.01463668
   7.05356221  4.27268994  0.01457444
   7.05362213  5.69588251  0.01552751
   5.82112285  6.40754723  0.01489279
   5.82101669  7.83073350  0.01578780
   7.05362858  8.54227219  0.01630582
  -5.27148792  9.96548729  0.01495127
  -2.80637951  8.54234295  0.01558431
  -2.80626749  9.96552896  0.01362126
  -0.34148805  8.54239058  0.01378498
  -0.34137657  9.96550309  0.01353576
   2.12342586  8.54231992  0.01336337
   2.12354296  9.96544135  0.01469111
   4.58845581  8.54235337  0.01505154
   4.58852904  9.96549848  0.01517076
   3.04929830  2.68153618  4.71937156
   4.02070129  2.02068374  4.78379342
   2.07766701  3.34267235  4.65991669
 


--------------------------------------------------------------------------------------------------------


 k-point   1 :   0.0000 0.0000 0.0000  plane waves:  189031

 maximum and minimum number of plane-waves per node :     47262    47254

 maximum number of plane-waves:    189031
 maximum index in each direction: 
   IXMAX=   31   IYMAX=   31   IZMAX=   51
   IXMIN=  -31   IYMIN=  -31   IZMIN=  -51


 parallel 3D FFT for wavefunctions:
    minimum data exchange during FFTs selected (reduces bandwidth)
 parallel 3D FFT for charge:
    minimum data exchange during FFTs selected (reduces bandwidth)


 total amount of memory used by VASP MPI-rank0   175916. kBytes
=======================================================================

   base      :      30000. kBytes
   nonl-proj :      46129. kBytes
   fftplans  :      35778. kBytes
   grid      :      52596. kBytes
   one-center:         43. kBytes
   wavefun   :      11370. kBytes
 
     INWAV:  cpu time    0.0000: real time    0.0002
 Broyden mixing: mesh for mixing (old mesh)
   NGX = 63   NGY = 63   NGZ =103
  (NGX  =256   NGY  =256   NGZ  =420)
  gives a total of 408807 points

 initial charge density was supplied:
 charge density of overlapping atoms calculated
 number of electron     216.0000000 magnetization 
 keeping initial charge density in first step


--------------------------------------------------------------------------------------------------------


 Maximum index for augmentation-charges          459 (set IRDMAX)


--------------------------------------------------------------------------------------------------------


 First call to EWALD:  gamma=   0.128
 Maximum number of real-space cells 3x 3x 2
 Maximum number of reciprocal cells 3x 3x 4

    FEWALD:  cpu time    0.0021: real time    0.0021


--------------------------------------- Iteration      1(   1)  ---------------------------------------


    POTLOK:  cpu time    0.3010: real time    0.3045
    SETDIJ:  cpu time    0.0051: real time    0.0054
    TRIAL :  cpu time    4.1690: real time    4.2303
    CORREC:  cpu time    0.0007: real time    0.0009
    --------------------------------------------
      LOOP:  cpu time    4.4788: real time    4.5643

 eigenvalue-minimisations  :   280
 total energy-change (2. order) : 0.2670218E+04  (-0.1114204E+05)
 number of electron     216.0000000 magnetization 
 augmentation part      216.0000000 magnetization 

 Free energy of the ion-electron system (eV)
  ---------------------------------------------------
  alpha Z        PSCENC =        59.93625244
  Ewald energy   TEWEN  =     32288.69155692
  -Hartree energ DENC   =    -38464.12185050
  -exchange      EXHF   =         0.00000000
  -V(xc)+E(xc)   XCENC  =       420.80416398
  PAW double counting   =      6525.96553977    -6260.36035765
  entropy T*S    EENTRO =        -0.00000000
  eigenvalues    EBANDS =      -270.22104176
  atomic energy  EATOM  =      8369.52358910
  ---------------------------------------------------
  free energy    TOTEN  =      2670.21785230 eV

  energy without entropy =     2670.21785230  energy(sigma->0) =     2670.21785230


--------------------------------------------------------------------------------------------------------




--------------------------------------- Iteration      1(   2)  ---------------------------------------


    TRIAL :  cpu time    6.6729: real time    6.7385
    CORREC:  cpu time    0.0001: real time    0.0001
    --------------------------------------------
      LOOP:  cpu time    6.7104: real time    6.7788

 eigenvalue-minimisations  :   504
 total energy-change (2. order) :-0.2487407E+04  (-0.2358695E+04)
 number of electron     216.0000000 magnetization 
 augmentation part      216.0000000 magnetization 

 Free energy of the ion-electron system (eV)
  ---------------------------------------------------
  alpha Z        PSCENC =        59.93625244
  Ewald energy   TEWEN  =     32288.69155692
  -Hartree energ DENC   =    -38464.12185050
  -exchange      EXHF   =         0.00000000
  -V(xc)+E(xc)   XCENC  =       420.80416398
  PAW double counting   =      6525.96553977    -6260.36035765
  entropy T*S    EENTRO =        -0.00000000
  eigenvalues    EBANDS =     -2757.62803031
  atomic energy  EATOM  =      8369.52358910
  ---------------------------------------------------
  free energy    TOTEN  =       182.81086375 eV

  energy without entropy =      182.81086375  energy(sigma->0) =      182.81086375


--------------------------------------------------------------------------------------------------------




--------------------------------------- Iteration      1(   3)  ---------------------------------------


    TRIAL :  cpu time    5.0954: real time    5.1453
    CORREC:  cpu time    0.0001: real time    0.0001
    --------------------------------------------
      LOOP:  cpu time    5.2387: real time    5.2983

 eigenvalue-minimisations  :   364
 total energy-change (2. order) :-0.6662542E+03  (-0.6631862E+03)
 number of electron     216.0000000 magnetization 
 augmentation part      216.0000000 magnetization 

 Free energy of the ion-electron system (eV)
  ---------------------------------------------------
  alpha Z        PSCENC =        59.93625244
  Ewald energy   TEWEN  =     32288.69155692
  -Hartree energ DENC   =    -38464.12185050
  -exchange      EXHF   =         0.00000000
  -V(xc)+E(xc)   XCENC  =       420.80416398
  PAW double counting   =      6525.96553977    -6260.36035765
  entropy T*S    EENTRO =        -0.00000000
  eigenvalues    EBANDS =     -3423.88225006
  atomic energy  EATOM  =      8369.52358910
  ---------------------------------------------------
  free energy    TOTEN  =      -483.44335600 eV

  energy without entropy =     -483.44335600  energy(sigma->0) =     -483.44335600


--------------------------------------------------------------------------------------------------------




--------------------------------------- Iteration      1(   4)  ---------------------------------------


    TRIAL :  cpu time    5.4134: real time    5.4665
    CORREC:  cpu time    0.0001: real time    0.0001
    --------------------------------------------
      LOOP:  cpu time    5.4775: real time    5.5321

 eigenvalue-minimisations  :   392
 total energy-change (2. order) :-0.3386101E+02  (-0.3370858E+02)
 number of electron     216.0000000 magnetization 
 augmentation part      216.0000000 magnetization 

 Free energy of the ion-electron system (eV)
  ---------------------------------------------------
  alpha Z        PSCENC =        59.93625244
  Ewald energy   TEWEN  =     32288.69155692
  -Hartree energ DENC   =    -38464.12185050
  -exchange      EXHF   =         0.00000000
  -V(xc)+E(xc)   XCENC  =       420.80416398
  PAW double counting   =      6525.96553977    -6260.36035765
  entropy T*S    EENTRO =        -0.00000000
  eigenvalues    EBANDS =     -3457.74325532
  atomic energy  EATOM  =      8369.52358910
  ---------------------------------------------------
  free energy    TOTEN  =      -517.30436125 eV

  energy without entropy =     -517.30436125  energy(sigma->0) =     -517.30436125


--------------------------------------------------------------------------------------------------------




--------------------------------------- Iteration      1(   5)  ---------------------------------------


    TRIAL :  cpu time    5.7155: real time    5.7715
    CORREC:  cpu time    0.0001: real time    0.0001
    CHARGE:  cpu time    0.2341: real time    0.2381
    --------------------------------------------
      LOOP:  cpu time    6.0430: real time    6.1171

 eigenvalue-minimisations  :   420
 total energy-change (2. order) :-0.7434860E+00  (-0.7418250E+00)
 number of electron     216.0000000 magnetization 
 augmentation part       -0.2631296 magnetization 

 Free energy of the ion-electron system (eV)
  ---------------------------------------------------
  alpha Z        PSCENC =        59.93625244
  Ewald energy   TEWEN  =     32288.69155692
  -Hartree energ DENC   =    -38464.12185050
  -exchange      EXHF   =         0.00000000
  -V(xc)+E(xc)   XCENC  =       420.80416398
  PAW double counting   =      6525.96553977    -6260.36035765
  entropy T*S    EENTRO =        -0.00000000
  eigenvalues    EBANDS =     -3458.48674135
  atomic energy  EATOM  =      8369.52358910
  ---------------------------------------------------
  free energy    TOTEN  =      -518.04784728 eV

  energy without entropy =     -518.04784728  energy(sigma->0) =     -518.04784728


--------------------------------------------------------------------------------------------------------




--------------------------------------- Iteration      1(   6)  ---------------------------------------


    POTLOK:  cpu time    0.2788: real time    0.2813
    SETDIJ:  cpu time    0.0029: real time    0.0029
    TRIAL :  cpu time    2.0170: real time    2.0378
    CORREC:  cpu time    0.8113: real time    0.8196
    CHARGE:  cpu time    0.2349: real time    0.2368
    --------------------------------------------
      LOOP:  cpu time    3.3954: real time    3.4299

 eigenvalue-minimisations  :     0
 total energy-change (2. order) : 0.5135636E+02  (-0.1550754E+02)
 number of electron     216.0000000 magnetization 
 augmentation part       -0.3639625 magnetization 

 Free energy of the ion-electron system (eV)
  ---------------------------------------------------
  alpha Z        PSCENC =        59.93625244
  Ewald energy   TEWEN  =     32288.69155692
  -Hartree energ DENC   =    -39873.64919471
  -exchange      EXHF   =         0.00000000
  -V(xc)+E(xc)   XCENC  =       469.01122393
  PAW double counting   =     89491.27893512   -89233.96120911
  entropy T*S    EENTRO =        -0.00000000
  eigenvalues    EBANDS =     -2037.52263885
  atomic energy  EATOM  =      8369.52358910
  ---------------------------------------------------
  free energy    TOTEN  =      -466.69148517 eV

  energy without entropy =     -466.69148517  energy(sigma->0) =     -466.69148517


--------------------------------------------------------------------------------------------------------




--------------------------------------- Iteration      1(   7)  ---------------------------------------


    POTLOK:  cpu time    0.2782: real time    0.2808
    SETDIJ:  cpu time    0.0029: real time    0.0029
    TRIAL :  cpu time    2.0098: real time    2.0304
    CORREC:  cpu time    0.8187: real time    0.8264
    CHARGE:  cpu time    0.2349: real time    0.2369
    --------------------------------------------
      LOOP:  cpu time    3.3879: real time    3.4219

 eigenvalue-minimisations  :     0
 total energy-change (2. order) :-0.1554980E+02  (-0.1815887E+01)
 number of electron     216.0000000 magnetization 
 augmentation part       -0.4118087 magnetization 

 Free energy of the ion-electron system (eV)
  ---------------------------------------------------
  alpha Z        PSCENC =        59.93625244
  Ewald energy   TEWEN  =     32288.69155692
  -Hartree energ DENC   =    -39373.50130163
  -exchange      EXHF   =         0.00000000
  -V(xc)+E(xc)   XCENC  =       451.93001172
  PAW double counting   =    105687.17231211  -105427.02451348
  entropy T*S    EENTRO =        -0.00000000
  eigenvalues    EBANDS =     -2538.96919392
  atomic energy  EATOM  =      8369.52358910
  ---------------------------------------------------
  free energy    TOTEN  =      -482.24128674 eV

  energy without entropy =     -482.24128674  energy(sigma->0) =     -482.24128674


--------------------------------------------------------------------------------------------------------




--------------------------------------- Iteration      1(   8)  ---------------------------------------


    POTLOK:  cpu time    0.2787: real time    0.2808
    SETDIJ:  cpu time    0.0031: real time    0.0031
    TRIAL :  cpu time    2.0161: real time    2.0420
    CORREC:  cpu time    0.8103: real time    0.8177
    CHARGE:  cpu time    0.2340: real time    0.2359
    --------------------------------------------
      LOOP:  cpu time    3.4164: real time    3.4568

 eigenvalue-minimisations  :     0
 total energy-change (2. order) :-0.1814567E+01  (-0.4706281E+00)
 number of electron     216.0000000 magnetization 
 augmentation part       -0.4291635 magnetization 

 Free energy of the ion-electron system (eV)
  ---------------------------------------------------
  alpha Z        PSCENC =        59.93625244
  Ewald energy   TEWEN  =     32288.69155692
  -Hartree energ DENC   =    -39345.66061666
  -exchange      EXHF   =         0.00000000
  -V(xc)+E(xc)   XCENC  =       451.35033935
  PAW double counting   =    110106.25030931  -109845.68947387
  entropy T*S    EENTRO =        -0.00000000
  eigenvalues    EBANDS =     -2568.45781025
  atomic energy  EATOM  =      8369.52358910
  ---------------------------------------------------
  free energy    TOTEN  =      -484.05585367 eV

  energy without entropy =     -484.05585367  energy(sigma->0) =     -484.05585367


--------------------------------------------------------------------------------------------------------




--------------------------------------- Iteration      1(   9)  ---------------------------------------


    POTLOK:  cpu time    0.2825: real time    0.2847
    SETDIJ:  cpu time    0.0031: real time    0.0031
    TRIAL :  cpu time    2.0106: real time    2.0303
    CORREC:  cpu time    0.8101: real time    0.8175
    CHARGE:  cpu time    0.2350: real time    0.2369
    --------------------------------------------
      LOOP:  cpu time    3.3926: real time    3.4259

 eigenvalue-minimisations  :     0
 total energy-change (2. order) :-0.4704736E+00  (-0.1501873E+00)
 number of electron     216.0000000 magnetization 
 augmentation part       -0.4368939 magnetization 

 Free energy of the ion-electron system (eV)
  ---------------------------------------------------
  alpha Z        PSCENC =        59.93625244
  Ewald energy   TEWEN  =     32288.69155692
  -Hartree energ DENC   =    -39362.09209659
  -exchange      EXHF   =         0.00000000
  -V(xc)+E(xc)   XCENC  =       451.56313296
  PAW double counting   =    112931.84199436  -112671.12938452
  entropy T*S    EENTRO =        -0.00000000
  eigenvalues    EBANDS =     -2552.86137192
  atomic energy  EATOM  =      8369.52358910
  ---------------------------------------------------
  free energy    TOTEN  =      -484.52632725 eV

  energy without entropy =     -484.52632725  energy(sigma->0) =     -484.52632725


--------------------------------------------------------------------------------------------------------




--------------------------------------- Iteration      1(  10)  ---------------------------------------


    POTLOK:  cpu time    0.2772: real time    0.2791
    SETDIJ:  cpu time    0.0029: real time    0.0029
    TRIAL :  cpu time    2.0089: real time    2.0287
    CORREC:  cpu time    0.8084: real time    0.8157
    CHARGE:  cpu time    0.2349: real time    0.2367
    --------------------------------------------
      LOOP:  cpu time    3.3800: real time    3.4710

 eigenvalue-minimisations  :     0
 total energy-change (2. order) :-0.1499678E+00  (-0.6096955E-01)
 number of electron     216.0000000 magnetization 
 augmentation part       -0.4377978 magnetization 

 Free energy of the ion-electron system (eV)
  ---------------------------------------------------
  alpha Z        PSCENC =        59.93625244
  Ewald energy   TEWEN  =     32288.69155692
  -Hartree energ DENC   =    -39363.10254303
  -exchange      EXHF   =         0.00000000
  -V(xc)+E(xc)   XCENC  =       451.48712825
  PAW double counting   =    113417.48158309  -113156.68479021
  entropy T*S    EENTRO =        -0.00000000
  eigenvalues    EBANDS =     -2552.00907159
  atomic energy  EATOM  =      8369.52358910
  ---------------------------------------------------
  free energy    TOTEN  =      -484.67629504 eV

  energy without entropy =     -484.67629504  energy(sigma->0) =     -484.67629504


--------------------------------------------------------------------------------------------------------




--------------------------------------- Iteration      1(  11)  ---------------------------------------


    POTLOK:  cpu time    0.2766: real time    0.2786
    SETDIJ:  cpu time    0.0030: real time    0.0030
    TRIAL :  cpu time    2.0120: real time    2.0322
    CORREC:  cpu time    0.8079: real time    0.8152
    CHARGE:  cpu time    0.2347: real time    0.2366
    --------------------------------------------
      LOOP:  cpu time    3.4429: real time    3.4764

 eigenvalue-minimisations  :     0
 total energy-change (2. order) :-0.6082204E-01  (-0.2523589E-01)
 number of electron     216.0000000 magnetization 
 augmentation part       -0.4375177 magnetization 

 Free energy of the ion-electron system (eV)
  ---------------------------------------------------
  alpha Z        PSCENC =        59.93625244
  Ewald energy   TEWEN  =     32288.69155692
  -Hartree energ DENC   =    -39359.20479115
  -exchange      EXHF   =         0.00000000
  -V(xc)+E(xc)   XCENC  =       451.42922566
  PAW double counting   =    112949.68049081  -112688.88280014
  entropy T*S    EENTRO =        -0.00000000
  eigenvalues    EBANDS =     -2555.91064072
  atomic energy  EATOM  =      8369.52358910
  ---------------------------------------------------
  free energy    TOTEN  =      -484.73711708 eV

  energy without entropy =     -484.73711708  energy(sigma->0) =     -484.73711708


--------------------------------------------------------------------------------------------------------




--------------------------------------- Iteration      1(  12)  ---------------------------------------


    POTLOK:  cpu time    0.2784: real time    0.2805
    SETDIJ:  cpu time    0.0031: real time    0.0032
    TRIAL :  cpu time    2.0089: real time    2.0286
    CORREC:  cpu time    0.8052: real time    0.8126
    CHARGE:  cpu time    0.2350: real time    0.2369
    --------------------------------------------
      LOOP:  cpu time    3.3777: real time    3.4333

 eigenvalue-minimisations  :     0
 total energy-change (2. order) :-0.2514704E-01  (-0.8772992E-02)
 number of electron     216.0000000 magnetization 
 augmentation part       -0.4376593 magnetization 

 Free energy of the ion-electron system (eV)
  ---------------------------------------------------
  alpha Z        PSCENC =        59.93625244
  Ewald energy   TEWEN  =     32288.69155692
  -Hartree energ DENC   =    -39357.35886660
  -exchange      EXHF   =         0.00000000
  -V(xc)+E(xc)   XCENC  =       451.39157597
  PAW double counting   =    112570.66710934  -112309.89120472
  entropy T*S    EENTRO =        -0.00000000
  eigenvalues    EBANDS =     -2557.72227658
  atomic energy  EATOM  =      8369.52358910
  ---------------------------------------------------
  free energy    TOTEN  =      -484.76226412 eV

  energy without entropy =     -484.76226412  energy(sigma->0) =     -484.76226412


--------------------------------------------------------------------------------------------------------




--------------------------------------- Iteration      1(  13)  ---------------------------------------


    POTLOK:  cpu time    0.2789: real time    0.2809
    SETDIJ:  cpu time    0.0031: real time    0.0031
    TRIAL :  cpu time    2.0080: real time    2.0279
    CORREC:  cpu time    0.8063: real time    0.8136
    CHARGE:  cpu time    0.2344: real time    0.2362
    --------------------------------------------
      LOOP:  cpu time    3.3875: real time    3.4219

 eigenvalue-minimisations  :     0
 total energy-change (2. order) :-0.8757435E-02  (-0.2604211E-02)
 number of electron     216.0000000 magnetization 
 augmentation part       -0.4372895 magnetization 

 Free energy of the ion-electron system (eV)
  ---------------------------------------------------
  alpha Z        PSCENC =        59.93625244
  Ewald energy   TEWEN  =     32288.69155692
  -Hartree energ DENC   =    -39357.28365334
  -exchange      EXHF   =         0.00000000
  -V(xc)+E(xc)   XCENC  =       451.37974059
  PAW double counting   =    112455.70937981  -112194.94381028
  entropy T*S    EENTRO =        -0.00000000
  eigenvalues    EBANDS =     -2557.78407678
  atomic energy  EATOM  =      8369.52358910
  ---------------------------------------------------
  free energy    TOTEN  =      -484.77102155 eV

  energy without entropy =     -484.77102155  energy(sigma->0) =     -484.77102155


--------------------------------------------------------------------------------------------------------




--------------------------------------- Iteration      1(  14)  ---------------------------------------


    POTLOK:  cpu time    0.2754: real time    0.2773
    SETDIJ:  cpu time    0.0028: real time    0.0028
    TRIAL :  cpu time    2.0109: real time    2.0310
    CORREC:  cpu time    0.8040: real time    0.8114
    CHARGE:  cpu time    0.2352: real time    0.2370
    --------------------------------------------
      LOOP:  cpu time    3.3844: real time    3.4298

 eigenvalue-minimisations  :     0
 total energy-change (2. order) :-0.2605010E-02  (-0.7798229E-03)
 number of electron     216.0000000 magnetization 
 augmentation part       -0.4370609 magnetization 

 Free energy of the ion-electron system (eV)
  ---------------------------------------------------
  alpha Z        PSCENC =        59.93625244
  Ewald energy   TEWEN  =     32288.69155692
  -Hartree energ DENC   =    -39357.29742449
  -exchange      EXHF   =         0.00000000
  -V(xc)+E(xc)   XCENC  =       451.37859757
  PAW double counting   =    112489.78646757  -112229.02366698
  entropy T*S    EENTRO =        -0.00000000
  eigenvalues    EBANDS =     -2557.76899871
  atomic energy  EATOM  =      8369.52358910
  ---------------------------------------------------
  free energy    TOTEN  =      -484.77362656 eV

  energy without entropy =     -484.77362656  energy(sigma->0) =     -484.77362656


--------------------------------------------------------------------------------------------------------




--------------------------------------- Iteration      1(  15)  ---------------------------------------


    POTLOK:  cpu time    0.2752: real time    0.2771
    SETDIJ:  cpu time    0.0030: real time    0.0030
    TRIAL :  cpu time    2.0049: real time    2.0269
    CORREC:  cpu time    0.8067: real time    0.8137
    CHARGE:  cpu time    0.2357: real time    0.2376
    --------------------------------------------
      LOOP:  cpu time    3.4300: real time    3.4635

 eigenvalue-minimisations  :     0
 total energy-change (2. order) :-0.7816187E-03  (-0.2929619E-03)
 number of electron     216.0000000 magnetization 
 augmentation part       -0.4367331 magnetization 

 Free energy of the ion-electron system (eV)
  ---------------------------------------------------
  alpha Z        PSCENC =        59.93625244
  Ewald energy   TEWEN  =     32288.69155692
  -Hartree energ DENC   =    -39356.94946885
  -exchange      EXHF   =         0.00000000
  -V(xc)+E(xc)   XCENC  =       451.36306201
  PAW double counting   =    112520.22041456  -112259.45556608
  entropy T*S    EENTRO =        -0.00000000
  eigenvalues    EBANDS =     -2558.10424828
  atomic energy  EATOM  =      8369.52358910
  ---------------------------------------------------
  free energy    TOTEN  =      -484.77440818 eV

  energy without entropy =     -484.77440818  energy(sigma->0) =     -484.77440818


--------------------------------------------------------------------------------------------------------




--------------------------------------- Iteration      1(  16)  ---------------------------------------


    POTLOK:  cpu time    0.2757: real time    0.2777
    SETDIJ:  cpu time    0.0029: real time    0.0029
    TRIAL :  cpu time    2.0123: real time    2.0330
    CORREC:  cpu time    0.8056: real time    0.8127
    CHARGE:  cpu time    0.2348: real time    0.2366
    --------------------------------------------
      LOOP:  cpu time    3.3814: real time    3.4449

 eigenvalue-minimisations  :     0
 total energy-change (2. order) :-0.2941655E-03  (-0.1133271E-03)
 number of electron     216.0000000 magnetization 
 augmentation part       -0.4365665 magnetization 

 Free energy of the ion-electron system (eV)
  ---------------------------------------------------
  alpha Z        PSCENC =        59.93625244
  Ewald energy   TEWEN  =     32288.69155692
  -Hartree energ DENC   =    -39357.07350014
  -exchange      EXHF   =         0.00000000
  -V(xc)+E(xc)   XCENC  =       451.36845441
  PAW double counting   =    112496.90861571  -112236.14460601
  entropy T*S    EENTRO =        -0.00000000
  eigenvalues    EBANDS =     -2557.98506478
  atomic energy  EATOM  =      8369.52358910
  ---------------------------------------------------
  free energy    TOTEN  =      -484.77470235 eV

  energy without entropy =     -484.77470235  energy(sigma->0) =     -484.77470235


--------------------------------------------------------------------------------------------------------




--------------------------------------- Iteration      1(  17)  ---------------------------------------


    POTLOK:  cpu time    0.2757: real time    0.2775
    SETDIJ:  cpu time    0.0028: real time    0.0028
    TRIAL :  cpu time    2.0093: real time    2.0295
    CORREC:  cpu time    0.8108: real time    0.8180
    CHARGE:  cpu time    0.2342: real time    0.2360
    --------------------------------------------
      LOOP:  cpu time    3.3823: real time    3.4146

 eigenvalue-minimisations  :     0
 total energy-change (2. order) :-0.1140407E-03  (-0.4454299E-04)
 number of electron     216.0000000 magnetization 
 augmentation part       -0.4365685 magnetization 

 Free energy of the ion-electron system (eV)
  ---------------------------------------------------
  alpha Z        PSCENC =        59.93625244
  Ewald energy   TEWEN  =     32288.69155692
  -Hartree energ DENC   =    -39357.17459554
  -exchange      EXHF   =         0.00000000
  -V(xc)+E(xc)   XCENC  =       451.37147269
  PAW double counting   =    112463.16318268  -112202.39942717
  entropy T*S    EENTRO =        -0.00000000
  eigenvalues    EBANDS =     -2557.88684752
  atomic energy  EATOM  =      8369.52358910
  ---------------------------------------------------
  free energy    TOTEN  =      -484.77481639 eV

  energy without entropy =     -484.77481639  energy(sigma->0) =     -484.77481639


--------------------------------------------------------------------------------------------------------




--------------------------------------- Iteration      1(  18)  ---------------------------------------


    POTLOK:  cpu time    0.2732: real time    0.2752
    SETDIJ:  cpu time    0.0030: real time    0.0031
    TRIAL :  cpu time    2.0079: real time    2.0277
    CORREC:  cpu time    0.8023: real time    0.8096
    CHARGE:  cpu time    0.2348: real time    0.2368
    --------------------------------------------
      LOOP:  cpu time    3.4010: real time    3.4416

 eigenvalue-minimisations  :     0
 total energy-change (2. order) :-0.4469136E-04  (-0.1601380E-04)
 number of electron     216.0000000 magnetization 
 augmentation part       -0.4366358 magnetization 

 Free energy of the ion-electron system (eV)
  ---------------------------------------------------
  alpha Z        PSCENC =        59.93625244
  Ewald energy   TEWEN  =     32288.69155692
  -Hartree energ DENC   =    -39357.18213557
  -exchange      EXHF   =         0.00000000
  -V(xc)+E(xc)   XCENC  =       451.37142354
  PAW double counting   =    112451.88490926  -112191.12077936
  entropy T*S    EENTRO =        -0.00000000
  eigenvalues    EBANDS =     -2557.87967741
  atomic energy  EATOM  =      8369.52358910
  ---------------------------------------------------
  free energy    TOTEN  =      -484.77486108 eV

  energy without entropy =     -484.77486108  energy(sigma->0) =     -484.77486108


--------------------------------------------------------------------------------------------------------




--------------------------------------- Iteration      1(  19)  ---------------------------------------


    POTLOK:  cpu time    0.2732: real time    0.2751
    SETDIJ:  cpu time    0.0030: real time    0.0030
    TRIAL :  cpu time    2.0092: real time    2.0288
    CORREC:  cpu time    0.8124: real time    0.8197
    CHARGE:  cpu time    0.2345: real time    0.2363
    --------------------------------------------
      LOOP:  cpu time    3.4650: real time    3.4978

 eigenvalue-minimisations  :     0
 total energy-change (2. order) :-0.1577479E-04  (-0.5712059E-05)
 number of electron     216.0000000 magnetization 
 augmentation part       -0.4367057 magnetization 

 Free energy of the ion-electron system (eV)
  ---------------------------------------------------
  alpha Z        PSCENC =        59.93625244
  Ewald energy   TEWEN  =     32288.69155692
  -Hartree energ DENC   =    -39357.18819602
  -exchange      EXHF   =         0.00000000
  -V(xc)+E(xc)   XCENC  =       451.37190548
  PAW double counting   =    112457.02417563  -112196.25977968
  entropy T*S    EENTRO =        -0.00000000
  eigenvalues    EBANDS =     -2557.87438073
  atomic energy  EATOM  =      8369.52358910
  ---------------------------------------------------
  free energy    TOTEN  =      -484.77487685 eV

  energy without entropy =     -484.77487685  energy(sigma->0) =     -484.77487685


--------------------------------------------------------------------------------------------------------




--------------------------------------- Iteration      1(  20)  ---------------------------------------


    POTLOK:  cpu time    0.2876: real time    0.2898
    SETDIJ:  cpu time    0.0029: real time    0.0029
    TRIAL :  cpu time    2.0098: real time    2.0293
    CORREC:  cpu time    0.8057: real time    0.8135
    CHARGE:  cpu time    0.2344: real time    0.2363
    --------------------------------------------
      LOOP:  cpu time    3.4125: real time    3.4441

 eigenvalue-minimisations  :     0
 total energy-change (2. order) :-0.5446942E-05  (-0.2115022E-05)
 number of electron     216.0000000 magnetization 
 augmentation part       -0.4367251 magnetization 

 Free energy of the ion-electron system (eV)
  ---------------------------------------------------
  alpha Z        PSCENC =        59.93625244
  Ewald energy   TEWEN  =     32288.69155692
  -Hartree energ DENC   =    -39357.18927179
  -exchange      EXHF   =         0.00000000
  -V(xc)+E(xc)   XCENC  =       451.37159596
  PAW double counting   =    112462.91412479  -112202.14946678
  entropy T*S    EENTRO =        -0.00000000
  eigenvalues    EBANDS =     -2557.87326295
  atomic energy  EATOM  =      8369.52358910
  ---------------------------------------------------
  free energy    TOTEN  =      -484.77488230 eV

  energy without entropy =     -484.77488230  energy(sigma->0) =     -484.77488230


--------------------------------------------------------------------------------------------------------




--------------------------------------- Iteration      1(  21)  ---------------------------------------


    POTLOK:  cpu time    0.2787: real time    0.2807
    SETDIJ:  cpu time    0.0030: real time    0.0030
    TRIAL :  cpu time    2.0081: real time    2.0285
    CORREC:  cpu time    0.8052: real time    0.8129
    CHARGE:  cpu time    0.2344: real time    0.2362
    --------------------------------------------
      LOOP:  cpu time    3.3738: real time    3.4111

 eigenvalue-minimisations  :     0
 total energy-change (2. order) :-0.1929118E-05  (-0.8645023E-06)
 number of electron     216.0000000 magnetization 
 augmentation part       -0.4367334 magnetization 

 Free energy of the ion-electron system (eV)
  ---------------------------------------------------
  alpha Z        PSCENC =        59.93625244
  Ewald energy   TEWEN  =     32288.69155692
  -Hartree energ DENC   =    -39357.20587436
  -exchange      EXHF   =         0.00000000
  -V(xc)+E(xc)   XCENC  =       451.37229093
  PAW double counting   =    112464.58133973  -112203.81678138
  entropy T*S    EENTRO =        -0.00000000
  eigenvalues    EBANDS =     -2557.85725762
  atomic energy  EATOM  =      8369.52358910
  ---------------------------------------------------
  free energy    TOTEN  =      -484.77488423 eV

  energy without entropy =     -484.77488423  energy(sigma->0) =     -484.77488423


--------------------------------------------------------------------------------------------------------




--------------------------------------- Iteration      1(  22)  ---------------------------------------


    POTLOK:  cpu time    0.2730: real time    0.2749
    SETDIJ:  cpu time    0.0032: real time    0.0032
    TRIAL :  cpu time    2.0090: real time    2.0297
    CORREC:  cpu time    0.8085: real time    0.8156
    EDDIAG:  cpu time    0.4597: real time    0.4645
    CHARGE:  cpu time    0.2351: real time    0.2369
    --------------------------------------------
      LOOP:  cpu time    3.8401: real time    3.8865

 eigenvalue-minimisations  :     0
 total energy-change (2. order) :-0.8374336E-06  (-0.3504992E-06)
 number of electron     216.0000000 magnetization 
 augmentation part       -0.4367236 magnetization 

 Free energy of the ion-electron system (eV)
  ---------------------------------------------------
  alpha Z        PSCENC =        59.93625244
  Ewald energy   TEWEN  =     32288.69155692
  -Hartree energ DENC   =    -39357.19403260
  -exchange      EXHF   =         0.00000000
  -V(xc)+E(xc)   XCENC  =       451.37169684
  PAW double counting   =    112463.88822527  -112203.12362598
  entropy T*S    EENTRO =        -0.00000000
  eigenvalues    EBANDS =     -2557.86854705
  atomic energy  EATOM  =      8369.52358910
  ---------------------------------------------------
  free energy    TOTEN  =      -484.77488507 eV

  energy without entropy =     -484.77488507  energy(sigma->0) =     -484.77488507


--------------------------------------------------------------------------------------------------------


  average scaling for gradient   0.9353


 average (electrostatic) potential at core
  the test charge radii are     0.5770  0.5955
  (the norm of the test charge is              1.0000)
       1 -85.2928       2 -85.2912       3 -85.2948       4 -85.2976       5 -85.2892
       6 -85.2881       7 -85.2942       8 -85.2905       9 -85.2906      10 -85.2938
      11 -85.2884      12 -85.2894      13 -85.2935      14 -85.2904      15 -85.2879
      16 -85.2887      17 -85.2903      18 -85.2915      19 -85.2925      20 -85.2904
      21 -85.2877      22 -85.2873      23 -85.2991      24 -85.2987      25 -85.2879
      26 -85.2890      27 -85.2911      28 -85.2940      29 -85.2881      30 -85.2880
      31 -85.2962      32 -85.2937      33 -85.2899      34 -85.2888      35 -85.2886
      36 -85.2895      37 -85.2910      38 -85.2921      39 -85.2923      40 -85.2918
      41 -85.2919      42 -85.2929      43 -85.2903      44 -85.2928      45 -85.2880
      46 -85.2884      47 -85.2893      48 -85.2885      49 -85.2918      50 -85.2906
      51 -89.2255      52-120.0047      53-120.0044
 
 
 
 E-fermi :  -3.9313     XC(G=0):  -2.3866     alpha+bet : -2.1113

 Fermi energy:        -3.9312555553

 k-point     1 :       0.0000    0.0000    0.0000
  band No.  band energies     occupation 
      1     -27.3260      2.00000
      2     -26.3209      2.00000
      3     -22.0409      2.00000
      4     -21.1026      2.00000
      5     -21.1017      2.00000
      6     -21.1007      2.00000
      7     -21.0995      2.00000
      8     -21.0983      2.00000
      9     -21.0983      2.00000
     10     -19.2563      2.00000
     11     -19.2560      2.00000
     12     -19.2559      2.00000
     13     -19.2558      2.00000
     14     -19.2557      2.00000
     15     -19.2554      2.00000
     16     -18.3584      2.00000
     17     -18.3583      2.00000
     18     -18.3580      2.00000
     19     -18.3576      2.00000
     20     -18.3574      2.00000
     21     -18.3573      2.00000
     22     -16.1908      2.00000
     23     -16.1907      2.00000
     24     -16.1900      2.00000
     25     -16.1897      2.00000
     26     -16.1884      2.00000
     27     -16.1882      2.00000
     28     -15.2045      2.00000
     29     -15.2043      2.00000
     30     -15.2042      2.00000
     31     -15.2041      2.00000
     32     -15.2033      2.00000
     33     -15.2032      2.00000
     34     -13.8512      2.00000
     35     -13.8510      2.00000
     36     -13.8506      2.00000
     37     -13.8504      2.00000
     38     -13.8503      2.00000
     39     -13.8499      2.00000
     40     -12.1297      2.00000
     41     -11.4620      2.00000
     42     -11.4619      2.00000
     43     -11.4614      2.00000
     44     -11.4614      2.00000
     45     -11.4606      2.00000
     46     -11.4604      2.00000
     47     -11.3655      2.00000
     48     -11.3655      2.00000
     49     -11.3648      2.00000
     50     -11.3648      2.00000
     51     -11.3637      2.00000
     52     -11.3635      2.00000
     53     -10.9404      2.00000
     54     -10.8756      2.00000
     55     -10.8750      2.00000
     56     -10.1326      2.00000
     57      -9.9880      2.00000
     58      -9.9879      2.00000
     59      -9.9866      2.00000
     60      -9.9863      2.00000
     61      -9.9860      2.00000
     62      -9.9860      2.00000
     63      -9.0203      2.00000
     64      -9.0184      2.00000
     65      -9.0154      2.00000
     66      -9.0148      2.00000
     67      -9.0127      2.00000
     68      -9.0127      2.00000
     69      -8.7087      2.00000
     70      -8.7076      2.00000
     71      -8.7074      2.00000
     72      -8.7066      2.00000
     73      -8.7063      2.00000
     74      -8.7061      2.00000
     75      -8.6594      2.00000
     76      -8.6593      2.00000
     77      -8.6591      2.00000
     78      -8.6589      2.00000
     79      -8.6582      2.00000
     80      -8.6574      2.00000
     81      -7.3293      2.00000
     82      -7.3287      2.00000
     83      -7.0519      2.00000
     84      -7.0511      2.00000
     85      -7.0507      2.00000
     86      -7.0502      2.00000
     87      -7.0485      2.00000
     88      -7.0484      2.00000
     89      -6.8876      2.00000
     90      -6.8875      2.00000
     91      -6.8862      2.00000
     92      -6.8860      2.00000
     93      -6.8855      2.00000
     94      -6.8853      2.00000
     95      -5.9918      2.00000
     96      -5.9905      2.00000
     97      -5.9902      2.00000
     98      -5.9894      2.00000
     99      -5.9890      2.00000
    100      -5.9884      2.00000
    101      -5.5626      2.00000
    102      -5.5604      2.00000
    103      -4.0084      2.00000
    104      -4.0080      2.00000
    105      -4.0076      2.00000
    106      -4.0070      2.00000
    107      -4.0046      2.00000
    108      -4.0044      2.00000
    109      -1.2058      0.00000
    110      -1.2055      0.00000
    111      -1.2034      0.00000
    112      -1.2031      0.00000
    113      -1.2028      0.00000
    114      -1.2026      0.00000
    115       0.4391      0.00000
    116       0.6580      0.00000
    117       0.6590      0.00000
    118       0.6596      0.00000
    119       0.6609      0.00000
    120       0.6611      0.00000
    121       0.6637      0.00000
    122       1.0293      0.00000
    123       1.1612      0.00000
    124       1.6584      0.00000
    125       1.7300      0.00000
    126       1.8584      0.00000
    127       1.9300      0.00000
    128       1.9652      0.00000
    129       2.0135      0.00000
    130       2.0265      0.00000
    131       2.1106      0.00000
    132       2.3999      0.00000
    133       2.4020      0.00000
    134       2.4022      0.00000
    135       2.4053      0.00000
    136       2.4079      0.00000
    137       2.4954      0.00000
    138       2.7993      0.00000
    139       3.1113      0.00000
    140       3.6396      0.00000


--------------------------------------------------------------------------------------------------------


 soft charge-density along one line, spin component           1
         0         1         2         3         4         5         6         7         8         9
 total charge-density along one line
 
 pseudopotential strength for first ion, spin component:           1
 12.690  21.354  -0.000   0.000   0.000  -0.000   0.000   0.000
 21.354  35.932  -0.000   0.000   0.000  -0.000   0.000   0.000
 -0.000  -0.000  -3.164  -0.000   0.000  -5.672  -0.000   0.000
  0.000   0.000  -0.000  -3.166  -0.000  -0.000  -5.673  -0.000
  0.000   0.000   0.000  -0.000  -3.164   0.000  -0.000  -5.672
 -0.000  -0.000  -5.672  -0.000   0.000 -10.143  -0.000   0.000
  0.000   0.000  -0.000  -5.673  -0.000  -0.000 -10.146  -0.000
  0.000   0.000   0.000  -0.000  -5.672   0.000  -0.000 -10.143
 total augmentation occupancy for first ion, spin component:           1
  7.880  -2.765  -0.000  -0.002  -0.000   0.000   0.001   0.000
 -2.765   1.007   0.000   0.001  -0.000  -0.000  -0.000   0.000
 -0.000   0.000   7.264  -0.008   0.000  -2.462   0.003  -0.000
 -0.002   0.001  -0.008   3.235  -0.000   0.003  -0.862   0.000
 -0.000  -0.000   0.000  -0.000   7.263  -0.000   0.000  -2.462
  0.000  -0.000  -2.462   0.003  -0.000   0.849  -0.001   0.000
  0.001  -0.000   0.003  -0.862   0.000  -0.001   0.236  -0.000
  0.000   0.000  -0.000   0.000  -2.462   0.000  -0.000   0.849


------------------------ aborting loop because EDIFF is reached ----------------------------------------


    FORLOC:  cpu time    0.0514: real time    0.0519
    FORNL :  cpu time    0.7532: real time    0.7628
    FORCOR:  cpu time    0.2952: real time    0.2975
    OFIELD:  cpu time    0.0013: real time    0.0013

 ---------------------------------------------------------------------------------------------

         DFTD3 V3.0 Rev 1        
 IVDW         = 11
 DF pbe       
 parameters
 VDW_S6       =    1.0000
 VDW_S8       =    0.7220
 VDW_SR       =    1.2170
 rs18     =    1.0000
 alpha6   =   14.0000
 alpha8   =   16.0000
 k1-k3    =   16.0000    1.3333   -4.0000
 VDW_RADIUS   =   50.2022 A
 VDW_CNRADIUS =   21.1671 A
 Edisp (eV)   -1.77199

 E6    (eV) :    -1.0115
 E8    (eV) :    -0.7605
 % E8        : 42.92
    FORVDW:  cpu time    0.1744: real time    0.1755

 VOLUME and BASIS-vectors are now :
 -----------------------------------------------------------------------------
  energy-cutoff  :     1000.00
  volume of cell :     2631.08
      direct lattice vectors                 reciprocal lattice vectors
    12.325000000  0.000000000  0.000000000     0.081135903  0.046843835  0.000000000
    -6.162500000 10.673763102  0.000000000     0.000000000  0.093687670  0.000000000
     0.000000000  0.000000000 20.000000000     0.000000000  0.000000000  0.050000000

  length of vectors
    12.325000000 12.325000000 20.000000000     0.093687670  0.093687670  0.050000000


 FORCES acting on ions:
    Electron-Ion                     Ewald-Force                    Non-Local-Force
 -----------------------------------------------------------------------------------------------
   0.515E+01 0.448E+01 0.204E+02   -.516E+01 -.448E+01 -.204E+02   0.912E-02 -.145E-02 0.806E-02
   0.768E+01 0.374E+01 0.244E+02   -.770E+01 -.373E+01 -.244E+02   0.110E-01 -.554E-02 -.621E-02
   0.338E+01 0.899E+01 0.276E+02   -.338E+01 -.900E+01 -.276E+02   -.983E-03 0.210E-01 0.832E-02
   0.462E+01 0.669E+01 0.367E+02   -.463E+01 -.670E+01 -.368E+02   0.198E-01 0.479E-02 0.668E-02
   0.551E+01 0.130E+01 0.206E+02   -.551E+01 -.130E+01 -.206E+02   0.300E-02 -.937E-02 -.115E-02
   0.568E+01 -.108E+01 0.209E+02   -.568E+01 0.109E+01 -.209E+02   -.762E-02 0.142E-02 -.957E-02
   0.859E+01 0.317E+01 0.338E+02   -.861E+01 -.316E+01 -.338E+02   0.237E-01 -.258E-01 -.304E-03
   0.832E+01 -.296E+01 0.352E+02   -.833E+01 0.297E+01 -.352E+02   0.372E-02 -.127E-01 -.110E-01
   -.399E+01 0.810E+01 0.278E+02   0.400E+01 -.811E+01 -.278E+02   -.771E-02 -.634E-02 -.967E-02
   -.623E+01 0.524E+01 0.357E+02   0.625E+01 -.526E+01 -.357E+02   -.393E-01 0.240E-01 0.665E-02
   0.142E+01 -.137E+01 0.178E+02   -.141E+01 0.137E+01 -.177E+02   0.119E-02 -.179E-02 -.383E-02
   0.120E+01 -.999E+00 0.168E+02   -.120E+01 0.998E+00 -.168E+02   -.105E-01 0.474E-02 0.298E-02
   0.333E+01 -.718E+01 0.383E+02   -.335E+01 0.720E+01 -.383E+02   0.401E-01 -.168E-01 0.203E-02
   0.181E+01 -.899E+01 0.286E+02   -.183E+01 0.900E+01 -.286E+02   0.114E-01 0.609E-03 -.201E-01
   -.495E+01 0.307E+01 0.200E+02   0.495E+01 -.307E+01 -.200E+02   0.805E-02 -.379E-02 0.625E-04
   -.689E+01 0.203E+01 0.220E+02   0.689E+01 -.203E+01 -.220E+02   -.531E-02 0.881E-02 -.127E-01
   -.850E+00 -.338E+00 0.162E+02   0.858E+00 0.334E+00 -.162E+02   -.400E-02 0.158E-02 0.118E-02
   0.410E+00 0.299E+01 0.170E+02   -.406E+00 -.300E+01 -.170E+02   -.554E-02 0.324E-02 0.911E-02
   -.135E+01 -.825E+01 0.239E+02   0.134E+01 0.826E+01 -.239E+02   0.115E-01 -.575E-02 0.134E-02
   -.683E+00 -.452E+01 0.184E+02   0.677E+00 0.452E+01 -.184E+02   0.352E-02 -.396E-02 -.163E-02
   0.770E+01 -.340E+01 0.258E+02   -.770E+01 0.340E+01 -.257E+02   0.200E-02 -.591E-02 -.275E-01
   0.502E+01 -.421E+01 0.220E+02   -.502E+01 0.421E+01 -.220E+02   -.708E-02 0.620E-02 -.110E-01
   -.160E+01 0.311E+01 0.424E+02   0.160E+01 -.312E+01 -.424E+02   -.164E-01 0.163E-01 0.295E-01
   -.224E+01 -.489E+01 0.414E+02   0.223E+01 0.490E+01 -.414E+02   0.158E-01 -.231E-01 0.158E-01
   0.258E+01 -.105E+01 0.178E+02   -.257E+01 0.105E+01 -.178E+02   0.491E-03 -.134E-02 -.778E-02
   0.555E+00 0.228E+01 0.179E+02   -.551E+00 -.228E+01 -.179E+02   -.873E-02 0.530E-02 0.166E-02
   -.911E+01 0.124E+01 0.296E+02   0.912E+01 -.125E+01 -.296E+02   0.242E-02 0.131E-01 -.598E-02
   -.869E+01 -.349E+01 0.279E+02   0.871E+01 0.349E+01 -.279E+02   -.181E-01 0.131E-01 0.463E-02
   0.300E+01 -.603E+01 0.227E+02   -.301E+01 0.603E+01 -.227E+02   0.920E-02 0.144E-02 -.145E-01
   0.268E+00 -.248E+01 0.188E+02   -.272E+00 0.248E+01 -.188E+02   -.281E-02 0.318E-02 -.703E-02
   -.653E+01 -.686E+01 0.322E+02   0.654E+01 0.687E+01 -.322E+02   -.198E-01 -.128E-01 0.226E-02
   -.429E+01 -.791E+01 0.249E+02   0.429E+01 0.792E+01 -.249E+02   0.635E-03 -.863E-02 0.813E-02
   0.333E+00 0.132E+01 0.167E+02   -.336E+00 -.132E+01 -.167E+02   0.838E-02 -.613E-02 0.483E-02
   0.873E+00 0.130E+01 0.177E+02   -.877E+00 -.130E+01 -.177E+02   -.978E-03 0.305E-02 -.444E-02
   -.348E+01 0.521E+00 0.188E+02   0.348E+01 -.523E+00 -.188E+02   0.433E-02 -.125E-02 0.116E-02
   -.306E+01 -.127E+01 0.185E+02   0.306E+01 0.127E+01 -.185E+02   -.778E-02 0.457E-02 0.426E-03
   -.600E+01 -.312E+01 0.206E+02   0.601E+01 0.311E+01 -.206E+02   -.750E-02 0.205E-02 0.273E-02
   -.373E+01 -.299E+01 0.182E+02   0.373E+01 0.299E+01 -.182E+02   -.754E-02 0.169E-02 0.971E-02
   -.343E+01 -.443E+01 0.192E+02   0.343E+01 0.443E+01 -.192E+02   -.619E-02 -.205E-02 0.704E-02
   -.518E+00 -.112E+01 0.171E+02   0.518E+00 0.112E+01 -.171E+02   0.255E-02 -.634E-03 0.839E-02
   0.129E+01 0.317E+01 0.176E+02   -.129E+01 -.318E+01 -.176E+02   -.465E-02 0.458E-02 0.811E-02
   0.404E+01 0.632E+01 0.213E+02   -.404E+01 -.633E+01 -.213E+02   0.323E-02 0.275E-02 0.115E-01
   0.349E+00 0.542E+01 0.189E+02   -.342E+00 -.543E+01 -.189E+02   -.413E-02 0.469E-02 0.515E-03
   -.829E-01 0.884E+01 0.249E+02   0.924E-01 -.885E+01 -.249E+02   -.148E-01 0.722E-02 0.591E-02
   -.102E+01 0.199E+01 0.186E+02   0.103E+01 -.199E+01 -.186E+02   0.287E-02 -.311E-02 -.371E-02
   -.406E+01 0.503E+01 0.215E+02   0.406E+01 -.503E+01 -.215E+02   -.102E-01 0.204E-02 -.909E-02
   -.841E+00 -.223E+01 0.176E+02   0.837E+00 0.223E+01 -.176E+02   0.986E-02 -.245E-02 0.287E-02
   -.203E+01 0.783E+00 0.170E+02   0.202E+01 -.781E+00 -.170E+02   -.722E-03 0.238E-02 -.659E-02
   0.199E+00 -.139E+01 0.169E+02   -.202E+00 0.139E+01 -.169E+02   0.643E-02 -.400E-02 0.599E-02
   0.220E+01 0.159E+01 0.170E+02   -.221E+01 -.158E+01 -.170E+02   0.368E-02 0.102E-02 0.304E-02
   0.331E-01 -.127E-01 -.290E+03   -.356E-01 0.154E-01 0.290E+03   -.340E-02 0.202E-02 -.520E-02
   -.229E+03 0.156E+03 -.447E+03   0.279E+03 -.190E+03 0.450E+03   -.511E+02 0.348E+02 -.342E+01
   0.229E+03 -.156E+03 -.427E+03   -.279E+03 0.190E+03 0.424E+03   0.511E+02 -.348E+02 0.309E+01
 -----------------------------------------------------------------------------------------------
   -.361E-02 0.115E-01 0.338E+00   0.000E+00 0.568E-13 0.171E-12   0.360E-02 -.117E-01 -.337E+00
 
 
 POSITION                                       TOTAL-FORCE (eV/Angst)
 -----------------------------------------------------------------------------------
     11.98348      0.00342      0.01417         0.002939     -0.000901     -0.000738
     -0.34154      1.42665      0.01100        -0.001739      0.000002     -0.002396
      2.12355      0.00315      0.01249        -0.001008      0.008228     -0.004563
      2.12326      1.42653      0.00641         0.010504      0.000672     -0.003726
     10.75099      2.13819      0.01213         0.000316     -0.004972      0.000398
     -1.57382      3.56123      0.01110        -0.007467      0.005218     -0.001108
      0.89078      2.13854      0.00548         0.007478     -0.016152      0.004866
      0.89099      3.56147      0.00181        -0.012922     -0.001275      0.014112
      4.58864      0.00346      0.01135         0.004388     -0.016332     -0.002234
      4.58894      1.42623      0.00646        -0.019764      0.011124      0.017079
      9.51854      4.27281      0.01369         0.006927     -0.003581      0.000363
     -2.80632      5.69591      0.01434        -0.006253      0.003288      0.000978
      2.12300      4.27302      0.00000         0.020984     -0.003577      0.023732
      2.12335      5.69594      0.00581        -0.001425      0.009744     -0.001332
      7.05344      0.00333      0.01399         0.008428     -0.004644     -0.000005
      7.05353      1.42635      0.01368        -0.001778      0.004479     -0.003190
      8.28610      6.40752      0.01601         0.003392     -0.001573     -0.000631
     -4.03885      7.83070      0.01636        -0.001822      0.001009      0.000038
      3.35586      6.40753      0.01007         0.003944      0.000214     -0.000777
      3.35599      7.83072      0.01320        -0.003468      0.000459     -0.000328
     -0.34146      4.27290      0.00723        -0.001670     -0.001186     -0.003539
     -0.34138      5.69591      0.00946        -0.008366      0.005349     -0.000623
      3.35624      2.13791      0.00222        -0.011117      0.010024      0.022494
      3.35573      3.56155      0.00139         0.011607     -0.013278      0.014247
     -1.57395      6.40758      0.01311         0.006330     -0.004189     -0.000481
     -1.57385      7.83068      0.01438        -0.004571      0.003756      0.000292
      5.82093      2.13784      0.01033         0.016766      0.004373     -0.001382
      5.82114      3.56097      0.01156        -0.005010      0.006605     -0.002360
      0.89092      6.40755      0.00907         0.004128      0.001642     -0.001654
      0.89106      7.83068      0.01235        -0.007086      0.003024      0.000525
      4.58871      4.27293      0.00850        -0.010150     -0.005650     -0.007800
      4.58852      5.69606      0.01149         0.001550      0.000519     -0.002904
      9.51845      0.00337      0.01490         0.004525     -0.004542      0.000351
      9.51855      1.42644      0.01438        -0.004949      0.005932     -0.000180
      8.28593      2.13803      0.01453         0.005717     -0.003791      0.000824
      8.28613      3.56115      0.01464        -0.004148      0.001880      0.000246
      7.05356      4.27269      0.01457         0.003438     -0.001032     -0.000081
      7.05362      5.69588      0.01553        -0.002308      0.001126      0.000088
      5.82112      6.40755      0.01489        -0.002303      0.001766      0.000265
      5.82102      7.83073      0.01579         0.002528      0.000566     -0.000131
      7.05363      8.54227      0.01631        -0.004433      0.000754      0.001294
     -5.27149      9.96549      0.01495        -0.000662     -0.002364     -0.001575
     -2.80638      8.54234      0.01558         0.003481     -0.001788     -0.000789
     -2.80627      9.96553      0.01362        -0.004970      0.000005     -0.003024
     -0.34149      8.54239      0.01378         0.005811     -0.004046      0.000469
     -0.34138      9.96550      0.01354        -0.005671      0.000377     -0.000719
      2.12343      8.54232      0.01336         0.005576     -0.001526      0.001003
      2.12354      9.96544      0.01469        -0.005934      0.004108     -0.001768
      4.58846      8.54235      0.01505         0.003480     -0.002859      0.001106
      4.58853      9.96550      0.01517        -0.003315      0.003346      0.000417
      3.04930      2.68154      4.71937        -0.005713      0.004697      0.007938
      4.02070      2.02068      4.78379        -0.519841      0.353176     -0.063553
      2.07767      3.34267      4.65992         0.525623     -0.358204      0.000467
 -----------------------------------------------------------------------------------
    total drift:                               -0.000006     -0.000230      0.000783


--------------------------------------------------------------------------------------------------------



  FREE ENERGIE OF THE ION-ELECTRON SYSTEM (eV)
  ---------------------------------------------------
  free  energy   TOTEN  =      -486.54687652 eV

  energy  without entropy=     -486.54687652  energy(sigma->0) =     -486.54687652
 


--------------------------------------------------------------------------------------------------------


    POTLOK:  cpu time    0.2897: real time    0.2922


--------------------------------------------------------------------------------------------------------


     LOOP+:  cpu time  109.5419: real time  111.0317
    4ORBIT:  cpu time    0.0000: real time    0.0000

 total amount of memory used by VASP MPI-rank0   175916. kBytes
=======================================================================

   base      :      30000. kBytes
   nonl-proj :      46129. kBytes
   fftplans  :      35778. kBytes
   grid      :      52596. kBytes
   one-center:         43. kBytes
   wavefun   :      11370. kBytes
 
  
  
 General timing and accounting informations for this job:
 ========================================================
  
                  Total CPU time used (sec):      145.385
                            User time (sec):      132.750
                          System time (sec):       12.636
                         Elapsed time (sec):      148.888
  
                   Maximum memory used (kb):      522364.
                   Average memory used (kb):          N/A
  
                          Minor page faults:        51330
                          Major page faults:          126
                 Voluntary context switches:         3612
