 vasp.6.2.1 16May21 (build Nov 06 2021 14:46:37) complex                        
  
 executed on             LinuxIFC date 2025.03.03  17:42:31
 running on  112 total cores
 distrk:  each k-point on  112 cores,    1 groups
 distr:  one band on NCORE=   4 cores,   28 groups


--------------------------------------------------------------------------------------------------------


 INCAR:
   ALGO = Conjugate
   NCORE = 4
   ISMEAR = 0
   SIGMA = 0.01
   PREC = Accurate
   EDIFF = 1E-6
   ENCUT = 1000
   ISIF = 0
   IVDW = 11
   LWAVE = .FALSE.
   LCHARGE = .FALSE.
   SYMPREC = 1E-6

 POTCAR:    PAW_PBE C_h 06Feb2004                 
 POTCAR:    PAW_PBE O_h 06Feb2004                 
 -----------------------------------------------------------------------------
|                                                                             |
|           W    W    AA    RRRRR   N    N  II  N    N   GGGG   !!!           |
|           W    W   A  A   R    R  NN   N  II  NN   N  G    G  !!!           |
|           W    W  A    A  R    R  N N  N  II  N N  N  G       !!!           |
|           W WW W  AAAAAA  RRRRR   N  N N  II  N  N N  G  GGG   !            |
|           WW  WW  A    A  R   R   N   NN  II  N   NN  G    G                |
|           W    W  A    A  R    R  N    N  II  N    N   GGGG   !!!           |
|                                                                             |
|     For optimal performance we recommend to set                             |
|       NCORE = 2 up to number-of-cores-per-socket                            |
|     NCORE specifies how many cores store one orbital (NPAR=cpu/NCORE).      |
|     This setting can greatly improve the performance of VASP for DFT.       |
|     The default, NCORE=1 might be grossly inefficient on modern             |
|     multi-core architectures or massively parallel machines. Do your        |
|     own testing! More info at https://www.vasp.at/wiki/index.php/NCORE      |
|     Unfortunately you need to use the default for GW and RPA                |
|     calculations (for HF NCORE is supported but not extensively tested      |
|     yet).                                                                   |
|                                                                             |
 -----------------------------------------------------------------------------

 POTCAR:    PAW_PBE C_h 06Feb2004                 
   VRHFIN =C: s2p2                                                                                  
   LEXCH  = PE                                                                                      
   EATOM  =   147.1560 eV,   10.8157 Ry                                                             
                                                                                                    
   TITEL  = PAW_PBE C_h 06Feb2004                                                                   
   LULTRA =        F    use ultrasoft PP ?                                                          
   IUNSCR =        1    unscreen: 0-lin 1-nonlin 2-no                                               
   RPACOR =    0.800    partial core radius                                                         
   POMASS =   12.011; ZVAL   =    4.000    mass and valenz                                          
   RCORE  =    1.100    outmost cutoff radius                                                       
   RWIGS  =    1.630; RWIGS  =    0.863    wigner-seitz radius (au A)                               
   ENMAX  =  700.000; ENMIN  =  500.000 eV                                                          
   ICORE  =        2    local potential                                                             
   LCOR   =        T    correct aug charges                                                         
   LPAW   =        T    paw PP                                                                      
   EAUG   =  946.768                                                                                
   DEXC   =    0.000                                                                                
   RMAX   =    1.128    core radius for proj-oper                                                   
   RAUG   =    1.300    factor for augmentation sphere                                              
   RDEP   =    1.162    radius for radial grids                                                     
   RDEPT  =    1.088    core radius for aug-charge                                                  
                                                                                                    
   Atomic configuration                                                                             
    4 entries                                                                                       
     n  l   j            E        occ.                                                              
     1  0  0.50      -273.3789   2.0000                                                             
     2  0  0.50       -13.7508   2.0000                                                             
     2  1  0.50        -5.2854   2.0000                                                             
     3  2  1.50        -5.4423   0.0000                                                             
   Description                                                                                      
     l       E           TYP  RCUT    TYP  RCUT                                                     
     0    -13.7508458     23  1.100                                                                 
     0     -8.2022199     23  1.100                                                                 
     1     -5.2854383     23  1.100                                                                 
     1      1.1560700     23  1.100                                                                 
     2     -5.4423304      7  1.100                                                                 
  local pseudopotential read in
  partial core-charges read in
  partial kinetic energy density read in
  atomic valenz-charges read in
  non local Contribution for L=           0  read in
    real space projection operators read in
  non local Contribution for L=           0  read in
    real space projection operators read in
  non local Contribution for L=           1  read in
    real space projection operators read in
  non local Contribution for L=           1  read in
    real space projection operators read in
    PAW grid and wavefunctions read in
 
   number of l-projection  operators is LMAX  =           4
   number of lm-projection operators is LMMAX =           8
 
 POTCAR:    PAW_PBE O_h 06Feb2004                 
   VRHFIN =O: s2p4                                                                                  
   LEXCH  = PE                                                                                      
   EATOM  =   432.3788 eV,   31.7789 Ry                                                             
                                                                                                    
   TITEL  = PAW_PBE O_h 06Feb2004                                                                   
   LULTRA =        F    use ultrasoft PP ?                                                          
   IUNSCR =        1    unscreen: 0-lin 1-nonlin 2-no                                               
   RPACOR =    0.800    partial core radius                                                         
   POMASS =   16.000; ZVAL   =    6.000    mass and valenz                                          
   RCORE  =    1.100    outmost cutoff radius                                                       
   RWIGS  =    1.400; RWIGS  =    0.741    wigner-seitz radius (au A)                               
   ENMAX  =  700.000; ENMIN  =  500.000 eV                                                          
   ICORE  =        2    local potential                                                             
   LCOR   =        T    correct aug charges                                                         
   LPAW   =        T    paw PP                                                                      
   EAUG   =  888.804                                                                                
   DEXC   =    0.000                                                                                
   RMAX   =    1.128    core radius for proj-oper                                                   
   RAUG   =    1.300    factor for augmentation sphere                                              
   RDEP   =    1.125    radius for radial grids                                                     
   RDEPT  =    1.088    core radius for aug-charge                                                  
                                                                                                    
   Atomic configuration                                                                             
    4 entries                                                                                       
     n  l   j            E        occ.                                                              
     1  0  0.50      -514.6923   2.0000                                                             
     2  0  0.50       -23.9615   2.0000                                                             
     2  1  0.50        -9.0305   4.0000                                                             
     3  2  1.50        -9.5241   0.0000                                                             
   Description                                                                                      
     l       E           TYP  RCUT    TYP  RCUT                                                     
     0    -23.9615319     23  1.100                                                                 
     0    -25.3221145     23  1.100                                                                 
     1     -9.0304911     23  1.100                                                                 
     1     -5.4802209     23  1.100                                                                 
     2     -9.5240782      7  1.100                                                                 
  local pseudopotential read in
  partial core-charges read in
  partial kinetic energy density read in
  atomic valenz-charges read in
  non local Contribution for L=           0  read in
    real space projection operators read in
  non local Contribution for L=           0  read in
    real space projection operators read in
  non local Contribution for L=           1  read in
    real space projection operators read in
  non local Contribution for L=           1  read in
    real space projection operators read in
    PAW grid and wavefunctions read in
 
   number of l-projection  operators is LMAX  =           4
   number of lm-projection operators is LMMAX =           8
 
 -----------------------------------------------------------------------------
|                                                                             |
|               ----> ADVICE to this user running VASP <----                  |
|                                                                             |
|     You have a (more or less) 'large supercell' and for larger cells it     |
|     might be more efficient to use real-space projection operators.         |
|     Therefore, try LREAL= Auto in the INCAR file.                           |
|     Mind: For very accurate calculation, you might also keep the            |
|     reciprocal projection scheme (i.e. LREAL=.FALSE.).                      |
|                                                                             |
 -----------------------------------------------------------------------------

  PAW_PBE C_h 06Feb2004                 :
 energy of atom  1       EATOM= -147.1560
 kinetic energy error for atom=    0.0031 (will be added to EATOM!!)
  PAW_PBE O_h 06Feb2004                 :
 energy of atom  2       EATOM= -432.3788
 kinetic energy error for atom=    0.0171 (will be added to EATOM!!)
 
 
 POSCAR:  C  O
  positions in cartesian coordinates
  No initial velocities read in
 exchange correlation table for  LEXCH =        8
   RHO(1)=    0.500       N(1)  =     2000
   RHO(2)=  100.500       N(2)  =     4000
 


--------------------------------------------------------------------------------------------------------


 ion  position               nearest neighbor table
   1  0.972  0.000  0.001-  50 1.42   2 1.42  42 1.42
   2  0.039  0.134  0.001-   5 1.42   7 1.42   1 1.42
   3  0.172  0.000  0.001-  42 1.42  44 1.42   4 1.42
   4  0.239  0.134  0.000-   7 1.42   3 1.42  23 1.42
   5  0.972  0.200  0.001-   6 1.42   2 1.42  34 1.42
   6  0.039  0.334  0.001-   5 1.42  21 1.42  11 1.42
   7  0.172  0.200  0.000-   8 1.42   2 1.42   4 1.42
   8  0.239  0.334  0.000-  13 1.42   7 1.42  21 1.42
   9  0.372  0.000  0.001-  10 1.42  44 1.42  46 1.42
  10  0.439  0.134  0.000-  27 1.42   9 1.42  23 1.42
  11  0.972  0.400  0.001-  12 1.42  36 1.42   6 1.42
  12  0.039  0.534  0.001-  25 1.42  11 1.42  17 1.42
  13  0.372  0.400  0.000-   8 1.42  14 1.42  24 1.42
  14  0.439  0.534  0.000-  13 1.42  29 1.42  19 1.42
  15  0.572  0.000  0.001-  46 1.42  16 1.42  48 1.42
  16  0.639  0.134  0.001-  15 1.42  35 1.42  27 1.42
  17  0.972  0.600  0.001-  38 1.42  18 1.42  12 1.42
  18  0.039  0.734  0.001-  43 1.42  41 1.42  17 1.42
  19  0.572  0.600  0.001-  14 1.42  20 1.42  32 1.42
  20  0.639  0.734  0.001-  49 1.42  19 1.42  47 1.42
  21  0.172  0.400  0.000-  22 1.42   8 1.42   6 1.42
  22  0.239  0.534  0.000-  21 1.42  29 1.42  25 1.42
  23  0.372  0.200  0.000-  10 1.42   4 1.42  24 1.42
  24  0.439  0.334  0.000-  13 1.42  31 1.42  23 1.42
  25  0.172  0.600  0.001-  26 1.42  12 1.42  22 1.42
  26  0.239  0.734  0.001-  25 1.42  45 1.42  43 1.42
  27  0.572  0.200  0.001-  10 1.42  28 1.42  16 1.42
  28  0.639  0.334  0.001-  27 1.42  37 1.42  31 1.42
  29  0.372  0.600  0.000-  22 1.42  14 1.42  30 1.42
  30  0.439  0.734  0.001-  47 1.42  29 1.42  45 1.42
  31  0.572  0.400  0.000-  32 1.42  28 1.42  24 1.42
  32  0.639  0.534  0.001-  31 1.42  39 1.42  19 1.42
  33  0.772  0.000  0.001-  34 1.42  48 1.42  50 1.42
  34  0.839  0.134  0.001-  33 1.42   5 1.42  35 1.42
  35  0.772  0.200  0.001-  36 1.42  16 1.42  34 1.42
  36  0.839  0.334  0.001-  35 1.42  11 1.42  37 1.42
  37  0.772  0.400  0.001-  28 1.42  38 1.42  36 1.42
  38  0.839  0.534  0.001-  17 1.42  37 1.42  39 1.42
  39  0.772  0.600  0.001-  40 1.42  38 1.42  32 1.42
  40  0.839  0.734  0.001-  39 1.42  49 1.42  41 1.42
  41  0.972  0.800  0.001-  18 1.42  42 1.42  40 1.42
  42  0.039  0.934  0.001-   3 1.42  41 1.42   1 1.42
  43  0.172  0.800  0.001-  18 1.42  44 1.42  26 1.42
  44  0.239  0.934  0.001-   9 1.42  43 1.42   3 1.42
  45  0.372  0.800  0.001-  26 1.42  46 1.42  30 1.42
  46  0.439  0.934  0.001-  15 1.42  45 1.42   9 1.42
  47  0.572  0.800  0.001-  30 1.42  48 1.42  20 1.42
  48  0.639  0.934  0.001-  47 1.42  33 1.42  15 1.42
  49  0.772  0.800  0.001-  50 1.42  20 1.42  40 1.42
  50  0.839  0.934  0.001-  49 1.42   1 1.42  33 1.42
  51  0.373  0.251  0.472-  52 1.18  53 1.18
  52  0.421  0.189  0.475-  51 1.18
  53  0.325  0.313  0.469-  51 1.18
 
  LATTYP: Found a hexagonal cell.
 ALAT       =    12.3250000000
 C/A-ratio  =     1.6227180527
  
  Lattice vectors:
  
 A1 = (  12.3250000000,   0.0000000000,   0.0000000000)
 A2 = (  -6.1625000000,  10.6737631016,   0.0000000000)
 A3 = (   0.0000000000,   0.0000000000,  20.0000000000)


Analysis of symmetry for initial positions (statically):
=====================================================================
 Subroutine PRICEL returns:
 Original cell was already a primitive cell.
 

 Routine SETGRP: Setting up the symmetry group for a 
 hexagonal supercell.


 Subroutine GETGRP returns: Found  1 space group operations
 (whereof  1 operations were pure point group operations)
 out of a pool of 24 trial point group operations.


The static configuration has the point symmetry C_1 .


Analysis of symmetry for dynamics (positions and initial velocities):
=====================================================================
 Subroutine PRICEL returns:
 Original cell was already a primitive cell.
 

 Routine SETGRP: Setting up the symmetry group for a 
 hexagonal supercell.


 Subroutine GETGRP returns: Found  1 space group operations
 (whereof  1 operations were pure point group operations)
 out of a pool of 24 trial point group operations.


The dynamic configuration has the point symmetry C_1 .


 Subroutine INISYM returns: Found  1 space group operations
 (whereof  1 operations are pure point group operations),
 and found     1 'primitive' translations


----------------------------------------------------------------------------------------

                                     Primitive cell                                     

  volume of cell :    2631.0826

  direct lattice vectors                    reciprocal lattice vectors
    12.325000000  0.000000000  0.000000000     0.081135903  0.046843835  0.000000000
    -6.162500000 10.673763102  0.000000000     0.000000000  0.093687670  0.000000000
     0.000000000  0.000000000 20.000000000     0.000000000  0.000000000  0.050000000

  length of vectors
    12.325000000 12.325000000 20.000000000     0.093687670  0.093687670  0.050000000

  position of ions in fractional coordinates (direct lattice)
     0.972450841  0.000320818  0.000708389
     0.039118382  0.133659505  0.000550216
     0.172443627  0.000295449  0.000624535
     0.239096278  0.133647917  0.000320585
     0.972452058  0.200322012  0.000606523
     0.039128360  0.333643771  0.000555187
     0.172451764  0.200354552  0.000273959
     0.239124359  0.333665720  0.000090325
     0.372465565  0.000324403  0.000567391
     0.439137473  0.133619939  0.000322923
     0.972449824  0.400309362  0.000684513
     0.039124981  0.533636789  0.000716763
     0.372416176  0.400329481  0.000000000
     0.439099602  0.533638981  0.000290518
     0.572443676  0.000312125  0.000699475
     0.639110207  0.133631751  0.000684093
     0.972452703  0.600305653  0.000800361
     0.039124495  0.733640359  0.000818141
     0.572433471  0.600306242  0.000503618
     0.639111888  0.733641879  0.000659881
     0.172454630  0.400318228  0.000361306
     0.239120185  0.533636548  0.000473136
     0.372459750  0.200295993  0.000111246
     0.439107096  0.333673419  0.000069702
     0.172452155  0.600311506  0.000655425
     0.239123371  0.733638574  0.000718912
     0.572431082  0.200289171  0.000516621
     0.639112773  0.333618630  0.000577970
     0.372439808  0.600308022  0.000453556
     0.439116090  0.733637858  0.000617737
     0.572469358  0.400320504  0.000424897
     0.639119408  0.533650873  0.000574513
     0.772445723  0.000315427  0.000745201
     0.839116277  0.133640203  0.000719132
     0.772440513  0.200307432  0.000726291
     0.839120241  0.333635728  0.000731834
     0.772446320  0.400298367  0.000728722
     0.839118980  0.533633964  0.000776376
     0.772456143  0.600308173  0.000744639
     0.839115033  0.733643180  0.000789390
     0.972455313  0.800305582  0.000815291
     0.039114714  0.933643289  0.000747563
     0.172457971  0.800312211  0.000779216
     0.239134551  0.933647193  0.000681063
     0.372451396  0.800316674  0.000689249
     0.439124489  0.933644769  0.000676788
     0.572441101  0.800310054  0.000668168
     0.639115067  0.933638985  0.000734556
     0.772445098  0.800313187  0.000752577
     0.839116614  0.933644338  0.000758538
     0.373021009  0.251226878  0.471937156
     0.420879805  0.189313152  0.475158249
     0.325156981  0.313167186  0.468964413

  ion indices of the primitive-cell ions
   primitive index   ion index
                 1           1
                 2           2
                 3           3
                 4           4
                 5           5
                 6           6
                 7           7
                 8           8
                 9           9
                10          10
                11          11
                12          12
                13          13
                14          14
                15          15
                16          16
                17          17
                18          18
                19          19
                20          20
                21          21
                22          22
                23          23
                24          24
                25          25
                26          26
                27          27
                28          28
                29          29
                30          30
                31          31
                32          32
                33          33
                34          34
                35          35
                36          36
                37          37
                38          38
                39          39
                40          40
                41          41
                42          42
                43          43
                44          44
                45          45
                46          46
                47          47
                48          48
                49          49
                50          50
                51          51
                52          52
                53          53

----------------------------------------------------------------------------------------

 
 
 KPOINTS: auto                                    

Automatic generation of k-mesh.
 Grid dimensions read from file:
 generate k-points for:    1    1    1

 Generating k-lattice:

  Cartesian coordinates                     Fractional coordinates (reciprocal lattice)
     0.081135903  0.046843835  0.000000000     1.000000000 -0.000000000  0.000000000
     0.000000000  0.093687670  0.000000000     0.000000000  1.000000000  0.000000000
     0.000000000  0.000000000  0.050000000     0.000000000  0.000000000  1.000000000

  Length of vectors
     0.093687670  0.093687670  0.050000000

  Shift w.r.t. Gamma in fractional coordinates (k-lattice)
     0.000000000  0.000000000  0.000000000

 
 Subroutine IBZKPT returns following result:
 ===========================================
 
 Found      1 irreducible k-points:
 
 Following reciprocal coordinates:
            Coordinates               Weight
  0.000000  0.000000  0.000000      1.000000
 
 Following cartesian coordinates:
            Coordinates               Weight
  0.000000  0.000000  0.000000      1.000000
 


--------------------------------------------------------------------------------------------------------




 Dimension of arrays:
   k-points           NKPTS =      1   k-points in BZ     NKDIM =      1   number of bands    NBANDS=    140
   number of dos      NEDOS =    301   number of ions     NIONS =     53
   non local maximal  LDIM  =      4   non local SUM 2l+1 LMDIM =      8
   total plane-waves  NPLWV = ******
   max r-space proj   IRMAX =      1   max aug-charges    IRDMAX=   9736
   dimension x,y,z NGX =   128 NGY =  128 NGZ =  210
   dimension x,y,z NGXF=   256 NGYF=  256 NGZF=  420
   support grid    NGXF=   256 NGYF=  256 NGZF=  420
   ions per type =              51   2
   NGX,Y,Z   is equivalent  to a cutoff of  17.27, 17.27, 17.46 a.u.
   NGXF,Y,Z  is equivalent  to a cutoff of  34.53, 34.53, 34.91 a.u.

 SYSTEM =  unknown system                          
 POSCAR =   C  O                                   

 Startparameter for this run:
   NWRITE =      2    write-flag & timer
   PREC   = accura    normal or accurate (medium, high low for compatibility)
   ISTART =      0    job   : 0-new  1-cont  2-samecut
   ICHARG =      2    charge: 1-file 2-atom 10-const
   ISPIN  =      1    spin polarized calculation?
   LNONCOLLINEAR =      F non collinear calculations
   LSORBIT =      F    spin-orbit coupling
   INIWAV =      1    electr: 0-lowe 1-rand  2-diag
   LASPH  =      F    aspherical Exc in radial PAW
 Electronic Relaxation 1
   ENCUT  = 1000.0 eV  73.50 Ry    8.57 a.u.  31.78 31.78 51.57*2*pi/ulx,y,z
   ENINI  = 1000.0     initial cutoff
   ENAUG  =  946.8 eV  augmentation charge cutoff
   NELM   =     60;   NELMIN=  2; NELMDL= -5     # of ELM steps 
   EDIFF  = 0.1E-05   stopping-criterion for ELM
   LREAL  =      F    real-space projection
   NLSPLINE    = F    spline interpolate recip. space projectors
   LCOMPAT=      F    compatible to vasp.4.4
   GGA_COMPAT  = T    GGA compatible to vasp.4.4-vasp.4.6
   LMAXPAW     = -100 max onsite density
   LMAXMIX     =    2 max onsite mixed and CHGCAR
   VOSKOWN=      0    Vosko Wilk Nusair interpolation
   ROPT   =    0.00000   0.00000
 Ionic relaxation
   EDIFFG = 0.1E-04   stopping-criterion for IOM
   NSW    =      0    number of steps for IOM
   NBLOCK =      1;   KBLOCK =      1    inner block; outer block 
   IBRION =     -1    ionic relax: 0-MD 1-quasi-New 2-CG
   NFREE  =      0    steps in history (QN), initial steepest desc. (CG)
   ISIF   =      0    stress and relaxation
   IWAVPR =     10    prediction:  0-non 1-charg 2-wave 3-comb
   ISYM   =      2    0-nonsym 1-usesym 2-fastsym
   LCORR  =      T    Harris-Foulkes like correction to forces

   POTIM  = 0.5000    time-step for ionic-motion
   TEIN   =    0.0    initial temperature
   TEBEG  =    0.0;   TEEND  =   0.0 temperature during run
   SMASS  =  -3.00    Nose mass-parameter (am)
   estimated Nose-frequenzy (Omega)   =  0.10E-29 period in steps = 0.13E+47 mass=  -0.347E-26a.u.
   SCALEE = 1.0000    scale energy and forces
   NPACO  =    256;   APACO  = 16.0  distance and # of slots for P.C.
   PSTRESS=    0.0 pullay stress

  Mass of Ions in am
   POMASS =  12.01 16.00
  Ionic Valenz
   ZVAL   =   4.00  6.00
  Atomic Wigner-Seitz radii
   RWIGS  =  -1.00 -1.00
  virtual crystal weights 
   VCA    =   1.00  1.00
   NELECT =     216.0000    total number of electrons
   NUPDOWN=      -1.0000    fix difference up-down

 DOS related values:
   EMIN   =  10.00;   EMAX   =-10.00  energy-range for DOS
   EFERMI =   0.00
   ISMEAR =     0;   SIGMA  =   0.01  broadening in eV -4-tet -1-fermi 0-gaus

 Electronic relaxation 2 (details)
   IALGO  =     58    algorithm
   LDIAG  =      T    sub-space diagonalisation (order eigenvalues)
   LSUBROT=      F    optimize rotation matrix (better conditioning)
   TURBO    =      0    0=normal 1=particle mesh
   IRESTART =      0    0=no restart 2=restart with 2 vectors
   NREBOOT  =      0    no. of reboots
   NMIN     =      0    reboot dimension
   EREF     =   0.00    reference energy to select bands
   IMIX   =      4    mixing-type and parameters
     AMIX     =   0.40;   BMIX     =  1.00
     AMIX_MAG =   1.60;   BMIX_MAG =  1.00
     AMIN     =   0.10
     WC   =   100.;   INIMIX=   1;  MIXPRE=   1;  MAXMIX= -45

 Intra band minimization:
   WEIMIN = 0.0000     energy-eigenvalue tresh-hold
   EBREAK =  0.18E-08  absolut break condition
   DEPER  =   0.30     relativ break condition  

   TIME   =   0.40     timestep for ELM

  volume/ion in A,a.u.               =      49.64       335.01
  Fermi-wavevector in a.u.,A,eV,Ry     =   0.711510  1.344560  6.887909  0.506247
  Thomas-Fermi vector in A             =   1.798641
 
 Write flags
   LWAVE        =      F    write WAVECAR
   LDOWNSAMPLE  =      F    k-point downsampling of WAVECAR
   LCHARG       =      T    write CHGCAR
   LVTOT        =      F    write LOCPOT, total local potential
   LVHAR        =      F    write LOCPOT, Hartree potential only
   LELF         =      F    write electronic localiz. function (ELF)
   LORBIT       =      0    0 simple, 1 ext, 2 COOP (PROOUT), +10 PAW based schemes


 Dipole corrections
   LMONO  =      F    monopole corrections only (constant potential shift)
   LDIPOL =      F    correct potential (dipole corrections)
   IDIPOL =      0    1-x, 2-y, 3-z, 4-all directions 
   EPSILON=  1.0000000 bulk dielectric constant

 Exchange correlation treatment:
   GGA     =    --    GGA type
   LEXCH   =     8    internal setting for exchange type
   VOSKOWN=      0    Vosko Wilk Nusair interpolation
   LHFCALC =     F    Hartree Fock is set to
   LHFONE  =     F    Hartree Fock one center treatment
   AEXX    =    0.0000 exact exchange contribution

 Linear response parameters
   LEPSILON=     F    determine dielectric tensor
   LRPA    =     F    only Hartree local field effects (RPA)
   LNABLA  =     F    use nabla operator in PAW spheres
   LVEL    =     F    velocity operator in full k-point grid
   LINTERFAST=   F  fast interpolation
   KINTER  =     0    interpolate to denser k-point grid
   CSHIFT  =0.1000    complex shift for real part using Kramers Kronig
   OMEGAMAX=  -1.0    maximum frequency
   DEG_THRESHOLD= 0.2000000E-02 threshold for treating states as degnerate
   RTIME   =   -0.100 relaxation time in fs
  (WPLASMAI=    0.000 imaginary part of plasma frequency in eV, 0.658/RTIME)
   DFIELD  = 0.0000000 0.0000000 0.0000000 field for delta impulse in time
 
 Orbital magnetization related:
   ORBITALMAG=     F  switch on orbital magnetization
   LCHIMAG   =     F  perturbation theory with respect to B field
   DQ        =  0.001000  dq finite difference perturbation B field
   LLRAUG    =     F  two centre corrections for induced B field



--------------------------------------------------------------------------------------------------------


 Static calculation
 charge density and potential will be updated during run
 non-spin polarized calculation
 Conjugate gradient for all bands (Freysoldt, et al. PRB 79, 241103 (2009))
 preconditioned conjugated gradient                                        
 perform sub-space diagonalisation
    before iterative eigenvector-optimisation
 modified Broyden-mixing scheme, WC =      100.0
 initial mixing is a Kerker type mixing with AMIX =  0.4000 and BMIX =      1.0000
 Hartree-type preconditioning will be used
 using additional bands           32
 reciprocal scheme for non local part
 use partial core corrections
 no Harris-corrections to forces 
 use gradient corrections 
 use of overlap-Matrix (Vanderbilt PP)
 Gauss-broadening in eV      SIGMA  =   0.01


--------------------------------------------------------------------------------------------------------


  energy-cutoff  :     1000.00
  volume of cell :     2631.08
      direct lattice vectors                 reciprocal lattice vectors
    12.325000000  0.000000000  0.000000000     0.081135903  0.046843835  0.000000000
    -6.162500000 10.673763102  0.000000000     0.000000000  0.093687670  0.000000000
     0.000000000  0.000000000 20.000000000     0.000000000  0.000000000  0.050000000

  length of vectors
    12.325000000 12.325000000 20.000000000     0.093687670  0.093687670  0.050000000


 
 k-points in units of 2pi/SCALE and weight: auto                                    
   0.00000000  0.00000000  0.00000000       1.000
 
 k-points in reciprocal lattice and weights: auto                                    
   0.00000000  0.00000000  0.00000000       1.000
 
 position of ions in fractional coordinates (direct lattice) 
   0.97245084  0.00032082  0.00070839
   0.03911838  0.13365950  0.00055022
   0.17244363  0.00029545  0.00062454
   0.23909628  0.13364792  0.00032058
   0.97245206  0.20032201  0.00060652
   0.03912836  0.33364377  0.00055519
   0.17245176  0.20035455  0.00027396
   0.23912436  0.33366572  0.00009033
   0.37246557  0.00032440  0.00056739
   0.43913747  0.13361994  0.00032292
   0.97244982  0.40030936  0.00068451
   0.03912498  0.53363679  0.00071676
   0.37241618  0.40032948  0.00000000
   0.43909960  0.53363898  0.00029052
   0.57244368  0.00031213  0.00069947
   0.63911021  0.13363175  0.00068409
   0.97245270  0.60030565  0.00080036
   0.03912449  0.73364036  0.00081814
   0.57243347  0.60030624  0.00050362
   0.63911189  0.73364188  0.00065988
   0.17245463  0.40031823  0.00036131
   0.23912018  0.53363655  0.00047314
   0.37245975  0.20029599  0.00011125
   0.43910710  0.33367342  0.00006970
   0.17245216  0.60031151  0.00065542
   0.23912337  0.73363857  0.00071891
   0.57243108  0.20028917  0.00051662
   0.63911277  0.33361863  0.00057797
   0.37243981  0.60030802  0.00045356
   0.43911609  0.73363786  0.00061774
   0.57246936  0.40032050  0.00042490
   0.63911941  0.53365087  0.00057451
   0.77244572  0.00031543  0.00074520
   0.83911628  0.13364020  0.00071913
   0.77244051  0.20030743  0.00072629
   0.83912024  0.33363573  0.00073183
   0.77244632  0.40029837  0.00072872
   0.83911898  0.53363396  0.00077638
   0.77245614  0.60030817  0.00074464
   0.83911503  0.73364318  0.00078939
   0.97245531  0.80030558  0.00081529
   0.03911471  0.93364329  0.00074756
   0.17245797  0.80031221  0.00077922
   0.23913455  0.93364719  0.00068106
   0.37245140  0.80031667  0.00068925
   0.43912449  0.93364477  0.00067679
   0.57244110  0.80031005  0.00066817
   0.63911507  0.93363899  0.00073456
   0.77244510  0.80031319  0.00075258
   0.83911661  0.93364434  0.00075854
   0.37302101  0.25122688  0.47193716
   0.42087980  0.18931315  0.47515825
   0.32515698  0.31316719  0.46896441
 
 position of ions in cartesian coordinates  (Angst):
  11.98347958  0.00342433  0.01416777
  -0.34154264  1.42664989  0.01100432
   2.12354700  0.00315355  0.01249070
   2.12325634  1.42652621  0.00641170
  10.75098721  2.13818970  0.01213047
  -1.57382270  3.56123457  0.01110375
   0.89078307  2.13853702  0.00547917
   0.89099273  3.56146885  0.00180651
   4.58863896  0.00346260  0.01134782
   4.58893648  1.42622757  0.00645846
   9.51853763  4.27280730  0.01369027
  -2.80632132  5.69591267  0.01433526
   2.12299894  4.27302204  0.00000000
   2.12335237  5.69593607  0.00581036
   7.05344483  0.00333155  0.01398950
   7.05352764  1.42635365  0.01368187
   8.28609598  6.40752033  0.01600723
  -4.03884931  7.83070339  0.01636283
   3.35585531  6.40752662  0.01007237
   3.35598594  7.83071962  0.01319763
  -0.34145776  4.27290193  0.00722612
  -0.34137895  5.69591010  0.00946273
   3.35624236  2.13791198  0.00222492
   3.35573251  3.56155103  0.00139405
  -1.57394684  6.40758280  0.01310850
  -1.57385216  7.83068434  0.01437823
   5.82093107  2.13783916  0.01033241
   5.82114012  3.56096622  0.01155939
   0.89092245  6.40754561  0.00907111
   0.89106251  7.83067670  0.01235474
   4.58870974  4.27292622  0.00849795
   4.58852320  5.69606300  0.01149026
   9.51844972  0.00336679  0.01490402
   9.51855036  1.42644387  0.01438264
   8.28593477  2.13803408  0.01452582
   8.28612680  3.56114872  0.01463668
   7.05356221  4.27268994  0.01457444
   7.05362213  5.69588251  0.01552751
   5.82112285  6.40754723  0.01489279
   5.82101669  7.83073350  0.01578780
   7.05362858  8.54227219  0.01630582
  -5.27148792  9.96548729  0.01495127
  -2.80637951  8.54234295  0.01558431
  -2.80626749  9.96552896  0.01362126
  -0.34148805  8.54239058  0.01378498
  -0.34137657  9.96550309  0.01353576
   2.12342586  8.54231992  0.01336337
   2.12354296  9.96544135  0.01469111
   4.58845581  8.54235337  0.01505154
   4.58852904  9.96549848  0.01517076
   3.04929830  2.68153618  9.43874313
   4.02070129  2.02068374  9.50316499
   2.07766701  3.34267235  9.37928826
 


--------------------------------------------------------------------------------------------------------


 k-point   1 :   0.0000 0.0000 0.0000  plane waves:  189031

 maximum and minimum number of plane-waves per node :     47262    47254

 maximum number of plane-waves:    189031
 maximum index in each direction: 
   IXMAX=   31   IYMAX=   31   IZMAX=   51
   IXMIN=  -31   IYMIN=  -31   IZMIN=  -51


 parallel 3D FFT for wavefunctions:
    minimum data exchange during FFTs selected (reduces bandwidth)
 parallel 3D FFT for charge:
    minimum data exchange during FFTs selected (reduces bandwidth)


 total amount of memory used by VASP MPI-rank0   175916. kBytes
=======================================================================

   base      :      30000. kBytes
   nonl-proj :      46129. kBytes
   fftplans  :      35778. kBytes
   grid      :      52596. kBytes
   one-center:         43. kBytes
   wavefun   :      11370. kBytes
 
     INWAV:  cpu time    0.0000: real time    0.0000
 Broyden mixing: mesh for mixing (old mesh)
   NGX = 63   NGY = 63   NGZ =103
  (NGX  =256   NGY  =256   NGZ  =420)
  gives a total of 408807 points

 initial charge density was supplied:
 charge density of overlapping atoms calculated
 number of electron     216.0000000 magnetization 
 keeping initial charge density in first step


--------------------------------------------------------------------------------------------------------


 Maximum index for augmentation-charges          459 (set IRDMAX)


--------------------------------------------------------------------------------------------------------


 First call to EWALD:  gamma=   0.128
 Maximum number of real-space cells 3x 3x 2
 Maximum number of reciprocal cells 3x 3x 4

    FEWALD:  cpu time    0.0024: real time    0.0025


--------------------------------------- Iteration      1(   1)  ---------------------------------------


    POTLOK:  cpu time    0.2945: real time    0.2977
    SETDIJ:  cpu time    0.0057: real time    0.0058
    TRIAL :  cpu time    4.1612: real time    4.2133
    CORREC:  cpu time    0.0006: real time    0.0008
    --------------------------------------------
      LOOP:  cpu time    4.4683: real time    4.5294

 eigenvalue-minimisations  :   280
 total energy-change (2. order) : 0.2659856E+04  (-0.1114132E+05)
 number of electron     216.0000000 magnetization 
 augmentation part      216.0000000 magnetization 

 Free energy of the ion-electron system (eV)
  ---------------------------------------------------
  alpha Z        PSCENC =        59.93625244
  Ewald energy   TEWEN  =     29245.76022916
  -Hartree energ DENC   =    -35421.21856181
  -exchange      EXHF   =         0.00000000
  -V(xc)+E(xc)   XCENC  =       420.79817365
  PAW double counting   =      6525.96553977    -6260.36035765
  entropy T*S    EENTRO =        -0.00000000
  eigenvalues    EBANDS =      -280.54909620
  atomic energy  EATOM  =      8369.52358910
  ---------------------------------------------------
  free energy    TOTEN  =      2659.85576846 eV

  energy without entropy =     2659.85576846  energy(sigma->0) =     2659.85576846


--------------------------------------------------------------------------------------------------------




--------------------------------------- Iteration      1(   2)  ---------------------------------------


    TRIAL :  cpu time    6.6725: real time    6.7511
    CORREC:  cpu time    0.0001: real time    0.0001
    --------------------------------------------
      LOOP:  cpu time    6.6981: real time    6.7801

 eigenvalue-minimisations  :   504
 total energy-change (2. order) :-0.2478561E+04  (-0.2359994E+04)
 number of electron     216.0000000 magnetization 
 augmentation part      216.0000000 magnetization 

 Free energy of the ion-electron system (eV)
  ---------------------------------------------------
  alpha Z        PSCENC =        59.93625244
  Ewald energy   TEWEN  =     29245.76022916
  -Hartree energ DENC   =    -35421.21856181
  -exchange      EXHF   =         0.00000000
  -V(xc)+E(xc)   XCENC  =       420.79817365
  PAW double counting   =      6525.96553977    -6260.36035765
  entropy T*S    EENTRO =        -0.00000000
  eigenvalues    EBANDS =     -2759.10994296
  atomic energy  EATOM  =      8369.52358910
  ---------------------------------------------------
  free energy    TOTEN  =       181.29492170 eV

  energy without entropy =      181.29492170  energy(sigma->0) =      181.29492170


--------------------------------------------------------------------------------------------------------




--------------------------------------- Iteration      1(   3)  ---------------------------------------


    TRIAL :  cpu time    5.0915: real time    5.1416
    CORREC:  cpu time    0.0001: real time    0.0001
    --------------------------------------------
      LOOP:  cpu time    5.1607: real time    5.2137

 eigenvalue-minimisations  :   364
 total energy-change (2. order) :-0.6649900E+03  (-0.6622373E+03)
 number of electron     216.0000000 magnetization 
 augmentation part      216.0000000 magnetization 

 Free energy of the ion-electron system (eV)
  ---------------------------------------------------
  alpha Z        PSCENC =        59.93625244
  Ewald energy   TEWEN  =     29245.76022916
  -Hartree energ DENC   =    -35421.21856181
  -exchange      EXHF   =         0.00000000
  -V(xc)+E(xc)   XCENC  =       420.79817365
  PAW double counting   =      6525.96553977    -6260.36035765
  entropy T*S    EENTRO =        -0.00000000
  eigenvalues    EBANDS =     -3424.09995038
  atomic energy  EATOM  =      8369.52358910
  ---------------------------------------------------
  free energy    TOTEN  =      -483.69508572 eV

  energy without entropy =     -483.69508572  energy(sigma->0) =     -483.69508572


--------------------------------------------------------------------------------------------------------




--------------------------------------- Iteration      1(   4)  ---------------------------------------


    TRIAL :  cpu time    5.3976: real time    5.4584
    CORREC:  cpu time    0.0001: real time    0.0001
    --------------------------------------------
      LOOP:  cpu time    5.4569: real time    5.5320

 eigenvalue-minimisations  :   392
 total energy-change (2. order) :-0.3364134E+02  (-0.3351940E+02)
 number of electron     216.0000000 magnetization 
 augmentation part      216.0000000 magnetization 

 Free energy of the ion-electron system (eV)
  ---------------------------------------------------
  alpha Z        PSCENC =        59.93625244
  Ewald energy   TEWEN  =     29245.76022916
  -Hartree energ DENC   =    -35421.21856181
  -exchange      EXHF   =         0.00000000
  -V(xc)+E(xc)   XCENC  =       420.79817365
  PAW double counting   =      6525.96553977    -6260.36035765
  entropy T*S    EENTRO =        -0.00000000
  eigenvalues    EBANDS =     -3457.74129005
  atomic energy  EATOM  =      8369.52358910
  ---------------------------------------------------
  free energy    TOTEN  =      -517.33642539 eV

  energy without entropy =     -517.33642539  energy(sigma->0) =     -517.33642539


--------------------------------------------------------------------------------------------------------




--------------------------------------- Iteration      1(   5)  ---------------------------------------


    TRIAL :  cpu time    5.7134: real time    5.7711
    CORREC:  cpu time    0.0001: real time    0.0001
    CHARGE:  cpu time    0.2339: real time    0.2461
    --------------------------------------------
      LOOP:  cpu time    6.0296: real time    6.1019

 eigenvalue-minimisations  :   420
 total energy-change (2. order) :-0.7126316E+00  (-0.7109842E+00)
 number of electron     216.0000000 magnetization 
 augmentation part       -0.2630245 magnetization 

 Free energy of the ion-electron system (eV)
  ---------------------------------------------------
  alpha Z        PSCENC =        59.93625244
  Ewald energy   TEWEN  =     29245.76022916
  -Hartree energ DENC   =    -35421.21856181
  -exchange      EXHF   =         0.00000000
  -V(xc)+E(xc)   XCENC  =       420.79817365
  PAW double counting   =      6525.96553977    -6260.36035765
  entropy T*S    EENTRO =        -0.00000000
  eigenvalues    EBANDS =     -3458.45392164
  atomic energy  EATOM  =      8369.52358910
  ---------------------------------------------------
  free energy    TOTEN  =      -518.04905698 eV

  energy without entropy =     -518.04905698  energy(sigma->0) =     -518.04905698


--------------------------------------------------------------------------------------------------------




--------------------------------------- Iteration      1(   6)  ---------------------------------------


    POTLOK:  cpu time    0.2756: real time    0.2780
    SETDIJ:  cpu time    0.0031: real time    0.0031
    TRIAL :  cpu time    2.0183: real time    2.0395
    CORREC:  cpu time    0.8053: real time    0.8129
    CHARGE:  cpu time    0.2341: real time    0.2360
    --------------------------------------------
      LOOP:  cpu time    3.4089: real time    3.4431

 eigenvalue-minimisations  :     0
 total energy-change (2. order) : 0.5134687E+02  (-0.1548793E+02)
 number of electron     216.0000000 magnetization 
 augmentation part       -0.3638833 magnetization 

 Free energy of the ion-electron system (eV)
  ---------------------------------------------------
  alpha Z        PSCENC =        59.93625244
  Ewald energy   TEWEN  =     29245.76022916
  -Hartree energ DENC   =    -36830.81515181
  -exchange      EXHF   =         0.00000000
  -V(xc)+E(xc)   XCENC  =       469.00860585
  PAW double counting   =     89477.89894752   -89220.58119828
  entropy T*S    EENTRO =        -0.00000000
  eigenvalues    EBANDS =     -2037.43346434
  atomic energy  EATOM  =      8369.52358910
  ---------------------------------------------------
  free energy    TOTEN  =      -466.70219036 eV

  energy without entropy =     -466.70219036  energy(sigma->0) =     -466.70219036


--------------------------------------------------------------------------------------------------------




--------------------------------------- Iteration      1(   7)  ---------------------------------------


    POTLOK:  cpu time    0.2721: real time    0.2744
    SETDIJ:  cpu time    0.0028: real time    0.0028
    TRIAL :  cpu time    2.0123: real time    2.0332
    CORREC:  cpu time    0.8032: real time    0.8109
    CHARGE:  cpu time    0.2336: real time    0.2355
    --------------------------------------------
      LOOP:  cpu time    3.3493: real time    3.4315

 eigenvalue-minimisations  :     0
 total energy-change (2. order) :-0.1553155E+02  (-0.1817408E+01)
 number of electron     216.0000000 magnetization 
 augmentation part       -0.4117931 magnetization 

 Free energy of the ion-electron system (eV)
  ---------------------------------------------------
  alpha Z        PSCENC =        59.93625244
  Ewald energy   TEWEN  =     29245.76022916
  -Hartree energ DENC   =    -36330.14219551
  -exchange      EXHF   =         0.00000000
  -V(xc)+E(xc)   XCENC  =       451.88023230
  PAW double counting   =    105696.38432404  -105436.23827434
  entropy T*S    EENTRO =        -0.00000000
  eigenvalues    EBANDS =     -2539.33789543
  atomic energy  EATOM  =      8369.52358910
  ---------------------------------------------------
  free energy    TOTEN  =      -482.23373823 eV

  energy without entropy =     -482.23373823  energy(sigma->0) =     -482.23373823


--------------------------------------------------------------------------------------------------------




--------------------------------------- Iteration      1(   8)  ---------------------------------------


    POTLOK:  cpu time    0.2718: real time    0.2739
    SETDIJ:  cpu time    0.0027: real time    0.0027
    TRIAL :  cpu time    2.0202: real time    2.0444
    CORREC:  cpu time    0.8052: real time    0.8124
    CHARGE:  cpu time    0.2339: real time    0.2360
    --------------------------------------------
      LOOP:  cpu time    3.4289: real time    3.4656

 eigenvalue-minimisations  :     0
 total energy-change (2. order) :-0.1815734E+01  (-0.4680105E+00)
 number of electron     216.0000000 magnetization 
 augmentation part       -0.4293855 magnetization 

 Free energy of the ion-electron system (eV)
  ---------------------------------------------------
  alpha Z        PSCENC =        59.93625244
  Ewald energy   TEWEN  =     29245.76022916
  -Hartree energ DENC   =    -36302.00422504
  -exchange      EXHF   =         0.00000000
  -V(xc)+E(xc)   XCENC  =       451.32309118
  PAW double counting   =    110109.93660783  -109849.37969521
  entropy T*S    EENTRO =        -0.00000000
  eigenvalues    EBANDS =     -2569.14532120
  atomic energy  EATOM  =      8369.52358910
  ---------------------------------------------------
  free energy    TOTEN  =      -484.04947174 eV

  energy without entropy =     -484.04947174  energy(sigma->0) =     -484.04947174


--------------------------------------------------------------------------------------------------------




--------------------------------------- Iteration      1(   9)  ---------------------------------------


    POTLOK:  cpu time    0.2731: real time    0.2751
    SETDIJ:  cpu time    0.0028: real time    0.0028
    TRIAL :  cpu time    2.0183: real time    2.0385
    CORREC:  cpu time    0.8039: real time    0.8136
    CHARGE:  cpu time    0.2343: real time    0.2360
    --------------------------------------------
      LOOP:  cpu time    3.3694: real time    3.4333

 eigenvalue-minimisations  :     0
 total energy-change (2. order) :-0.4678930E+00  (-0.1503126E+00)
 number of electron     216.0000000 magnetization 
 augmentation part       -0.4372046 magnetization 

 Free energy of the ion-electron system (eV)
  ---------------------------------------------------
  alpha Z        PSCENC =        59.93625244
  Ewald energy   TEWEN  =     29245.76022916
  -Hartree energ DENC   =    -36319.02753652
  -exchange      EXHF   =         0.00000000
  -V(xc)+E(xc)   XCENC  =       451.55651719
  PAW double counting   =    112915.30980416  -112654.60121923
  entropy T*S    EENTRO =        -0.00000000
  eigenvalues    EBANDS =     -2552.97500108
  atomic energy  EATOM  =      8369.52358910
  ---------------------------------------------------
  free energy    TOTEN  =      -484.51736477 eV

  energy without entropy =     -484.51736477  energy(sigma->0) =     -484.51736477


--------------------------------------------------------------------------------------------------------




--------------------------------------- Iteration      1(  10)  ---------------------------------------


    POTLOK:  cpu time    0.2723: real time    0.2742
    SETDIJ:  cpu time    0.0029: real time    0.0029
    TRIAL :  cpu time    2.0157: real time    2.0362
    CORREC:  cpu time    0.8026: real time    0.8105
    CHARGE:  cpu time    0.2339: real time    0.2359
    --------------------------------------------
      LOOP:  cpu time    3.4058: real time    3.4397

 eigenvalue-minimisations  :     0
 total energy-change (2. order) :-0.1501273E+00  (-0.6191064E-01)
 number of electron     216.0000000 magnetization 
 augmentation part       -0.4380065 magnetization 

 Free energy of the ion-electron system (eV)
  ---------------------------------------------------
  alpha Z        PSCENC =        59.93625244
  Ewald energy   TEWEN  =     29245.76022916
  -Hartree energ DENC   =    -36320.24572483
  -exchange      EXHF   =         0.00000000
  -V(xc)+E(xc)   XCENC  =       451.48579099
  PAW double counting   =    113439.15662748  -113178.36163833
  entropy T*S    EENTRO =        -0.00000000
  eigenvalues    EBANDS =     -2551.92261804
  atomic energy  EATOM  =      8369.52358910
  ---------------------------------------------------
  free energy    TOTEN  =      -484.66749204 eV

  energy without entropy =     -484.66749204  energy(sigma->0) =     -484.66749204


--------------------------------------------------------------------------------------------------------




--------------------------------------- Iteration      1(  11)  ---------------------------------------


    POTLOK:  cpu time    0.2739: real time    0.2759
    SETDIJ:  cpu time    0.0028: real time    0.0028
    TRIAL :  cpu time    2.0150: real time    2.0358
    CORREC:  cpu time    0.8120: real time    0.8192
    CHARGE:  cpu time    0.2336: real time    0.2354
    --------------------------------------------
      LOOP:  cpu time    3.4336: real time    3.4664

 eigenvalue-minimisations  :     0
 total energy-change (2. order) :-0.6177232E-01  (-0.2615644E-01)
 number of electron     216.0000000 magnetization 
 augmentation part       -0.4376395 magnetization 

 Free energy of the ion-electron system (eV)
  ---------------------------------------------------
  alpha Z        PSCENC =        59.93625244
  Ewald energy   TEWEN  =     29245.76022916
  -Hartree energ DENC   =    -36316.18975411
  -exchange      EXHF   =         0.00000000
  -V(xc)+E(xc)   XCENC  =       451.42863106
  PAW double counting   =    112990.39373133  -112729.59585453
  entropy T*S    EENTRO =        -0.00000000
  eigenvalues    EBANDS =     -2555.98608881
  atomic energy  EATOM  =      8369.52358910
  ---------------------------------------------------
  free energy    TOTEN  =      -484.72926436 eV

  energy without entropy =     -484.72926436  energy(sigma->0) =     -484.72926436


--------------------------------------------------------------------------------------------------------




--------------------------------------- Iteration      1(  12)  ---------------------------------------


    POTLOK:  cpu time    0.2728: real time    0.2747
    SETDIJ:  cpu time    0.0029: real time    0.0030
    TRIAL :  cpu time    2.0178: real time    2.0380
    CORREC:  cpu time    0.8025: real time    0.8126
    CHARGE:  cpu time    0.2342: real time    0.2360
    --------------------------------------------
      LOOP:  cpu time    3.4010: real time    3.4394

 eigenvalue-minimisations  :     0
 total energy-change (2. order) :-0.2605513E-01  (-0.8929992E-02)
 number of electron     216.0000000 magnetization 
 augmentation part       -0.4377627 magnetization 

 Free energy of the ion-electron system (eV)
  ---------------------------------------------------
  alpha Z        PSCENC =        59.93625244
  Ewald energy   TEWEN  =     29245.76022916
  -Hartree energ DENC   =    -36314.35325674
  -exchange      EXHF   =         0.00000000
  -V(xc)+E(xc)   XCENC  =       451.39293174
  PAW double counting   =    112592.77729336  -112332.00133706
  entropy T*S    EENTRO =        -0.00000000
  eigenvalues    EBANDS =     -2557.79102149
  atomic energy  EATOM  =      8369.52358910
  ---------------------------------------------------
  free energy    TOTEN  =      -484.75531949 eV

  energy without entropy =     -484.75531949  energy(sigma->0) =     -484.75531949


--------------------------------------------------------------------------------------------------------




--------------------------------------- Iteration      1(  13)  ---------------------------------------


    POTLOK:  cpu time    0.2729: real time    0.2749
    SETDIJ:  cpu time    0.0029: real time    0.0029
    TRIAL :  cpu time    2.0166: real time    2.0369
    CORREC:  cpu time    0.8061: real time    0.8134
    CHARGE:  cpu time    0.2345: real time    0.2363
    --------------------------------------------
      LOOP:  cpu time    3.4044: real time    3.4400

 eigenvalue-minimisations  :     0
 total energy-change (2. order) :-0.8913313E-02  (-0.2599874E-02)
 number of electron     216.0000000 magnetization 
 augmentation part       -0.4373424 magnetization 

 Free energy of the ion-electron system (eV)
  ---------------------------------------------------
  alpha Z        PSCENC =        59.93625244
  Ewald energy   TEWEN  =     29245.76022916
  -Hartree energ DENC   =    -36314.36905241
  -exchange      EXHF   =         0.00000000
  -V(xc)+E(xc)   XCENC  =       451.38154505
  PAW double counting   =    112474.33610030  -112213.57012087
  entropy T*S    EENTRO =        -0.00000000
  eigenvalues    EBANDS =     -2557.76277558
  atomic energy  EATOM  =      8369.52358910
  ---------------------------------------------------
  free energy    TOTEN  =      -484.76423280 eV

  energy without entropy =     -484.76423280  energy(sigma->0) =     -484.76423280


--------------------------------------------------------------------------------------------------------




--------------------------------------- Iteration      1(  14)  ---------------------------------------


    POTLOK:  cpu time    0.2729: real time    0.2750
    SETDIJ:  cpu time    0.0029: real time    0.0029
    TRIAL :  cpu time    2.0156: real time    2.0357
    CORREC:  cpu time    0.8034: real time    0.8105
    CHARGE:  cpu time    0.2346: real time    0.2364
    --------------------------------------------
      LOOP:  cpu time    3.3752: real time    3.4070

 eigenvalue-minimisations  :     0
 total energy-change (2. order) :-0.2601889E-02  (-0.7479059E-03)
 number of electron     216.0000000 magnetization 
 augmentation part       -0.4370881 magnetization 

 Free energy of the ion-electron system (eV)
  ---------------------------------------------------
  alpha Z        PSCENC =        59.93625244
  Ewald energy   TEWEN  =     29245.76022916
  -Hartree energ DENC   =    -36314.43705599
  -exchange      EXHF   =         0.00000000
  -V(xc)+E(xc)   XCENC  =       451.38215565
  PAW double counting   =    112509.90299391  -112249.13994102
  entropy T*S    EENTRO =        -0.00000000
  eigenvalues    EBANDS =     -2557.69505794
  atomic energy  EATOM  =      8369.52358910
  ---------------------------------------------------
  free energy    TOTEN  =      -484.76683469 eV

  energy without entropy =     -484.76683469  energy(sigma->0) =     -484.76683469


--------------------------------------------------------------------------------------------------------




--------------------------------------- Iteration      1(  15)  ---------------------------------------


    POTLOK:  cpu time    0.2735: real time    0.2754
    SETDIJ:  cpu time    0.0030: real time    0.0030
    TRIAL :  cpu time    2.0170: real time    2.0373
    CORREC:  cpu time    0.7979: real time    0.8088
    CHARGE:  cpu time    0.2339: real time    0.2359
    --------------------------------------------
      LOOP:  cpu time    3.3938: real time    3.4348

 eigenvalue-minimisations  :     0
 total energy-change (2. order) :-0.7503677E-03  (-0.2740970E-03)
 number of electron     216.0000000 magnetization 
 augmentation part       -0.4367334 magnetization 

 Free energy of the ion-electron system (eV)
  ---------------------------------------------------
  alpha Z        PSCENC =        59.93625244
  Ewald energy   TEWEN  =     29245.76022916
  -Hartree energ DENC   =    -36314.11347134
  -exchange      EXHF   =         0.00000000
  -V(xc)+E(xc)   XCENC  =       451.36725331
  PAW double counting   =    112534.86311500  -112274.09819437
  entropy T*S    EENTRO =        -0.00000000
  eigenvalues    EBANDS =     -2558.00635836
  atomic energy  EATOM  =      8369.52358910
  ---------------------------------------------------
  free energy    TOTEN  =      -484.76758506 eV

  energy without entropy =     -484.76758506  energy(sigma->0) =     -484.76758506


--------------------------------------------------------------------------------------------------------




--------------------------------------- Iteration      1(  16)  ---------------------------------------


    POTLOK:  cpu time    0.2721: real time    0.2740
    SETDIJ:  cpu time    0.0030: real time    0.0030
    TRIAL :  cpu time    2.0156: real time    2.0357
    CORREC:  cpu time    0.8016: real time    0.8089
    CHARGE:  cpu time    0.2346: real time    0.2364
    --------------------------------------------
      LOOP:  cpu time    3.4046: real time    3.4374

 eigenvalue-minimisations  :     0
 total energy-change (2. order) :-0.2760377E-03  (-0.1071410E-03)
 number of electron     216.0000000 magnetization 
 augmentation part       -0.4365209 magnetization 

 Free energy of the ion-electron system (eV)
  ---------------------------------------------------
  alpha Z        PSCENC =        59.93625244
  Ewald energy   TEWEN  =     29245.76022916
  -Hartree energ DENC   =    -36314.23123630
  -exchange      EXHF   =         0.00000000
  -V(xc)+E(xc)   XCENC  =       451.37193041
  PAW double counting   =    112506.52397766  -112245.75992205
  entropy T*S    EENTRO =        -0.00000000
  eigenvalues    EBANDS =     -2557.89268153
  atomic energy  EATOM  =      8369.52358910
  ---------------------------------------------------
  free energy    TOTEN  =      -484.76786109 eV

  energy without entropy =     -484.76786109  energy(sigma->0) =     -484.76786109


--------------------------------------------------------------------------------------------------------




--------------------------------------- Iteration      1(  17)  ---------------------------------------


    POTLOK:  cpu time    0.2735: real time    0.2753
    SETDIJ:  cpu time    0.0030: real time    0.0030
    TRIAL :  cpu time    2.0156: real time    2.0358
    CORREC:  cpu time    0.8025: real time    0.8096
    CHARGE:  cpu time    0.2335: real time    0.2352
    --------------------------------------------
      LOOP:  cpu time    3.3594: real time    3.4013

 eigenvalue-minimisations  :     0
 total energy-change (2. order) :-0.1082153E-03  (-0.4379483E-04)
 number of electron     216.0000000 magnetization 
 augmentation part       -0.4365196 magnetization 

 Free energy of the ion-electron system (eV)
  ---------------------------------------------------
  alpha Z        PSCENC =        59.93625244
  Ewald energy   TEWEN  =     29245.76022916
  -Hartree energ DENC   =    -36314.34346722
  -exchange      EXHF   =         0.00000000
  -V(xc)+E(xc)   XCENC  =       451.37547320
  PAW double counting   =    112469.45473548  -112208.69118211
  entropy T*S    EENTRO =        -0.00000000
  eigenvalues    EBANDS =     -2557.78359936
  atomic energy  EATOM  =      8369.52358910
  ---------------------------------------------------
  free energy    TOTEN  =      -484.76796931 eV

  energy without entropy =     -484.76796931  energy(sigma->0) =     -484.76796931


--------------------------------------------------------------------------------------------------------




--------------------------------------- Iteration      1(  18)  ---------------------------------------


    POTLOK:  cpu time    0.2735: real time    0.2757
    SETDIJ:  cpu time    0.0032: real time    0.0032
    TRIAL :  cpu time    2.0176: real time    2.0438
    CORREC:  cpu time    0.8026: real time    0.8098
    CHARGE:  cpu time    0.2341: real time    0.2359
    --------------------------------------------
      LOOP:  cpu time    3.3446: real time    3.3984

 eigenvalue-minimisations  :     0
 total energy-change (2. order) :-0.4401812E-04  (-0.1595496E-04)
 number of electron     216.0000000 magnetization 
 augmentation part       -0.4365980 magnetization 

 Free energy of the ion-electron system (eV)
  ---------------------------------------------------
  alpha Z        PSCENC =        59.93625244
  Ewald energy   TEWEN  =     29245.76022916
  -Hartree energ DENC   =    -36314.34401214
  -exchange      EXHF   =         0.00000000
  -V(xc)+E(xc)   XCENC  =       451.37508254
  PAW double counting   =    112455.06485167  -112194.30091800
  entropy T*S    EENTRO =        -0.00000000
  eigenvalues    EBANDS =     -2557.78308810
  atomic energy  EATOM  =      8369.52358910
  ---------------------------------------------------
  free energy    TOTEN  =      -484.76801333 eV

  energy without entropy =     -484.76801333  energy(sigma->0) =     -484.76801333


--------------------------------------------------------------------------------------------------------




--------------------------------------- Iteration      1(  19)  ---------------------------------------


    POTLOK:  cpu time    0.2712: real time    0.2730
    SETDIJ:  cpu time    0.0031: real time    0.0031
    TRIAL :  cpu time    2.0156: real time    2.0355
    CORREC:  cpu time    0.8030: real time    0.8101
    CHARGE:  cpu time    0.2338: real time    0.2356
    --------------------------------------------
      LOOP:  cpu time    3.4344: real time    3.4659

 eigenvalue-minimisations  :     0
 total energy-change (2. order) :-0.1563146E-04  (-0.5535982E-05)
 number of electron     216.0000000 magnetization 
 augmentation part       -0.4366865 magnetization 

 Free energy of the ion-electron system (eV)
  ---------------------------------------------------
  alpha Z        PSCENC =        59.93625244
  Ewald energy   TEWEN  =     29245.76022916
  -Hartree energ DENC   =    -36314.35747803
  -exchange      EXHF   =         0.00000000
  -V(xc)+E(xc)   XCENC  =       451.37594989
  PAW double counting   =    112458.62759804  -112197.86342738
  entropy T*S    EENTRO =        -0.00000000
  eigenvalues    EBANDS =     -2557.77074219
  atomic energy  EATOM  =      8369.52358910
  ---------------------------------------------------
  free energy    TOTEN  =      -484.76802896 eV

  energy without entropy =     -484.76802896  energy(sigma->0) =     -484.76802896


--------------------------------------------------------------------------------------------------------




--------------------------------------- Iteration      1(  20)  ---------------------------------------


    POTLOK:  cpu time    0.2699: real time    0.2719
    SETDIJ:  cpu time    0.0027: real time    0.0028
    TRIAL :  cpu time    2.0209: real time    2.0410
    CORREC:  cpu time    0.8032: real time    0.8104
    CHARGE:  cpu time    0.2345: real time    0.2364
    --------------------------------------------
      LOOP:  cpu time    3.4057: real time    3.4617

 eigenvalue-minimisations  :     0
 total energy-change (2. order) :-0.5250462E-05  (-0.1996639E-05)
 number of electron     216.0000000 magnetization 
 augmentation part       -0.4367045 magnetization 

 Free energy of the ion-electron system (eV)
  ---------------------------------------------------
  alpha Z        PSCENC =        59.93625244
  Ewald energy   TEWEN  =     29245.76022916
  -Hartree energ DENC   =    -36314.34394708
  -exchange      EXHF   =         0.00000000
  -V(xc)+E(xc)   XCENC  =       451.37495923
  PAW double counting   =    112464.25749689  -112203.49293270
  entropy T*S    EENTRO =        -0.00000000
  eigenvalues    EBANDS =     -2557.78368126
  atomic energy  EATOM  =      8369.52358910
  ---------------------------------------------------
  free energy    TOTEN  =      -484.76803421 eV

  energy without entropy =     -484.76803421  energy(sigma->0) =     -484.76803421


--------------------------------------------------------------------------------------------------------




--------------------------------------- Iteration      1(  21)  ---------------------------------------


    POTLOK:  cpu time    0.2740: real time    0.2772
    SETDIJ:  cpu time    0.0028: real time    0.0028
    TRIAL :  cpu time    1.9965: real time    2.0336
    CORREC:  cpu time    0.8021: real time    0.8093
    CHARGE:  cpu time    0.2344: real time    0.2362
    --------------------------------------------
      LOOP:  cpu time    3.3676: real time    3.4391

 eigenvalue-minimisations  :     0
 total energy-change (2. order) :-0.1793145E-05  (-0.8419535E-06)
 number of electron     216.0000000 magnetization 
 augmentation part       -0.4367212 magnetization 

 Free energy of the ion-electron system (eV)
  ---------------------------------------------------
  alpha Z        PSCENC =        59.93625244
  Ewald energy   TEWEN  =     29245.76022916
  -Hartree energ DENC   =    -36314.37030474
  -exchange      EXHF   =         0.00000000
  -V(xc)+E(xc)   XCENC  =       451.37621069
  PAW double counting   =    112466.25423978  -112205.48986010
  entropy T*S    EENTRO =        -0.00000000
  eigenvalues    EBANDS =     -2557.75839233
  atomic energy  EATOM  =      8369.52358910
  ---------------------------------------------------
  free energy    TOTEN  =      -484.76803600 eV

  energy without entropy =     -484.76803600  energy(sigma->0) =     -484.76803600


--------------------------------------------------------------------------------------------------------




--------------------------------------- Iteration      1(  22)  ---------------------------------------


    POTLOK:  cpu time    0.2722: real time    0.2740
    SETDIJ:  cpu time    0.0028: real time    0.0028
    TRIAL :  cpu time    2.0223: real time    2.0425
    CORREC:  cpu time    0.8028: real time    0.8101
    EDDIAG:  cpu time    0.4616: real time    0.4664
    CHARGE:  cpu time    0.2338: real time    0.2359
    --------------------------------------------
      LOOP:  cpu time    3.8864: real time    3.9254

 eigenvalue-minimisations  :     0
 total energy-change (2. order) :-0.8089410E-06  (-0.3834552E-06)
 number of electron     216.0000000 magnetization 
 augmentation part       -0.4367138 magnetization 

 Free energy of the ion-electron system (eV)
  ---------------------------------------------------
  alpha Z        PSCENC =        59.93625244
  Ewald energy   TEWEN  =     29245.76022916
  -Hartree energ DENC   =    -36314.35282148
  -exchange      EXHF   =         0.00000000
  -V(xc)+E(xc)   XCENC  =       451.37532836
  PAW double counting   =    112466.25936792  -112205.49488922
  entropy T*S    EENTRO =        -0.00000000
  eigenvalues    EBANDS =     -2557.77509309
  atomic energy  EATOM  =      8369.52358910
  ---------------------------------------------------
  free energy    TOTEN  =      -484.76803681 eV

  energy without entropy =     -484.76803681  energy(sigma->0) =     -484.76803681


--------------------------------------------------------------------------------------------------------


  average scaling for gradient   0.9419


 average (electrostatic) potential at core
  the test charge radii are     0.5770  0.5955
  (the norm of the test charge is              1.0000)
       1 -85.2908       2 -85.2904       3 -85.2907       4 -85.2913       5 -85.2899
       6 -85.2900       7 -85.2907       8 -85.2897       9 -85.2901      10 -85.2901
      11 -85.2900      12 -85.2899      13 -85.2902      14 -85.2901      15 -85.2898
      16 -85.2899      17 -85.2903      18 -85.2905      19 -85.2908      20 -85.2904
      21 -85.2898      22 -85.2898      23 -85.2916      24 -85.2916      25 -85.2899
      26 -85.2899      27 -85.2901      28 -85.2909      29 -85.2898      30 -85.2899
      31 -85.2910      32 -85.2905      33 -85.2900      34 -85.2900      35 -85.2901
      36 -85.2900      37 -85.2905      38 -85.2906      39 -85.2905      40 -85.2905
      41 -85.2904      42 -85.2905      43 -85.2904      44 -85.2907      45 -85.2899
      46 -85.2899      47 -85.2899      48 -85.2899      49 -85.2906      50 -85.2904
      51 -89.2288      52-120.0083      53-120.0076
 
 
 
 E-fermi :  -3.8877     XC(G=0):  -2.4318     alpha+bet : -2.1113

 Fermi energy:        -3.8876563018

 k-point     1 :       0.0000    0.0000    0.0000
  band No.  band energies     occupation 
      1     -27.3300      2.00000
      2     -26.3248      2.00000
      3     -22.0402      2.00000
      4     -21.1010      2.00000
      5     -21.0995      2.00000
      6     -21.0994      2.00000
      7     -21.0992      2.00000
      8     -21.0990      2.00000
      9     -21.0984      2.00000
     10     -19.2559      2.00000
     11     -19.2558      2.00000
     12     -19.2555      2.00000
     13     -19.2548      2.00000
     14     -19.2544      2.00000
     15     -19.2541      2.00000
     16     -18.3579      2.00000
     17     -18.3577      2.00000
     18     -18.3573      2.00000
     19     -18.3571      2.00000
     20     -18.3563      2.00000
     21     -18.3561      2.00000
     22     -16.1899      2.00000
     23     -16.1895      2.00000
     24     -16.1889      2.00000
     25     -16.1887      2.00000
     26     -16.1882      2.00000
     27     -16.1880      2.00000
     28     -15.2041      2.00000
     29     -15.2041      2.00000
     30     -15.2030      2.00000
     31     -15.2028      2.00000
     32     -15.2025      2.00000
     33     -15.2024      2.00000
     34     -13.8504      2.00000
     35     -13.8503      2.00000
     36     -13.8497      2.00000
     37     -13.8496      2.00000
     38     -13.8495      2.00000
     39     -13.8492      2.00000
     40     -12.1333      2.00000
     41     -11.4615      2.00000
     42     -11.4612      2.00000
     43     -11.4608      2.00000
     44     -11.4607      2.00000
     45     -11.4596      2.00000
     46     -11.4593      2.00000
     47     -11.3645      2.00000
     48     -11.3644      2.00000
     49     -11.3637      2.00000
     50     -11.3637      2.00000
     51     -11.3636      2.00000
     52     -11.3634      2.00000
     53     -10.9438      2.00000
     54     -10.8792      2.00000
     55     -10.8791      2.00000
     56     -10.1320      2.00000
     57      -9.9875      2.00000
     58      -9.9873      2.00000
     59      -9.9857      2.00000
     60      -9.9854      2.00000
     61      -9.9852      2.00000
     62      -9.9851      2.00000
     63      -9.0163      2.00000
     64      -9.0151      2.00000
     65      -9.0149      2.00000
     66      -9.0148      2.00000
     67      -9.0147      2.00000
     68      -9.0143      2.00000
     69      -8.7078      2.00000
     70      -8.7065      2.00000
     71      -8.7062      2.00000
     72      -8.7061      2.00000
     73      -8.7059      2.00000
     74      -8.7055      2.00000
     75      -8.6590      2.00000
     76      -8.6587      2.00000
     77      -8.6579      2.00000
     78      -8.6577      2.00000
     79      -8.6576      2.00000
     80      -8.6568      2.00000
     81      -7.3326      2.00000
     82      -7.3324      2.00000
     83      -7.0514      2.00000
     84      -7.0496      2.00000
     85      -7.0495      2.00000
     86      -7.0492      2.00000
     87      -7.0483      2.00000
     88      -7.0482      2.00000
     89      -6.8864      2.00000
     90      -6.8861      2.00000
     91      -6.8859      2.00000
     92      -6.8855      2.00000
     93      -6.8851      2.00000
     94      -6.8849      2.00000
     95      -5.9897      2.00000
     96      -5.9896      2.00000
     97      -5.9893      2.00000
     98      -5.9893      2.00000
     99      -5.9886      2.00000
    100      -5.9884      2.00000
    101      -5.5618      2.00000
    102      -5.5596      2.00000
    103      -4.0068      2.00000
    104      -4.0064      2.00000
    105      -4.0059      2.00000
    106      -4.0058      2.00000
    107      -4.0053      2.00000
    108      -4.0053      2.00000
    109      -1.2037      0.00000
    110      -1.2036      0.00000
    111      -1.2033      0.00000
    112      -1.2032      0.00000
    113      -1.2025      0.00000
    114      -1.2022      0.00000
    115       0.6531      0.00000
    116       0.6605      0.00000
    117       0.6607      0.00000
    118       0.6611      0.00000
    119       0.6611      0.00000
    120       0.6615      0.00000
    121       0.6626      0.00000
    122       0.8027      0.00000
    123       1.2803      0.00000
    124       1.5138      0.00000
    125       1.9223      0.00000
    126       2.0126      0.00000
    127       2.0137      0.00000
    128       2.0207      0.00000
    129       2.0253      0.00000
    130       2.0606      0.00000
    131       2.2249      0.00000
    132       2.4013      0.00000
    133       2.4016      0.00000
    134       2.4021      0.00000
    135       2.4037      0.00000
    136       2.4057      0.00000
    137       2.7508      0.00000
    138       2.9928      0.00000
    139       3.0738      0.00000
    140       3.5764      0.00000


--------------------------------------------------------------------------------------------------------


 soft charge-density along one line, spin component           1
         0         1         2         3         4         5         6         7         8         9
 total charge-density along one line
 
 pseudopotential strength for first ion, spin component:           1
 12.690  21.354   0.000   0.000   0.000   0.000   0.000   0.000
 21.354  35.932   0.000   0.000   0.000   0.000   0.000   0.000
  0.000   0.000  -3.164  -0.000   0.000  -5.672  -0.000   0.000
  0.000   0.000  -0.000  -3.166  -0.000  -0.000  -5.673  -0.000
  0.000   0.000   0.000  -0.000  -3.164   0.000  -0.000  -5.672
  0.000   0.000  -5.672  -0.000   0.000 -10.143  -0.000   0.000
  0.000   0.000  -0.000  -5.673  -0.000  -0.000 -10.146  -0.000
  0.000   0.000   0.000  -0.000  -5.672   0.000  -0.000 -10.143
 total augmentation occupancy for first ion, spin component:           1
  7.880  -2.765  -0.000  -0.002  -0.000   0.000   0.001   0.000
 -2.765   1.007   0.000   0.001   0.000  -0.000  -0.000  -0.000
 -0.000   0.000   7.264  -0.008   0.000  -2.462   0.003  -0.000
 -0.002   0.001  -0.008   3.235  -0.000   0.003  -0.862   0.000
 -0.000   0.000   0.000  -0.000   7.264  -0.000   0.000  -2.462
  0.000  -0.000  -2.462   0.003  -0.000   0.849  -0.001   0.000
  0.001  -0.000   0.003  -0.862   0.000  -0.001   0.236  -0.000
  0.000  -0.000  -0.000   0.000  -2.462   0.000  -0.000   0.849


------------------------ aborting loop because EDIFF is reached ----------------------------------------


    FORLOC:  cpu time    0.0502: real time    0.0507
    FORNL :  cpu time    0.7536: real time    0.7628
    FORCOR:  cpu time    0.2927: real time    0.2948
    OFIELD:  cpu time    0.0014: real time    0.0015

 ---------------------------------------------------------------------------------------------

         DFTD3 V3.0 Rev 1        
 IVDW         = 11
 DF pbe       
 parameters
 VDW_S6       =    1.0000
 VDW_S8       =    0.7220
 VDW_SR       =    1.2170
 rs18     =    1.0000
 alpha6   =   14.0000
 alpha8   =   16.0000
 k1-k3    =   16.0000    1.3333   -4.0000
 VDW_RADIUS   =   50.2022 A
 VDW_CNRADIUS =   21.1671 A
 Edisp (eV)   -1.72545

 E6    (eV) :    -0.9719
 E8    (eV) :    -0.7536
 % E8        : 43.68
    FORVDW:  cpu time    0.1838: real time    0.1858

 VOLUME and BASIS-vectors are now :
 -----------------------------------------------------------------------------
  energy-cutoff  :     1000.00
  volume of cell :     2631.08
      direct lattice vectors                 reciprocal lattice vectors
    12.325000000  0.000000000  0.000000000     0.081135903  0.046843835  0.000000000
    -6.162500000 10.673763102  0.000000000     0.000000000  0.093687670  0.000000000
     0.000000000  0.000000000 20.000000000     0.000000000  0.000000000  0.050000000

  length of vectors
    12.325000000 12.325000000 20.000000000     0.093687670  0.093687670  0.050000000


 FORCES acting on ions:
    Electron-Ion                     Ewald-Force                    Non-Local-Force
 -----------------------------------------------------------------------------------------------
   0.514E+00 0.458E+00 0.186E+01   -.515E+00 -.460E+00 -.187E+01   0.408E-02 -.596E-03 0.548E-02
   0.697E+00 0.404E+00 0.254E+01   -.699E+00 -.402E+00 -.253E+01   0.244E-02 -.293E-02 -.593E-02
   0.280E+00 0.752E+00 0.220E+01   -.281E+00 -.752E+00 -.221E+01   -.534E-04 0.111E-01 -.265E-02
   0.349E+00 0.502E+00 0.384E+01   -.347E+00 -.501E+00 -.383E+01   0.112E-01 0.696E-03 -.172E-01
   0.585E+00 0.160E+00 0.233E+01   -.584E+00 -.161E+00 -.234E+01   -.967E-03 -.501E-02 0.424E-02
   0.598E+00 -.141E+00 0.250E+01   -.600E+00 0.142E+00 -.250E+01   -.642E-02 0.368E-02 -.141E-02
   0.652E+00 0.315E+00 0.412E+01   -.653E+00 -.316E+00 -.411E+01   0.111E-01 -.187E-01 -.758E-02
   0.688E+00 -.201E+00 0.528E+01   -.692E+00 0.203E+00 -.526E+01   -.790E-02 -.478E-02 -.594E-02
   -.318E+00 0.771E+00 0.268E+01   0.321E+00 -.774E+00 -.268E+01   0.619E-03 -.135E-01 -.494E-02
   -.377E+00 0.345E+00 0.427E+01   0.377E+00 -.345E+00 -.426E+01   -.251E-01 0.143E-01 0.114E-02
   0.150E+00 -.161E+00 0.194E+01   -.147E+00 0.160E+00 -.194E+01   0.405E-02 -.278E-02 0.146E-02
   0.160E+00 -.131E+00 0.187E+01   -.160E+00 0.132E+00 -.187E+01   -.628E-02 0.320E-02 0.728E-02
   0.157E+00 -.519E+00 0.589E+01   -.156E+00 0.520E+00 -.586E+01   0.258E-01 -.699E-02 -.340E-02
   0.107E+00 -.840E+00 0.385E+01   -.110E+00 0.843E+00 -.384E+01   0.303E-02 0.730E-02 -.159E-01
   -.568E+00 0.337E+00 0.200E+01   0.571E+00 -.339E+00 -.200E+01   0.758E-02 -.413E-02 0.887E-02
   -.696E+00 0.177E+00 0.197E+01   0.695E+00 -.177E+00 -.197E+01   -.115E-02 0.487E-02 -.379E-02
   -.988E-01 -.420E-01 0.148E+01   0.101E+00 0.404E-01 -.149E+01   0.388E-03 0.143E-03 0.241E-02
   0.494E-01 0.344E+00 0.147E+01   -.492E-01 -.344E+00 -.147E+01   -.251E-02 0.124E-02 0.919E-02
   -.150E+00 -.790E+00 0.278E+01   0.150E+00 0.792E+00 -.278E+01   0.549E-02 -.120E-02 -.187E-03
   -.933E-01 -.497E+00 0.203E+01   0.907E-01 0.497E+00 -.203E+01   -.515E-03 -.596E-03 -.446E-03
   0.759E+00 -.313E+00 0.343E+01   -.759E+00 0.313E+00 -.342E+01   -.222E-02 -.182E-02 -.151E-01
   0.557E+00 -.438E+00 0.289E+01   -.560E+00 0.439E+00 -.289E+01   -.698E-02 0.542E-02 -.387E-03
   -.112E+00 0.193E+00 0.543E+01   0.108E+00 -.191E+00 -.541E+01   -.993E-02 0.102E-01 -.187E-02
   -.182E+00 -.320E+00 0.545E+01   0.184E+00 0.318E+00 -.543E+01   0.117E-01 -.143E-01 -.131E-01
   0.296E+00 -.102E+00 0.203E+01   -.294E+00 0.101E+00 -.203E+01   0.392E-02 -.277E-02 -.150E-02
   0.977E-01 0.256E+00 0.183E+01   -.981E-01 -.255E+00 -.183E+01   -.466E-02 0.302E-02 0.697E-02
   -.813E+00 0.477E-01 0.297E+01   0.817E+00 -.495E-01 -.297E+01   0.127E-01 0.739E-02 -.261E-02
   -.728E+00 -.322E+00 0.247E+01   0.729E+00 0.322E+00 -.247E+01   -.783E-02 0.886E-02 -.364E-03
   0.287E+00 -.621E+00 0.293E+01   -.286E+00 0.621E+00 -.293E+01   0.378E-02 0.247E-02 -.533E-02
   0.283E-01 -.268E+00 0.218E+01   -.304E-01 0.270E+00 -.218E+01   -.499E-02 0.236E-02 -.633E-03
   -.515E+00 -.508E+00 0.314E+01   0.513E+00 0.509E+00 -.314E+01   -.114E-01 -.776E-02 -.149E-01
   -.389E+00 -.762E+00 0.241E+01   0.390E+00 0.761E+00 -.242E+01   0.531E-03 -.440E-03 0.606E-03
   0.199E-01 0.182E+00 0.174E+01   -.195E-01 -.183E+00 -.175E+01   0.462E-02 -.448E-02 0.813E-02
   0.898E-01 0.147E+00 0.179E+01   -.925E-01 -.146E+00 -.179E+01   -.245E-02 0.470E-02 0.175E-03
   -.374E+00 0.719E-01 0.182E+01   0.377E+00 -.728E-01 -.182E+01   0.433E-02 -.256E-02 0.729E-02
   -.326E+00 -.161E+00 0.178E+01   0.325E+00 0.161E+00 -.178E+01   -.335E-02 0.214E-02 0.478E-02
   -.597E+00 -.342E+00 0.176E+01   0.599E+00 0.340E+00 -.176E+01   -.112E-03 0.883E-03 0.329E-02
   -.403E+00 -.330E+00 0.162E+01   0.404E+00 0.330E+00 -.163E+01   -.331E-02 0.122E-02 0.870E-02
   -.370E+00 -.466E+00 0.170E+01   0.370E+00 0.467E+00 -.170E+01   -.254E-02 0.409E-03 0.386E-02
   -.510E-01 -.139E+00 0.158E+01   0.521E-01 0.138E+00 -.159E+01   0.165E-02 0.804E-03 0.673E-02
   0.147E+00 0.353E+00 0.146E+01   -.148E+00 -.353E+00 -.147E+01   -.380E-02 0.131E-02 0.618E-02
   0.434E+00 0.629E+00 0.170E+01   -.433E+00 -.630E+00 -.171E+01   -.115E-02 -.112E-02 0.638E-02
   0.585E-01 0.578E+00 0.154E+01   -.558E-01 -.580E+00 -.154E+01   0.354E-03 0.991E-04 0.252E-02
   0.160E-01 0.811E+00 0.203E+01   -.156E-01 -.812E+00 -.204E+01   -.746E-02 0.109E-02 0.450E-02
   -.118E+00 0.214E+00 0.191E+01   0.119E+00 -.215E+00 -.192E+01   0.429E-02 -.323E-02 0.317E-02
   -.387E+00 0.515E+00 0.203E+01   0.386E+00 -.515E+00 -.203E+01   -.552E-02 -.200E-03 0.228E-05
   -.136E+00 -.257E+00 0.206E+01   0.136E+00 0.257E+00 -.206E+01   0.572E-02 -.115E-02 0.714E-02
   -.243E+00 0.821E-01 0.171E+01   0.241E+00 -.814E-01 -.171E+01   -.379E-02 0.325E-02 -.151E-02
   0.167E-01 -.154E+00 0.170E+01   -.167E-01 0.154E+00 -.171E+01   0.382E-02 -.293E-02 0.558E-02
   0.249E+00 0.181E+00 0.166E+01   -.251E+00 -.180E+00 -.166E+01   -.829E-03 0.185E-02 0.343E-02
   -.644E-02 0.318E-01 -.304E+02   0.169E-02 -.277E-01 0.305E+02   -.288E-02 0.192E-02 -.292E-02
   -.229E+03 0.156E+03 -.573E+02   0.279E+03 -.190E+03 0.607E+02   -.511E+02 0.348E+02 -.343E+01
   0.229E+03 -.156E+03 -.376E+02   -.279E+03 0.190E+03 0.345E+02   0.511E+02 -.348E+02 0.309E+01
 -----------------------------------------------------------------------------------------------
   -.796E-02 0.142E-01 0.343E+00   0.000E+00 0.568E-13 -.426E-13   0.770E-02 -.140E-01 -.342E+00
 
 
 POSITION                                       TOTAL-FORCE (eV/Angst)
 -----------------------------------------------------------------------------------
     11.98348      0.00342      0.01417         0.003277     -0.001703     -0.000961
     -0.34154      1.42665      0.01100        -0.000535     -0.000131     -0.003421
      2.12355      0.00315      0.01249        -0.001750      0.010993     -0.006412
      2.12326      1.42653      0.00641         0.013650      0.001336     -0.008506
     10.75099      2.13819      0.01213         0.000432     -0.005801     -0.000055
     -1.57382      3.56123      0.01110        -0.009020      0.004760     -0.001408
      0.89078      2.13854      0.00548         0.009844     -0.019306      0.002234
      0.89099      3.56147      0.00181        -0.011713     -0.002599      0.011484
      4.58864      0.00346      0.01135         0.003542     -0.015771     -0.003544
      4.58894      1.42623      0.00646        -0.023943      0.013533      0.013607
      9.51854      4.27281      0.01369         0.006556     -0.003096      0.000185
     -2.80632      5.69591      0.01434        -0.006637      0.003423      0.000780
      2.12300      4.27302      0.00000         0.025470     -0.005229      0.020015
      2.12335      5.69594      0.00581        -0.000410      0.009077     -0.002767
      7.05344      0.00333      0.01399         0.009404     -0.005295     -0.000330
      7.05353      1.42635      0.01368        -0.001770      0.005036     -0.003817
      8.28610      6.40752      0.01601         0.002874     -0.001444     -0.000814
     -4.03885      7.83070      0.01636        -0.002251      0.000891     -0.000073
      3.35586      6.40753      0.01007         0.005658      0.000478     -0.001267
      3.35599      7.83072      0.01320        -0.003128     -0.000026     -0.000679
     -0.34146      4.27290      0.00723        -0.001807     -0.001542     -0.004552
     -0.34138      5.69591      0.00946        -0.009212      0.006573     -0.001055
      3.35624      2.13791      0.00222        -0.013781      0.012110      0.015529
      3.35573      3.56155      0.00139         0.013799     -0.016184      0.008017
     -1.57395      6.40758      0.01311         0.005363     -0.003913     -0.000624
     -1.57385      7.83068      0.01438        -0.004922      0.003777      0.000053
      5.82093      2.13784      0.01033         0.015947      0.005286     -0.002972
      5.82114      3.56097      0.01156        -0.006533      0.008682     -0.003652
      0.89092      6.40755      0.00907         0.004668      0.002306     -0.002235
      0.89106      7.83068      0.01235        -0.006840      0.003942      0.000369
      4.58871      4.27293      0.00850        -0.013178     -0.006628     -0.010904
      4.58852      5.69606      0.01149         0.002005     -0.001310     -0.003964
      9.51845      0.00337      0.01490         0.004848     -0.004709      0.000200
      9.51855      1.42644      0.01438        -0.005143      0.005413     -0.000326
      8.28593      2.13803      0.01453         0.006775     -0.003401      0.000623
      8.28613      3.56115      0.01464        -0.004425      0.002262     -0.000030
      7.05356      4.27269      0.01457         0.002510     -0.001070     -0.000676
      7.05362      5.69588      0.01553        -0.002530      0.001545     -0.000054
      5.82112      6.40755      0.01489        -0.003022      0.001574     -0.000056
      5.82102      7.83073      0.01579         0.002742      0.000243     -0.000285
      7.05363      8.54227      0.01631        -0.004691      0.001306      0.001043
     -5.27149      9.96549      0.01495         0.000218     -0.001973     -0.002141
     -2.80638      8.54234      0.01558         0.003073     -0.001300     -0.001214
     -2.80627      9.96553      0.01362        -0.006953     -0.000035     -0.003762
     -0.34149      8.54239      0.01378         0.005820     -0.004941      0.000265
     -0.34138      9.96550      0.01354        -0.005986     -0.000037     -0.001240
      2.12343      8.54232      0.01336         0.005969     -0.001558      0.000767
      2.12354      9.96544      0.01469        -0.005113      0.003814     -0.001894
      4.58846      8.54235      0.01505         0.003764     -0.002815      0.001011
      4.58853      9.96550      0.01517        -0.002688      0.003341      0.000116
      3.04930      2.68154      9.43874        -0.007446      0.005910      0.034157
      4.02070      2.02068      9.50316        -0.520584      0.353781     -0.050740
      2.07767      3.34267      9.37929         0.527802     -0.359573      0.015976
 -----------------------------------------------------------------------------------
    total drift:                               -0.000259      0.000199      0.000996


--------------------------------------------------------------------------------------------------------



  FREE ENERGIE OF THE ION-ELECTRON SYSTEM (eV)
  ---------------------------------------------------
  free  energy   TOTEN  =      -486.49349110 eV

  energy  without entropy=     -486.49349110  energy(sigma->0) =     -486.49349110
 


--------------------------------------------------------------------------------------------------------


    POTLOK:  cpu time    0.2803: real time    0.2824


--------------------------------------------------------------------------------------------------------


     LOOP+:  cpu time  109.4436: real time  110.9307
    4ORBIT:  cpu time    0.0000: real time    0.0000

 total amount of memory used by VASP MPI-rank0   175916. kBytes
=======================================================================

   base      :      30000. kBytes
   nonl-proj :      46129. kBytes
   fftplans  :      35778. kBytes
   grid      :      52596. kBytes
   one-center:         43. kBytes
   wavefun   :      11370. kBytes
 
  
  
 General timing and accounting informations for this job:
 ========================================================
  
                  Total CPU time used (sec):      144.590
                            User time (sec):      131.821
                          System time (sec):       12.768
                         Elapsed time (sec):      147.822
  
                   Maximum memory used (kb):      510672.
                   Average memory used (kb):          N/A
  
                          Minor page faults:        51393
                          Major page faults:          109
                 Voluntary context switches:         3548
