 vasp.6.2.1 16May21 (build Nov 06 2021 14:46:37) complex                        
  
 executed on             LinuxIFC date 2025.04.16  22:39:30
 running on  112 total cores
 distrk:  each k-point on  112 cores,    1 groups
 distr:  one band on NCORE=   4 cores,   28 groups


--------------------------------------------------------------------------------------------------------


 INCAR:
   ALGO = Conjugate
   NCORE = 4
   ISMEAR = 0
   SIGMA = 0.01
   PREC = Accurate
   EDIFF = 1E-6
   ENCUT = 1000
   ISIF = 0
   IVDW = 11
   LWAVE = .FALSE.
   LCHARGE = .FALSE.
   SYMPREC = 1E-6

 POTCAR:    PAW_PBE C_h 06Feb2004                 
 POTCAR:    PAW_PBE O_h 06Feb2004                 
 -----------------------------------------------------------------------------
|                                                                             |
|           W    W    AA    RRRRR   N    N  II  N    N   GGGG   !!!           |
|           W    W   A  A   R    R  NN   N  II  NN   N  G    G  !!!           |
|           W    W  A    A  R    R  N N  N  II  N N  N  G       !!!           |
|           W WW W  AAAAAA  RRRRR   N  N N  II  N  N N  G  GGG   !            |
|           WW  WW  A    A  R   R   N   NN  II  N   NN  G    G                |
|           W    W  A    A  R    R  N    N  II  N    N   GGGG   !!!           |
|                                                                             |
|     For optimal performance we recommend to set                             |
|       NCORE = 2 up to number-of-cores-per-socket                            |
|     NCORE specifies how many cores store one orbital (NPAR=cpu/NCORE).      |
|     This setting can greatly improve the performance of VASP for DFT.       |
|     The default, NCORE=1 might be grossly inefficient on modern             |
|     multi-core architectures or massively parallel machines. Do your        |
|     own testing! More info at https://www.vasp.at/wiki/index.php/NCORE      |
|     Unfortunately you need to use the default for GW and RPA                |
|     calculations (for HF NCORE is supported but not extensively tested      |
|     yet).                                                                   |
|                                                                             |
 -----------------------------------------------------------------------------

 POTCAR:    PAW_PBE C_h 06Feb2004                 
   VRHFIN =C: s2p2                                                                                  
   LEXCH  = PE                                                                                      
   EATOM  =   147.1560 eV,   10.8157 Ry                                                             
                                                                                                    
   TITEL  = PAW_PBE C_h 06Feb2004                                                                   
   LULTRA =        F    use ultrasoft PP ?                                                          
   IUNSCR =        1    unscreen: 0-lin 1-nonlin 2-no                                               
   RPACOR =    0.800    partial core radius                                                         
   POMASS =   12.011; ZVAL   =    4.000    mass and valenz                                          
   RCORE  =    1.100    outmost cutoff radius                                                       
   RWIGS  =    1.630; RWIGS  =    0.863    wigner-seitz radius (au A)                               
   ENMAX  =  700.000; ENMIN  =  500.000 eV                                                          
   ICORE  =        2    local potential                                                             
   LCOR   =        T    correct aug charges                                                         
   LPAW   =        T    paw PP                                                                      
   EAUG   =  946.768                                                                                
   DEXC   =    0.000                                                                                
   RMAX   =    1.128    core radius for proj-oper                                                   
   RAUG   =    1.300    factor for augmentation sphere                                              
   RDEP   =    1.162    radius for radial grids                                                     
   RDEPT  =    1.088    core radius for aug-charge                                                  
                                                                                                    
   Atomic configuration                                                                             
    4 entries                                                                                       
     n  l   j            E        occ.                                                              
     1  0  0.50      -273.3789   2.0000                                                             
     2  0  0.50       -13.7508   2.0000                                                             
     2  1  0.50        -5.2854   2.0000                                                             
     3  2  1.50        -5.4423   0.0000                                                             
   Description                                                                                      
     l       E           TYP  RCUT    TYP  RCUT                                                     
     0    -13.7508458     23  1.100                                                                 
     0     -8.2022199     23  1.100                                                                 
     1     -5.2854383     23  1.100                                                                 
     1      1.1560700     23  1.100                                                                 
     2     -5.4423304      7  1.100                                                                 
  local pseudopotential read in
  partial core-charges read in
  partial kinetic energy density read in
  atomic valenz-charges read in
  non local Contribution for L=           0  read in
    real space projection operators read in
  non local Contribution for L=           0  read in
    real space projection operators read in
  non local Contribution for L=           1  read in
    real space projection operators read in
  non local Contribution for L=           1  read in
    real space projection operators read in
    PAW grid and wavefunctions read in
 
   number of l-projection  operators is LMAX  =           4
   number of lm-projection operators is LMMAX =           8
 
 POTCAR:    PAW_PBE O_h 06Feb2004                 
   VRHFIN =O: s2p4                                                                                  
   LEXCH  = PE                                                                                      
   EATOM  =   432.3788 eV,   31.7789 Ry                                                             
                                                                                                    
   TITEL  = PAW_PBE O_h 06Feb2004                                                                   
   LULTRA =        F    use ultrasoft PP ?                                                          
   IUNSCR =        1    unscreen: 0-lin 1-nonlin 2-no                                               
   RPACOR =    0.800    partial core radius                                                         
   POMASS =   16.000; ZVAL   =    6.000    mass and valenz                                          
   RCORE  =    1.100    outmost cutoff radius                                                       
   RWIGS  =    1.400; RWIGS  =    0.741    wigner-seitz radius (au A)                               
   ENMAX  =  700.000; ENMIN  =  500.000 eV                                                          
   ICORE  =        2    local potential                                                             
   LCOR   =        T    correct aug charges                                                         
   LPAW   =        T    paw PP                                                                      
   EAUG   =  888.804                                                                                
   DEXC   =    0.000                                                                                
   RMAX   =    1.128    core radius for proj-oper                                                   
   RAUG   =    1.300    factor for augmentation sphere                                              
   RDEP   =    1.125    radius for radial grids                                                     
   RDEPT  =    1.088    core radius for aug-charge                                                  
                                                                                                    
   Atomic configuration                                                                             
    4 entries                                                                                       
     n  l   j            E        occ.                                                              
     1  0  0.50      -514.6923   2.0000                                                             
     2  0  0.50       -23.9615   2.0000                                                             
     2  1  0.50        -9.0305   4.0000                                                             
     3  2  1.50        -9.5241   0.0000                                                             
   Description                                                                                      
     l       E           TYP  RCUT    TYP  RCUT                                                     
     0    -23.9615319     23  1.100                                                                 
     0    -25.3221145     23  1.100                                                                 
     1     -9.0304911     23  1.100                                                                 
     1     -5.4802209     23  1.100                                                                 
     2     -9.5240782      7  1.100                                                                 
  local pseudopotential read in
  partial core-charges read in
  partial kinetic energy density read in
  atomic valenz-charges read in
  non local Contribution for L=           0  read in
    real space projection operators read in
  non local Contribution for L=           0  read in
    real space projection operators read in
  non local Contribution for L=           1  read in
    real space projection operators read in
  non local Contribution for L=           1  read in
    real space projection operators read in
    PAW grid and wavefunctions read in
 
   number of l-projection  operators is LMAX  =           4
   number of lm-projection operators is LMMAX =           8
 
 -----------------------------------------------------------------------------
|                                                                             |
|               ----> ADVICE to this user running VASP <----                  |
|                                                                             |
|     You have a (more or less) 'large supercell' and for larger cells it     |
|     might be more efficient to use real-space projection operators.         |
|     Therefore, try LREAL= Auto in the INCAR file.                           |
|     Mind: For very accurate calculation, you might also keep the            |
|     reciprocal projection scheme (i.e. LREAL=.FALSE.).                      |
|                                                                             |
 -----------------------------------------------------------------------------

  PAW_PBE C_h 06Feb2004                 :
 energy of atom  1       EATOM= -147.1560
 kinetic energy error for atom=    0.0031 (will be added to EATOM!!)
  PAW_PBE O_h 06Feb2004                 :
 energy of atom  2       EATOM= -432.3788
 kinetic energy error for atom=    0.0171 (will be added to EATOM!!)
 
 
 POSCAR:  C  O
  positions in cartesian coordinates
  No initial velocities read in
 exchange correlation table for  LEXCH =        8
   RHO(1)=    0.500       N(1)  =     2000
   RHO(2)=  100.500       N(2)  =     4000
 


--------------------------------------------------------------------------------------------------------


 ion  position               nearest neighbor table
   1  0.972  0.000  0.001-  50 1.42   2 1.42  42 1.42
   2  0.039  0.134  0.000-   5 1.42   7 1.42   1 1.42
   3  0.172  0.000  0.000-  42 1.42  44 1.42   4 1.42
   4  0.239  0.134  0.000-   7 1.42   3 1.42  23 1.42
   5  0.972  0.200  0.000-   6 1.42   2 1.42  34 1.42
   6  0.039  0.334  0.000-   5 1.42  21 1.42  11 1.42
   7  0.172  0.200  0.000-   8 1.42   2 1.42   4 1.42
   8  0.239  0.334  0.000-  13 1.42   7 1.42  21 1.42
   9  0.372  0.000  0.000-  10 1.42  44 1.42  46 1.42
  10  0.439  0.134  0.000-  27 1.42   9 1.42  23 1.42
  11  0.972  0.400  0.001-  12 1.42  36 1.42   6 1.42
  12  0.039  0.534  0.001-  25 1.42  11 1.42  17 1.42
  13  0.372  0.400  0.000-   8 1.42  14 1.42  24 1.42
  14  0.439  0.534  0.000-  13 1.42  29 1.42  19 1.42
  15  0.572  0.000  0.001-  46 1.42  16 1.42  48 1.42
  16  0.639  0.134  0.001-  15 1.42  35 1.42  27 1.42
  17  0.972  0.600  0.001-  38 1.42  18 1.42  12 1.42
  18  0.039  0.734  0.001-  43 1.42  41 1.42  17 1.42
  19  0.572  0.600  0.000-  14 1.42  20 1.42  32 1.42
  20  0.639  0.734  0.001-  49 1.42  19 1.42  47 1.42
  21  0.172  0.400  0.000-  22 1.42   8 1.42   6 1.42
  22  0.239  0.534  0.000-  21 1.42  29 1.42  25 1.42
  23  0.372  0.200  0.000-  10 1.42   4 1.42  24 1.42
  24  0.439  0.334  0.000-  13 1.42  31 1.42  23 1.42
  25  0.172  0.600  0.001-  26 1.42  12 1.42  22 1.42
  26  0.239  0.734  0.001-  25 1.42  45 1.42  43 1.42
  27  0.572  0.200  0.000-  10 1.42  28 1.42  16 1.42
  28  0.639  0.334  0.000-  27 1.42  37 1.42  31 1.42
  29  0.372  0.600  0.000-  22 1.42  14 1.42  30 1.42
  30  0.439  0.734  0.000-  47 1.42  29 1.42  45 1.42
  31  0.572  0.400  0.000-  32 1.42  28 1.42  24 1.42
  32  0.639  0.534  0.000-  31 1.42  39 1.42  19 1.42
  33  0.772  0.000  0.001-  34 1.42  48 1.42  50 1.42
  34  0.839  0.134  0.001-  33 1.42   5 1.42  35 1.42
  35  0.772  0.200  0.001-  36 1.42  16 1.42  34 1.42
  36  0.839  0.334  0.001-  35 1.42  11 1.42  37 1.42
  37  0.772  0.400  0.001-  28 1.42  38 1.42  36 1.42
  38  0.839  0.534  0.001-  17 1.42  37 1.42  39 1.42
  39  0.772  0.600  0.001-  40 1.42  38 1.42  32 1.42
  40  0.839  0.734  0.001-  39 1.42  49 1.42  41 1.42
  41  0.972  0.800  0.001-  18 1.42  42 1.42  40 1.42
  42  0.039  0.934  0.001-   3 1.42  41 1.42   1 1.42
  43  0.172  0.800  0.001-  18 1.42  44 1.42  26 1.42
  44  0.239  0.934  0.001-   9 1.42  43 1.42   3 1.42
  45  0.372  0.800  0.001-  26 1.42  46 1.42  30 1.42
  46  0.439  0.934  0.001-  15 1.42  45 1.42   9 1.42
  47  0.572  0.800  0.001-  30 1.42  48 1.42  20 1.42
  48  0.639  0.934  0.001-  47 1.42  33 1.42  15 1.42
  49  0.772  0.800  0.001-  50 1.42  20 1.42  40 1.42
  50  0.839  0.934  0.001-  49 1.42   1 1.42  33 1.42
  51  0.373  0.251  0.212-  52 1.18  53 1.18
  52  0.421  0.189  0.214-  51 1.18
  53  0.325  0.313  0.210-  51 1.18
 
  LATTYP: Found a hexagonal cell.
 ALAT       =    12.3250000000
 C/A-ratio  =     2.0283975659
  
  Lattice vectors:
  
 A1 = (  12.3250000000,   0.0000000000,   0.0000000000)
 A2 = (  -6.1625000000,  10.6737631016,   0.0000000000)
 A3 = (   0.0000000000,   0.0000000000,  25.0000000000)


Analysis of symmetry for initial positions (statically):
=====================================================================
 Subroutine PRICEL returns:
 Original cell was already a primitive cell.
 

 Routine SETGRP: Setting up the symmetry group for a 
 hexagonal supercell.


 Subroutine GETGRP returns: Found  1 space group operations
 (whereof  1 operations were pure point group operations)
 out of a pool of 24 trial point group operations.


The static configuration has the point symmetry C_1 .


Analysis of symmetry for dynamics (positions and initial velocities):
=====================================================================
 Subroutine PRICEL returns:
 Original cell was already a primitive cell.
 

 Routine SETGRP: Setting up the symmetry group for a 
 hexagonal supercell.


 Subroutine GETGRP returns: Found  1 space group operations
 (whereof  1 operations were pure point group operations)
 out of a pool of 24 trial point group operations.


The dynamic configuration has the point symmetry C_1 .


 Subroutine INISYM returns: Found  1 space group operations
 (whereof  1 operations are pure point group operations),
 and found     1 'primitive' translations


----------------------------------------------------------------------------------------

                                     Primitive cell                                     

  volume of cell :    3288.8533

  direct lattice vectors                    reciprocal lattice vectors
    12.325000000  0.000000000  0.000000000     0.081135903  0.046843835  0.000000000
    -6.162500000 10.673763102  0.000000000     0.000000000  0.093687670  0.000000000
     0.000000000  0.000000000 25.000000000     0.000000000  0.000000000  0.040000000

  length of vectors
    12.325000000 12.325000000 25.000000000     0.093687670  0.093687670  0.040000000

  position of ions in fractional coordinates (direct lattice)
     0.972450841  0.000320818  0.000566711
     0.039118382  0.133659505  0.000440173
     0.172443627  0.000295449  0.000499628
     0.239096278  0.133647917  0.000256468
     0.972452058  0.200322012  0.000485219
     0.039128360  0.333643771  0.000444150
     0.172451764  0.200354552  0.000219167
     0.239124359  0.333665720  0.000072260
     0.372465565  0.000324403  0.000453913
     0.439137473  0.133619939  0.000258338
     0.972449824  0.400309362  0.000547611
     0.039124981  0.533636789  0.000573410
     0.372416176  0.400329481  0.000000000
     0.439099602  0.533638981  0.000232414
     0.572443676  0.000312125  0.000559580
     0.639110207  0.133631751  0.000547275
     0.972452703  0.600305653  0.000640289
     0.039124495  0.733640359  0.000654513
     0.572433471  0.600306242  0.000402895
     0.639111888  0.733641879  0.000527905
     0.172454630  0.400318228  0.000289045
     0.239120185  0.533636548  0.000378509
     0.372459750  0.200295993  0.000088997
     0.439107096  0.333673419  0.000055762
     0.172452155  0.600311506  0.000524340
     0.239123371  0.733638574  0.000575129
     0.572431082  0.200289171  0.000413296
     0.639112773  0.333618630  0.000462376
     0.372439808  0.600308022  0.000362844
     0.439116090  0.733637858  0.000494190
     0.572469358  0.400320504  0.000339918
     0.639119408  0.533650873  0.000459610
     0.772445723  0.000315427  0.000596161
     0.839116277  0.133640203  0.000575306
     0.772440513  0.200307432  0.000581033
     0.839120241  0.333635728  0.000585467
     0.772446320  0.400298367  0.000582978
     0.839118980  0.533633964  0.000621100
     0.772456143  0.600308173  0.000595712
     0.839115033  0.733643180  0.000631512
     0.972455313  0.800305582  0.000652233
     0.039114714  0.933643289  0.000598051
     0.172457971  0.800312211  0.000623372
     0.239134551  0.933647193  0.000544850
     0.372451396  0.800316674  0.000551399
     0.439124489  0.933644769  0.000541430
     0.572441101  0.800310054  0.000534535
     0.639115067  0.933638985  0.000587644
     0.772445098  0.800313187  0.000602062
     0.839116614  0.933644338  0.000606830
     0.373021009  0.251226878  0.211892619
     0.420879805  0.189313152  0.214469493
     0.325156981  0.313167186  0.209514424

  ion indices of the primitive-cell ions
   primitive index   ion index
                 1           1
                 2           2
                 3           3
                 4           4
                 5           5
                 6           6
                 7           7
                 8           8
                 9           9
                10          10
                11          11
                12          12
                13          13
                14          14
                15          15
                16          16
                17          17
                18          18
                19          19
                20          20
                21          21
                22          22
                23          23
                24          24
                25          25
                26          26
                27          27
                28          28
                29          29
                30          30
                31          31
                32          32
                33          33
                34          34
                35          35
                36          36
                37          37
                38          38
                39          39
                40          40
                41          41
                42          42
                43          43
                44          44
                45          45
                46          46
                47          47
                48          48
                49          49
                50          50
                51          51
                52          52
                53          53

----------------------------------------------------------------------------------------

 
 
 KPOINTS: auto                                    

Automatic generation of k-mesh.
 Grid dimensions read from file:
 generate k-points for:    1    1    1

 Generating k-lattice:

  Cartesian coordinates                     Fractional coordinates (reciprocal lattice)
     0.081135903  0.046843835  0.000000000     1.000000000 -0.000000000  0.000000000
     0.000000000  0.093687670  0.000000000     0.000000000  1.000000000  0.000000000
     0.000000000  0.000000000  0.040000000     0.000000000  0.000000000  1.000000000

  Length of vectors
     0.093687670  0.093687670  0.040000000

  Shift w.r.t. Gamma in fractional coordinates (k-lattice)
     0.000000000  0.000000000  0.000000000

 
 Subroutine IBZKPT returns following result:
 ===========================================
 
 Found      1 irreducible k-points:
 
 Following reciprocal coordinates:
            Coordinates               Weight
  0.000000  0.000000  0.000000      1.000000
 
 Following cartesian coordinates:
            Coordinates               Weight
  0.000000  0.000000  0.000000      1.000000
 


--------------------------------------------------------------------------------------------------------




 Dimension of arrays:
   k-points           NKPTS =      1   k-points in BZ     NKDIM =      1   number of bands    NBANDS=    140
   number of dos      NEDOS =    301   number of ions     NIONS =     53
   non local maximal  LDIM  =      4   non local SUM 2l+1 LMDIM =      8
   total plane-waves  NPLWV = ******
   max r-space proj   IRMAX =      1   max aug-charges    IRDMAX=  10008
   dimension x,y,z NGX =   128 NGY =  128 NGZ =  270
   dimension x,y,z NGXF=   256 NGYF=  256 NGZF=  540
   support grid    NGXF=   256 NGYF=  256 NGZF=  540
   ions per type =              51   2
   NGX,Y,Z   is equivalent  to a cutoff of  17.27, 17.27, 17.95 a.u.
   NGXF,Y,Z  is equivalent  to a cutoff of  34.53, 34.53, 35.91 a.u.

 SYSTEM =  unknown system                          
 POSCAR =   C  O                                   

 Startparameter for this run:
   NWRITE =      2    write-flag & timer
   PREC   = accura    normal or accurate (medium, high low for compatibility)
   ISTART =      0    job   : 0-new  1-cont  2-samecut
   ICHARG =      2    charge: 1-file 2-atom 10-const
   ISPIN  =      1    spin polarized calculation?
   LNONCOLLINEAR =      F non collinear calculations
   LSORBIT =      F    spin-orbit coupling
   INIWAV =      1    electr: 0-lowe 1-rand  2-diag
   LASPH  =      F    aspherical Exc in radial PAW
 Electronic Relaxation 1
   ENCUT  = 1000.0 eV  73.50 Ry    8.57 a.u.  31.78 31.78 64.46*2*pi/ulx,y,z
   ENINI  = 1000.0     initial cutoff
   ENAUG  =  946.8 eV  augmentation charge cutoff
   NELM   =     60;   NELMIN=  2; NELMDL= -5     # of ELM steps 
   EDIFF  = 0.1E-05   stopping-criterion for ELM
   LREAL  =      F    real-space projection
   NLSPLINE    = F    spline interpolate recip. space projectors
   LCOMPAT=      F    compatible to vasp.4.4
   GGA_COMPAT  = T    GGA compatible to vasp.4.4-vasp.4.6
   LMAXPAW     = -100 max onsite density
   LMAXMIX     =    2 max onsite mixed and CHGCAR
   VOSKOWN=      0    Vosko Wilk Nusair interpolation
   ROPT   =    0.00000   0.00000
 Ionic relaxation
   EDIFFG = 0.1E-04   stopping-criterion for IOM
   NSW    =      0    number of steps for IOM
   NBLOCK =      1;   KBLOCK =      1    inner block; outer block 
   IBRION =     -1    ionic relax: 0-MD 1-quasi-New 2-CG
   NFREE  =      0    steps in history (QN), initial steepest desc. (CG)
   ISIF   =      0    stress and relaxation
   IWAVPR =     10    prediction:  0-non 1-charg 2-wave 3-comb
   ISYM   =      2    0-nonsym 1-usesym 2-fastsym
   LCORR  =      T    Harris-Foulkes like correction to forces

   POTIM  = 0.5000    time-step for ionic-motion
   TEIN   =    0.0    initial temperature
   TEBEG  =    0.0;   TEEND  =   0.0 temperature during run
   SMASS  =  -3.00    Nose mass-parameter (am)
   estimated Nose-frequenzy (Omega)   =  0.10E-29 period in steps = 0.13E+47 mass=  -0.347E-26a.u.
   SCALEE = 1.0000    scale energy and forces
   NPACO  =    256;   APACO  = 16.0  distance and # of slots for P.C.
   PSTRESS=    0.0 pullay stress

  Mass of Ions in am
   POMASS =  12.01 16.00
  Ionic Valenz
   ZVAL   =   4.00  6.00
  Atomic Wigner-Seitz radii
   RWIGS  =  -1.00 -1.00
  virtual crystal weights 
   VCA    =   1.00  1.00
   NELECT =     216.0000    total number of electrons
   NUPDOWN=      -1.0000    fix difference up-down

 DOS related values:
   EMIN   =  10.00;   EMAX   =-10.00  energy-range for DOS
   EFERMI =   0.00
   ISMEAR =     0;   SIGMA  =   0.01  broadening in eV -4-tet -1-fermi 0-gaus

 Electronic relaxation 2 (details)
   IALGO  =     58    algorithm
   LDIAG  =      T    sub-space diagonalisation (order eigenvalues)
   LSUBROT=      F    optimize rotation matrix (better conditioning)
   TURBO    =      0    0=normal 1=particle mesh
   IRESTART =      0    0=no restart 2=restart with 2 vectors
   NREBOOT  =      0    no. of reboots
   NMIN     =      0    reboot dimension
   EREF     =   0.00    reference energy to select bands
   IMIX   =      4    mixing-type and parameters
     AMIX     =   0.40;   BMIX     =  1.00
     AMIX_MAG =   1.60;   BMIX_MAG =  1.00
     AMIN     =   0.10
     WC   =   100.;   INIMIX=   1;  MIXPRE=   1;  MAXMIX= -45

 Intra band minimization:
   WEIMIN = 0.0000     energy-eigenvalue tresh-hold
   EBREAK =  0.18E-08  absolut break condition
   DEPER  =   0.30     relativ break condition  

   TIME   =   0.40     timestep for ELM

  volume/ion in A,a.u.               =      62.05       418.76
  Fermi-wavevector in a.u.,A,eV,Ry     =   0.660508  1.248179  5.935820  0.436270
  Thomas-Fermi vector in A             =   1.732977
 
 Write flags
   LWAVE        =      F    write WAVECAR
   LDOWNSAMPLE  =      F    k-point downsampling of WAVECAR
   LCHARG       =      T    write CHGCAR
   LVTOT        =      F    write LOCPOT, total local potential
   LVHAR        =      F    write LOCPOT, Hartree potential only
   LELF         =      F    write electronic localiz. function (ELF)
   LORBIT       =      0    0 simple, 1 ext, 2 COOP (PROOUT), +10 PAW based schemes


 Dipole corrections
   LMONO  =      F    monopole corrections only (constant potential shift)
   LDIPOL =      F    correct potential (dipole corrections)
   IDIPOL =      0    1-x, 2-y, 3-z, 4-all directions 
   EPSILON=  1.0000000 bulk dielectric constant

 Exchange correlation treatment:
   GGA     =    --    GGA type
   LEXCH   =     8    internal setting for exchange type
   VOSKOWN=      0    Vosko Wilk Nusair interpolation
   LHFCALC =     F    Hartree Fock is set to
   LHFONE  =     F    Hartree Fock one center treatment
   AEXX    =    0.0000 exact exchange contribution

 Linear response parameters
   LEPSILON=     F    determine dielectric tensor
   LRPA    =     F    only Hartree local field effects (RPA)
   LNABLA  =     F    use nabla operator in PAW spheres
   LVEL    =     F    velocity operator in full k-point grid
   LINTERFAST=   F  fast interpolation
   KINTER  =     0    interpolate to denser k-point grid
   CSHIFT  =0.1000    complex shift for real part using Kramers Kronig
   OMEGAMAX=  -1.0    maximum frequency
   DEG_THRESHOLD= 0.2000000E-02 threshold for treating states as degnerate
   RTIME   =   -0.100 relaxation time in fs
  (WPLASMAI=    0.000 imaginary part of plasma frequency in eV, 0.658/RTIME)
   DFIELD  = 0.0000000 0.0000000 0.0000000 field for delta impulse in time
 
 Orbital magnetization related:
   ORBITALMAG=     F  switch on orbital magnetization
   LCHIMAG   =     F  perturbation theory with respect to B field
   DQ        =  0.001000  dq finite difference perturbation B field
   LLRAUG    =     F  two centre corrections for induced B field



--------------------------------------------------------------------------------------------------------


 Static calculation
 charge density and potential will be updated during run
 non-spin polarized calculation
 Conjugate gradient for all bands (Freysoldt, et al. PRB 79, 241103 (2009))
 preconditioned conjugated gradient                                        
 perform sub-space diagonalisation
    before iterative eigenvector-optimisation
 modified Broyden-mixing scheme, WC =      100.0
 initial mixing is a Kerker type mixing with AMIX =  0.4000 and BMIX =      1.0000
 Hartree-type preconditioning will be used
 using additional bands           32
 reciprocal scheme for non local part
 use partial core corrections
 no Harris-corrections to forces 
 use gradient corrections 
 use of overlap-Matrix (Vanderbilt PP)
 Gauss-broadening in eV      SIGMA  =   0.01


--------------------------------------------------------------------------------------------------------


  energy-cutoff  :     1000.00
  volume of cell :     3288.85
      direct lattice vectors                 reciprocal lattice vectors
    12.325000000  0.000000000  0.000000000     0.081135903  0.046843835  0.000000000
    -6.162500000 10.673763102  0.000000000     0.000000000  0.093687670  0.000000000
     0.000000000  0.000000000 25.000000000     0.000000000  0.000000000  0.040000000

  length of vectors
    12.325000000 12.325000000 25.000000000     0.093687670  0.093687670  0.040000000


 
 k-points in units of 2pi/SCALE and weight: auto                                    
   0.00000000  0.00000000  0.00000000       1.000
 
 k-points in reciprocal lattice and weights: auto                                    
   0.00000000  0.00000000  0.00000000       1.000
 
 position of ions in fractional coordinates (direct lattice) 
   0.97245084  0.00032082  0.00056671
   0.03911838  0.13365950  0.00044017
   0.17244363  0.00029545  0.00049963
   0.23909628  0.13364792  0.00025647
   0.97245206  0.20032201  0.00048522
   0.03912836  0.33364377  0.00044415
   0.17245176  0.20035455  0.00021917
   0.23912436  0.33366572  0.00007226
   0.37246557  0.00032440  0.00045391
   0.43913747  0.13361994  0.00025834
   0.97244982  0.40030936  0.00054761
   0.03912498  0.53363679  0.00057341
   0.37241618  0.40032948  0.00000000
   0.43909960  0.53363898  0.00023241
   0.57244368  0.00031213  0.00055958
   0.63911021  0.13363175  0.00054727
   0.97245270  0.60030565  0.00064029
   0.03912449  0.73364036  0.00065451
   0.57243347  0.60030624  0.00040289
   0.63911189  0.73364188  0.00052791
   0.17245463  0.40031823  0.00028904
   0.23912018  0.53363655  0.00037851
   0.37245975  0.20029599  0.00008900
   0.43910710  0.33367342  0.00005576
   0.17245216  0.60031151  0.00052434
   0.23912337  0.73363857  0.00057513
   0.57243108  0.20028917  0.00041330
   0.63911277  0.33361863  0.00046238
   0.37243981  0.60030802  0.00036284
   0.43911609  0.73363786  0.00049419
   0.57246936  0.40032050  0.00033992
   0.63911941  0.53365087  0.00045961
   0.77244572  0.00031543  0.00059616
   0.83911628  0.13364020  0.00057531
   0.77244051  0.20030743  0.00058103
   0.83912024  0.33363573  0.00058547
   0.77244632  0.40029837  0.00058298
   0.83911898  0.53363396  0.00062110
   0.77245614  0.60030817  0.00059571
   0.83911503  0.73364318  0.00063151
   0.97245531  0.80030558  0.00065223
   0.03911471  0.93364329  0.00059805
   0.17245797  0.80031221  0.00062337
   0.23913455  0.93364719  0.00054485
   0.37245140  0.80031667  0.00055140
   0.43912449  0.93364477  0.00054143
   0.57244110  0.80031005  0.00053453
   0.63911507  0.93363899  0.00058764
   0.77244510  0.80031319  0.00060206
   0.83911661  0.93364434  0.00060683
   0.37302101  0.25122688  0.21189262
   0.42087980  0.18931315  0.21446949
   0.32515698  0.31316719  0.20951442
 
 position of ions in cartesian coordinates  (Angst):
  11.98347958  0.00342433  0.01416777
  -0.34154264  1.42664989  0.01100432
   2.12354700  0.00315355  0.01249070
   2.12325634  1.42652621  0.00641170
  10.75098721  2.13818970  0.01213047
  -1.57382270  3.56123457  0.01110375
   0.89078307  2.13853702  0.00547917
   0.89099273  3.56146885  0.00180651
   4.58863896  0.00346260  0.01134782
   4.58893648  1.42622757  0.00645846
   9.51853763  4.27280730  0.01369027
  -2.80632132  5.69591267  0.01433526
   2.12299894  4.27302204  0.00000000
   2.12335237  5.69593607  0.00581036
   7.05344483  0.00333155  0.01398950
   7.05352764  1.42635365  0.01368187
   8.28609598  6.40752033  0.01600723
  -4.03884931  7.83070339  0.01636283
   3.35585531  6.40752662  0.01007237
   3.35598594  7.83071962  0.01319763
  -0.34145776  4.27290193  0.00722612
  -0.34137895  5.69591010  0.00946273
   3.35624236  2.13791198  0.00222492
   3.35573251  3.56155103  0.00139405
  -1.57394684  6.40758280  0.01310850
  -1.57385216  7.83068434  0.01437823
   5.82093107  2.13783916  0.01033241
   5.82114012  3.56096622  0.01155939
   0.89092245  6.40754561  0.00907111
   0.89106251  7.83067670  0.01235474
   4.58870974  4.27292622  0.00849795
   4.58852320  5.69606300  0.01149026
   9.51844972  0.00336679  0.01490402
   9.51855036  1.42644387  0.01438264
   8.28593477  2.13803408  0.01452582
   8.28612680  3.56114872  0.01463668
   7.05356221  4.27268994  0.01457444
   7.05362213  5.69588251  0.01552751
   5.82112285  6.40754723  0.01489279
   5.82101669  7.83073350  0.01578780
   7.05362858  8.54227219  0.01630582
  -5.27148792  9.96548729  0.01495127
  -2.80637951  8.54234295  0.01558431
  -2.80626749  9.96552896  0.01362126
  -0.34148805  8.54239058  0.01378498
  -0.34137657  9.96550309  0.01353576
   2.12342586  8.54231992  0.01336337
   2.12354296  9.96544135  0.01469111
   4.58845581  8.54235337  0.01505154
   4.58852904  9.96549848  0.01517076
   3.04929830  2.68153618  5.29731547
   4.02070129  2.02068374  5.36173733
   2.07766701  3.34267235  5.23786060
 


--------------------------------------------------------------------------------------------------------


 k-point   1 :   0.0000 0.0000 0.0000  plane waves:  236157

 maximum and minimum number of plane-waves per node :     59046    59034

 maximum number of plane-waves:    236157
 maximum index in each direction: 
   IXMAX=   31   IYMAX=   31   IZMAX=   64
   IXMIN=  -31   IYMIN=  -31   IZMIN=  -64


 parallel 3D FFT for wavefunctions:
    minimum data exchange during FFTs selected (reduces bandwidth)
 parallel 3D FFT for charge:
    minimum data exchange during FFTs selected (reduces bandwidth)


 total amount of memory used by VASP MPI-rank0   215378. kBytes
=======================================================================

   base      :      30000. kBytes
   nonl-proj :      57634. kBytes
   fftplans  :      45914. kBytes
   grid      :      67588. kBytes
   one-center:         43. kBytes
   wavefun   :      14199. kBytes
 
     INWAV:  cpu time    0.0000: real time    0.0000
 Broyden mixing: mesh for mixing (old mesh)
   NGX = 63   NGY = 63   NGZ =129
  (NGX  =256   NGY  =256   NGZ  =540)
  gives a total of 512001 points

 initial charge density was supplied:
 charge density of overlapping atoms calculated
 number of electron     216.0000000 magnetization 
 keeping initial charge density in first step


--------------------------------------------------------------------------------------------------------


 Maximum index for augmentation-charges          471 (set IRDMAX)


--------------------------------------------------------------------------------------------------------


 First call to EWALD:  gamma=   0.119
 Maximum number of real-space cells 4x 4x 2
 Maximum number of reciprocal cells 2x 2x 4

    FEWALD:  cpu time    0.0024: real time    0.0024


--------------------------------------- Iteration      1(   1)  ---------------------------------------


    POTLOK:  cpu time    0.3925: real time    0.3961
    SETDIJ:  cpu time    0.0053: real time    0.0054
    TRIAL :  cpu time    5.5732: real time    5.6318
    CORREC:  cpu time    0.0005: real time    0.0005
    --------------------------------------------
      LOOP:  cpu time    5.9783: real time    6.0439

 eigenvalue-minimisations  :   280
 total energy-change (2. order) : 0.2763712E+04  (-0.1023900E+05)
 number of electron     216.0000000 magnetization 
 augmentation part      216.0000000 magnetization 

 Free energy of the ion-electron system (eV)
  ---------------------------------------------------
  alpha Z        PSCENC =        47.94900195
  Ewald energy   TEWEN  =     44407.38298792
  -Hartree energ DENC   =    -50476.55488451
  -exchange      EXHF   =         0.00000000
  -V(xc)+E(xc)   XCENC  =       420.79915507
  PAW double counting   =      6525.96553977    -6260.36035765
  entropy T*S    EENTRO =        -0.00017880
  eigenvalues    EBANDS =      -270.99288400
  atomic energy  EATOM  =      8369.52358910
  ---------------------------------------------------
  free energy    TOTEN  =      2763.71196886 eV

  energy without entropy =     2763.71214767  energy(sigma->0) =     2763.71205827


--------------------------------------------------------------------------------------------------------




--------------------------------------- Iteration      1(   2)  ---------------------------------------


    TRIAL :  cpu time    8.9126: real time    9.0069
    CORREC:  cpu time    0.0002: real time    0.0003
    --------------------------------------------
      LOOP:  cpu time    8.9258: real time    9.0460

 eigenvalue-minimisations  :   504
 total energy-change (2. order) :-0.2488962E+04  (-0.2352715E+04)
 number of electron     216.0000000 magnetization 
 augmentation part      216.0000000 magnetization 

 Free energy of the ion-electron system (eV)
  ---------------------------------------------------
  alpha Z        PSCENC =        47.94900195
  Ewald energy   TEWEN  =     44407.38298792
  -Hartree energ DENC   =    -50476.55488451
  -exchange      EXHF   =         0.00000000
  -V(xc)+E(xc)   XCENC  =       420.79915507
  PAW double counting   =      6525.96553977    -6260.36035765
  entropy T*S    EENTRO =        -0.00000000
  eigenvalues    EBANDS =     -2759.95549331
  atomic energy  EATOM  =      8369.52358910
  ---------------------------------------------------
  free energy    TOTEN  =       274.74953836 eV

  energy without entropy =      274.74953836  energy(sigma->0) =      274.74953836


--------------------------------------------------------------------------------------------------------




--------------------------------------- Iteration      1(   3)  ---------------------------------------


    TRIAL :  cpu time    6.3747: real time    6.4355
    CORREC:  cpu time    0.0001: real time    0.0001
    --------------------------------------------
      LOOP:  cpu time    6.4117: real time    6.4753

 eigenvalue-minimisations  :   336
 total energy-change (2. order) :-0.7448451E+03  (-0.7371698E+03)
 number of electron     216.0000000 magnetization 
 augmentation part      216.0000000 magnetization 

 Free energy of the ion-electron system (eV)
  ---------------------------------------------------
  alpha Z        PSCENC =        47.94900195
  Ewald energy   TEWEN  =     44407.38298792
  -Hartree energ DENC   =    -50476.55488451
  -exchange      EXHF   =         0.00000000
  -V(xc)+E(xc)   XCENC  =       420.79915507
  PAW double counting   =      6525.96553977    -6260.36035765
  entropy T*S    EENTRO =        -0.00000000
  eigenvalues    EBANDS =     -3504.80062338
  atomic energy  EATOM  =      8369.52358910
  ---------------------------------------------------
  free energy    TOTEN  =      -470.09559172 eV

  energy without entropy =     -470.09559172  energy(sigma->0) =     -470.09559172


--------------------------------------------------------------------------------------------------------




--------------------------------------- Iteration      1(   4)  ---------------------------------------


    TRIAL :  cpu time    6.3819: real time    6.4383
    CORREC:  cpu time    0.0001: real time    0.0001
    --------------------------------------------
      LOOP:  cpu time    6.3959: real time    6.4728

 eigenvalue-minimisations  :   336
 total energy-change (2. order) :-0.4654105E+02  (-0.4621342E+02)
 number of electron     216.0000000 magnetization 
 augmentation part      216.0000000 magnetization 

 Free energy of the ion-electron system (eV)
  ---------------------------------------------------
  alpha Z        PSCENC =        47.94900195
  Ewald energy   TEWEN  =     44407.38298792
  -Hartree energ DENC   =    -50476.55488451
  -exchange      EXHF   =         0.00000000
  -V(xc)+E(xc)   XCENC  =       420.79915507
  PAW double counting   =      6525.96553977    -6260.36035765
  entropy T*S    EENTRO =        -0.00000000
  eigenvalues    EBANDS =     -3551.34167787
  atomic energy  EATOM  =      8369.52358910
  ---------------------------------------------------
  free energy    TOTEN  =      -516.63664620 eV

  energy without entropy =     -516.63664620  energy(sigma->0) =     -516.63664620


--------------------------------------------------------------------------------------------------------




--------------------------------------- Iteration      1(   5)  ---------------------------------------


    TRIAL :  cpu time    8.0583: real time    8.1277
    CORREC:  cpu time    0.0001: real time    0.0001
    CHARGE:  cpu time    0.3162: real time    0.3191
    --------------------------------------------
      LOOP:  cpu time    8.4255: real time    8.5188

 eigenvalue-minimisations  :   448
 total energy-change (2. order) :-0.1408255E+01  (-0.1404428E+01)
 number of electron     216.0000000 magnetization 
 augmentation part       -0.2633943 magnetization 

 Free energy of the ion-electron system (eV)
  ---------------------------------------------------
  alpha Z        PSCENC =        47.94900195
  Ewald energy   TEWEN  =     44407.38298792
  -Hartree energ DENC   =    -50476.55488451
  -exchange      EXHF   =         0.00000000
  -V(xc)+E(xc)   XCENC  =       420.79915507
  PAW double counting   =      6525.96553977    -6260.36035765
  entropy T*S    EENTRO =        -0.00000000
  eigenvalues    EBANDS =     -3552.74993262
  atomic energy  EATOM  =      8369.52358910
  ---------------------------------------------------
  free energy    TOTEN  =      -518.04490095 eV

  energy without entropy =     -518.04490095  energy(sigma->0) =     -518.04490095


--------------------------------------------------------------------------------------------------------




--------------------------------------- Iteration      1(   6)  ---------------------------------------


    POTLOK:  cpu time    0.3770: real time    0.3801
    SETDIJ:  cpu time    0.0031: real time    0.0032
    TRIAL :  cpu time    2.6563: real time    2.6850
    CORREC:  cpu time    1.0670: real time    1.0768
    CHARGE:  cpu time    0.3137: real time    0.3162
    --------------------------------------------
      LOOP:  cpu time    4.4591: real time    4.5064

 eigenvalue-minimisations  :     0
 total energy-change (2. order) : 0.5140751E+02  (-0.1555622E+02)
 number of electron     216.0000000 magnetization 
 augmentation part       -0.3637327 magnetization 

 Free energy of the ion-electron system (eV)
  ---------------------------------------------------
  alpha Z        PSCENC =        47.94900195
  Ewald energy   TEWEN  =     44407.38298792
  -Hartree energ DENC   =    -51916.62451418
  -exchange      EXHF   =         0.00000000
  -V(xc)+E(xc)   XCENC  =       469.03364595
  PAW double counting   =     89585.03719496   -89327.72329455
  entropy T*S    EENTRO =        -0.00000000
  eigenvalues    EBANDS =     -2101.21599905
  atomic energy  EATOM  =      8369.52358910
  ---------------------------------------------------
  free energy    TOTEN  =      -466.63738790 eV

  energy without entropy =     -466.63738790  energy(sigma->0) =     -466.63738790


--------------------------------------------------------------------------------------------------------




--------------------------------------- Iteration      1(   7)  ---------------------------------------


    POTLOK:  cpu time    0.3818: real time    0.3846
    SETDIJ:  cpu time    0.0034: real time    0.0034
    TRIAL :  cpu time    2.6465: real time    2.6822
    CORREC:  cpu time    1.0723: real time    1.0803
    CHARGE:  cpu time    0.3153: real time    0.3176
    --------------------------------------------
      LOOP:  cpu time    4.4613: real time    4.5104

 eigenvalue-minimisations  :     0
 total energy-change (2. order) :-0.1559783E+02  (-0.1817751E+01)
 number of electron     216.0000000 magnetization 
 augmentation part       -0.4119326 magnetization 

 Free energy of the ion-electron system (eV)
  ---------------------------------------------------
  alpha Z        PSCENC =        47.94900195
  Ewald energy   TEWEN  =     44407.38298792
  -Hartree energ DENC   =    -51405.11116741
  -exchange      EXHF   =         0.00000000
  -V(xc)+E(xc)   XCENC  =       451.93146276
  PAW double counting   =    105767.89409402  -105507.74595575
  entropy T*S    EENTRO =        -0.00000000
  eigenvalues    EBANDS =     -2614.05922963
  atomic energy  EATOM  =      8369.52358910
  ---------------------------------------------------
  free energy    TOTEN  =      -482.23521703 eV

  energy without entropy =     -482.23521703  energy(sigma->0) =     -482.23521703


--------------------------------------------------------------------------------------------------------




--------------------------------------- Iteration      1(   8)  ---------------------------------------


    POTLOK:  cpu time    0.3799: real time    0.3824
    SETDIJ:  cpu time    0.0031: real time    0.0031
    TRIAL :  cpu time    2.6598: real time    2.6832
    CORREC:  cpu time    1.0743: real time    1.0827
    CHARGE:  cpu time    0.3143: real time    0.3166
    --------------------------------------------
      LOOP:  cpu time    4.5195: real time    4.5605

 eigenvalue-minimisations  :     0
 total energy-change (2. order) :-0.1816421E+01  (-0.4729933E+00)
 number of electron     216.0000000 magnetization 
 augmentation part       -0.4295553 magnetization 

 Free energy of the ion-electron system (eV)
  ---------------------------------------------------
  alpha Z        PSCENC =        47.94900195
  Ewald energy   TEWEN  =     44407.38298792
  -Hartree energ DENC   =    -51376.96824790
  -exchange      EXHF   =         0.00000000
  -V(xc)+E(xc)   XCENC  =       451.35023117
  PAW double counting   =    110149.45295073  -109888.89125530
  entropy T*S    EENTRO =        -0.00000000
  eigenvalues    EBANDS =     -2643.85089532
  atomic energy  EATOM  =      8369.52358910
  ---------------------------------------------------
  free energy    TOTEN  =      -484.05163763 eV

  energy without entropy =     -484.05163763  energy(sigma->0) =     -484.05163763


--------------------------------------------------------------------------------------------------------




--------------------------------------- Iteration      1(   9)  ---------------------------------------


    POTLOK:  cpu time    0.3800: real time    0.3825
    SETDIJ:  cpu time    0.0032: real time    0.0033
    TRIAL :  cpu time    2.6423: real time    2.6837
    CORREC:  cpu time    1.0762: real time    1.0846
    CHARGE:  cpu time    0.3146: real time    0.3167
    --------------------------------------------
      LOOP:  cpu time    4.4451: real time    4.5038

 eigenvalue-minimisations  :     0
 total energy-change (2. order) :-0.4728849E+00  (-0.1503103E+00)
 number of electron     216.0000000 magnetization 
 augmentation part       -0.4372140 magnetization 

 Free energy of the ion-electron system (eV)
  ---------------------------------------------------
  alpha Z        PSCENC =        47.94900195
  Ewald energy   TEWEN  =     44407.38298792
  -Hartree energ DENC   =    -51394.27501520
  -exchange      EXHF   =         0.00000000
  -V(xc)+E(xc)   XCENC  =       451.55994464
  PAW double counting   =    112940.71900497  -112680.00498505
  entropy T*S    EENTRO =        -0.00000000
  eigenvalues    EBANDS =     -2627.37905091
  atomic energy  EATOM  =      8369.52358910
  ---------------------------------------------------
  free energy    TOTEN  =      -484.52452256 eV

  energy without entropy =     -484.52452256  energy(sigma->0) =     -484.52452256


--------------------------------------------------------------------------------------------------------




--------------------------------------- Iteration      1(  10)  ---------------------------------------


    POTLOK:  cpu time    0.3806: real time    0.3832
    SETDIJ:  cpu time    0.0032: real time    0.0032
    TRIAL :  cpu time    2.6544: real time    2.6788
    CORREC:  cpu time    1.0733: real time    1.0819
    CHARGE:  cpu time    0.3140: real time    0.3162
    --------------------------------------------
      LOOP:  cpu time    4.4792: real time    4.5174

 eigenvalue-minimisations  :     0
 total energy-change (2. order) :-0.1501132E+00  (-0.6050021E-01)
 number of electron     216.0000000 magnetization 
 augmentation part       -0.4379658 magnetization 

 Free energy of the ion-electron system (eV)
  ---------------------------------------------------
  alpha Z        PSCENC =        47.94900195
  Ewald energy   TEWEN  =     44407.38298792
  -Hartree energ DENC   =    -51395.55114130
  -exchange      EXHF   =         0.00000000
  -V(xc)+E(xc)   XCENC  =       451.48467829
  PAW double counting   =    113409.42046574  -113148.62303183
  entropy T*S    EENTRO =        -0.00000000
  eigenvalues    EBANDS =     -2626.26118559
  atomic energy  EATOM  =      8369.52358910
  ---------------------------------------------------
  free energy    TOTEN  =      -484.67463572 eV

  energy without entropy =     -484.67463572  energy(sigma->0) =     -484.67463572


--------------------------------------------------------------------------------------------------------




--------------------------------------- Iteration      1(  11)  ---------------------------------------


    POTLOK:  cpu time    0.3794: real time    0.3819
    SETDIJ:  cpu time    0.0033: real time    0.0033
    TRIAL :  cpu time    2.6537: real time    2.6775
    CORREC:  cpu time    1.0721: real time    1.0802
    CHARGE:  cpu time    0.3137: real time    0.3159
    --------------------------------------------
      LOOP:  cpu time    4.4807: real time    4.5200

 eigenvalue-minimisations  :     0
 total energy-change (2. order) :-0.6037031E-01  (-0.2490427E-01)
 number of electron     216.0000000 magnetization 
 augmentation part       -0.4374835 magnetization 

 Free energy of the ion-electron system (eV)
  ---------------------------------------------------
  alpha Z        PSCENC =        47.94900195
  Ewald energy   TEWEN  =     44407.38298792
  -Hartree energ DENC   =    -51391.54071224
  -exchange      EXHF   =         0.00000000
  -V(xc)+E(xc)   XCENC  =       451.42779634
  PAW double counting   =    112943.20067334  -112682.40289027
  entropy T*S    EENTRO =        -0.00000000
  eigenvalues    EBANDS =     -2630.27545217
  atomic energy  EATOM  =      8369.52358910
  ---------------------------------------------------
  free energy    TOTEN  =      -484.73500603 eV

  energy without entropy =     -484.73500603  energy(sigma->0) =     -484.73500603


--------------------------------------------------------------------------------------------------------




--------------------------------------- Iteration      1(  12)  ---------------------------------------


    POTLOK:  cpu time    0.3796: real time    0.3821
    SETDIJ:  cpu time    0.0035: real time    0.0035
    TRIAL :  cpu time    2.6593: real time    2.6827
    CORREC:  cpu time    1.0698: real time    1.0778
    CHARGE:  cpu time    0.3143: real time    0.3166
    --------------------------------------------
      LOOP:  cpu time    4.4706: real time    4.5096

 eigenvalue-minimisations  :     0
 total energy-change (2. order) :-0.2481599E-01  (-0.8570048E-02)
 number of electron     216.0000000 magnetization 
 augmentation part       -0.4375895 magnetization 

 Free energy of the ion-electron system (eV)
  ---------------------------------------------------
  alpha Z        PSCENC =        47.94900195
  Ewald energy   TEWEN  =     44407.38298792
  -Hartree energ DENC   =    -51389.67526907
  -exchange      EXHF   =         0.00000000
  -V(xc)+E(xc)   XCENC  =       451.39335182
  PAW double counting   =    112561.90354495  -112301.12823742
  entropy T*S    EENTRO =        -0.00000000
  eigenvalues    EBANDS =     -2632.10879127
  atomic energy  EATOM  =      8369.52358910
  ---------------------------------------------------
  free energy    TOTEN  =      -484.75982202 eV

  energy without entropy =     -484.75982202  energy(sigma->0) =     -484.75982202


--------------------------------------------------------------------------------------------------------




--------------------------------------- Iteration      1(  13)  ---------------------------------------


    POTLOK:  cpu time    0.3797: real time    0.3824
    SETDIJ:  cpu time    0.0033: real time    0.0033
    TRIAL :  cpu time    2.6565: real time    2.6800
    CORREC:  cpu time    1.0651: real time    1.0732
    CHARGE:  cpu time    0.3086: real time    0.3201
    --------------------------------------------
      LOOP:  cpu time    4.4391: real time    4.4891

 eigenvalue-minimisations  :     0
 total energy-change (2. order) :-0.8555043E-02  (-0.2540656E-02)
 number of electron     216.0000000 magnetization 
 augmentation part       -0.4372450 magnetization 

 Free energy of the ion-electron system (eV)
  ---------------------------------------------------
  alpha Z        PSCENC =        47.94900195
  Ewald energy   TEWEN  =     44407.38298792
  -Hartree energ DENC   =    -51389.57777057
  -exchange      EXHF   =         0.00000000
  -V(xc)+E(xc)   XCENC  =       451.37982342
  PAW double counting   =    112449.72193558  -112188.95639796
  entropy T*S    EENTRO =        -0.00000000
  eigenvalues    EBANDS =     -2632.19154651
  atomic energy  EATOM  =      8369.52358910
  ---------------------------------------------------
  free energy    TOTEN  =      -484.76837707 eV

  energy without entropy =     -484.76837707  energy(sigma->0) =     -484.76837707


--------------------------------------------------------------------------------------------------------




--------------------------------------- Iteration      1(  14)  ---------------------------------------


    POTLOK:  cpu time    0.3750: real time    0.3776
    SETDIJ:  cpu time    0.0033: real time    0.0033
    TRIAL :  cpu time    2.6633: real time    2.6876
    CORREC:  cpu time    1.0645: real time    1.0727
    CHARGE:  cpu time    0.3141: real time    0.3163
    --------------------------------------------
      LOOP:  cpu time    4.4492: real time    4.4895

 eigenvalue-minimisations  :     0
 total energy-change (2. order) :-0.2541990E-02  (-0.7526969E-03)
 number of electron     216.0000000 magnetization 
 augmentation part       -0.4370298 magnetization 

 Free energy of the ion-electron system (eV)
  ---------------------------------------------------
  alpha Z        PSCENC =        47.94900195
  Ewald energy   TEWEN  =     44407.38298792
  -Hartree energ DENC   =    -51389.64669538
  -exchange      EXHF   =         0.00000000
  -V(xc)+E(xc)   XCENC  =       451.38043549
  PAW double counting   =    112485.34401988  -112224.58124681
  entropy T*S    EENTRO =        -0.00000000
  eigenvalues    EBANDS =     -2632.12301122
  atomic energy  EATOM  =      8369.52358910
  ---------------------------------------------------
  free energy    TOTEN  =      -484.77091906 eV

  energy without entropy =     -484.77091906  energy(sigma->0) =     -484.77091906


--------------------------------------------------------------------------------------------------------




--------------------------------------- Iteration      1(  15)  ---------------------------------------


    POTLOK:  cpu time    0.3708: real time    0.3732
    SETDIJ:  cpu time    0.0034: real time    0.0034
    TRIAL :  cpu time    2.6588: real time    2.6821
    CORREC:  cpu time    1.0658: real time    1.0740
    CHARGE:  cpu time    0.3145: real time    0.3175
    --------------------------------------------
      LOOP:  cpu time    4.4904: real time    4.5406

 eigenvalue-minimisations  :     0
 total energy-change (2. order) :-0.7545813E-03  (-0.2664676E-03)
 number of electron     216.0000000 magnetization 
 augmentation part       -0.4367384 magnetization 

 Free energy of the ion-electron system (eV)
  ---------------------------------------------------
  alpha Z        PSCENC =        47.94900195
  Ewald energy   TEWEN  =     44407.38298792
  -Hartree energ DENC   =    -51389.31461835
  -exchange      EXHF   =         0.00000000
  -V(xc)+E(xc)   XCENC  =       451.36594418
  PAW double counting   =    112516.18246038  -112255.41770450
  entropy T*S    EENTRO =        -0.00000000
  eigenvalues    EBANDS =     -2632.44333433
  atomic energy  EATOM  =      8369.52358910
  ---------------------------------------------------
  free energy    TOTEN  =      -484.77167364 eV

  energy without entropy =     -484.77167364  energy(sigma->0) =     -484.77167364


--------------------------------------------------------------------------------------------------------




--------------------------------------- Iteration      1(  16)  ---------------------------------------


    POTLOK:  cpu time    0.3722: real time    0.3747
    SETDIJ:  cpu time    0.0034: real time    0.0034
    TRIAL :  cpu time    2.6649: real time    2.6884
    CORREC:  cpu time    1.0665: real time    1.0746
    CHARGE:  cpu time    0.3146: real time    0.3169
    --------------------------------------------
      LOOP:  cpu time    4.4786: real time    4.5175

 eigenvalue-minimisations  :     0
 total energy-change (2. order) :-0.2676751E-03  (-0.1068357E-03)
 number of electron     216.0000000 magnetization 
 augmentation part       -0.4365719 magnetization 

 Free energy of the ion-electron system (eV)
  ---------------------------------------------------
  alpha Z        PSCENC =        47.94900195
  Ewald energy   TEWEN  =     44407.38298792
  -Hartree energ DENC   =    -51389.40840430
  -exchange      EXHF   =         0.00000000
  -V(xc)+E(xc)   XCENC  =       451.37021952
  PAW double counting   =    112493.96132690  -112233.19724823
  entropy T*S    EENTRO =        -0.00000000
  eigenvalues    EBANDS =     -2632.35341419
  atomic energy  EATOM  =      8369.52358910
  ---------------------------------------------------
  free energy    TOTEN  =      -484.77194131 eV

  energy without entropy =     -484.77194131  energy(sigma->0) =     -484.77194131


--------------------------------------------------------------------------------------------------------




--------------------------------------- Iteration      1(  17)  ---------------------------------------


    POTLOK:  cpu time    0.3712: real time    0.3737
    SETDIJ:  cpu time    0.0031: real time    0.0031
    TRIAL :  cpu time    2.6568: real time    2.6805
    CORREC:  cpu time    1.0659: real time    1.0743
    CHARGE:  cpu time    0.3150: real time    0.3173
    --------------------------------------------
      LOOP:  cpu time    4.4806: real time    4.5202

 eigenvalue-minimisations  :     0
 total energy-change (2. order) :-0.1073210E-03  (-0.4076078E-04)
 number of electron     216.0000000 magnetization 
 augmentation part       -0.4365745 magnetization 

 Free energy of the ion-electron system (eV)
  ---------------------------------------------------
  alpha Z        PSCENC =        47.94900195
  Ewald energy   TEWEN  =     44407.38298792
  -Hartree energ DENC   =    -51389.52172273
  -exchange      EXHF   =         0.00000000
  -V(xc)+E(xc)   XCENC  =       451.37376126
  PAW double counting   =    112461.92029622  -112201.15658396
  entropy T*S    EENTRO =        -0.00000000
  eigenvalues    EBANDS =     -2632.24337840
  atomic energy  EATOM  =      8369.52358910
  ---------------------------------------------------
  free energy    TOTEN  =      -484.77204863 eV

  energy without entropy =     -484.77204863  energy(sigma->0) =     -484.77204863


--------------------------------------------------------------------------------------------------------




--------------------------------------- Iteration      1(  18)  ---------------------------------------


    POTLOK:  cpu time    0.3734: real time    0.3758
    SETDIJ:  cpu time    0.0030: real time    0.0030
    TRIAL :  cpu time    2.6572: real time    2.6811
    CORREC:  cpu time    1.0636: real time    1.0718
    CHARGE:  cpu time    0.3142: real time    0.3166
    --------------------------------------------
      LOOP:  cpu time    4.4561: real time    4.5055

 eigenvalue-minimisations  :     0
 total energy-change (2. order) :-0.4073854E-04  (-0.1498793E-04)
 number of electron     216.0000000 magnetization 
 augmentation part       -0.4366303 magnetization 

 Free energy of the ion-electron system (eV)
  ---------------------------------------------------
  alpha Z        PSCENC =        47.94900195
  Ewald energy   TEWEN  =     44407.38298792
  -Hartree energ DENC   =    -51389.51042664
  -exchange      EXHF   =         0.00000000
  -V(xc)+E(xc)   XCENC  =       451.37302939
  PAW double counting   =    112452.77965346  -112192.01551471
  entropy T*S    EENTRO =        -0.00000000
  eigenvalues    EBANDS =     -2632.25440985
  atomic energy  EATOM  =      8369.52358910
  ---------------------------------------------------
  free energy    TOTEN  =      -484.77208937 eV

  energy without entropy =     -484.77208937  energy(sigma->0) =     -484.77208937


--------------------------------------------------------------------------------------------------------




--------------------------------------- Iteration      1(  19)  ---------------------------------------


    POTLOK:  cpu time    0.3725: real time    0.3748
    SETDIJ:  cpu time    0.0029: real time    0.0030
    TRIAL :  cpu time    2.6588: real time    2.6824
    CORREC:  cpu time    1.0669: real time    1.0752
    CHARGE:  cpu time    0.3151: real time    0.3173
    --------------------------------------------
      LOOP:  cpu time    4.4453: real time    4.4834

 eigenvalue-minimisations  :     0
 total energy-change (2. order) :-0.1472869E-04  (-0.5189874E-05)
 number of electron     216.0000000 magnetization 
 augmentation part       -0.4367033 magnetization 

 Free energy of the ion-electron system (eV)
  ---------------------------------------------------
  alpha Z        PSCENC =        47.94900195
  Ewald energy   TEWEN  =     44407.38298792
  -Hartree energ DENC   =    -51389.52322287
  -exchange      EXHF   =         0.00000000
  -V(xc)+E(xc)   XCENC  =       451.37384307
  PAW double counting   =    112457.64058549  -112196.87626589
  entropy T*S    EENTRO =        -0.00000000
  eigenvalues    EBANDS =     -2632.24262288
  atomic energy  EATOM  =      8369.52358910
  ---------------------------------------------------
  free energy    TOTEN  =      -484.77210410 eV

  energy without entropy =     -484.77210410  energy(sigma->0) =     -484.77210410


--------------------------------------------------------------------------------------------------------




--------------------------------------- Iteration      1(  20)  ---------------------------------------


    POTLOK:  cpu time    0.3713: real time    0.3737
    SETDIJ:  cpu time    0.0033: real time    0.0033
    TRIAL :  cpu time    2.6615: real time    2.6854
    CORREC:  cpu time    1.0753: real time    1.0838
    CHARGE:  cpu time    0.3139: real time    0.3167
    --------------------------------------------
      LOOP:  cpu time    4.5060: real time    4.5544

 eigenvalue-minimisations  :     0
 total energy-change (2. order) :-0.4913221E-05  (-0.1831993E-05)
 number of electron     216.0000000 magnetization 
 augmentation part       -0.4367166 magnetization 

 Free energy of the ion-electron system (eV)
  ---------------------------------------------------
  alpha Z        PSCENC =        47.94900195
  Ewald energy   TEWEN  =     44407.38298792
  -Hartree energ DENC   =    -51389.52079566
  -exchange      EXHF   =         0.00000000
  -V(xc)+E(xc)   XCENC  =       451.37328228
  PAW double counting   =    112463.41777070  -112202.65314548
  entropy T*S    EENTRO =        -0.00000000
  eigenvalues    EBANDS =     -2632.24479983
  atomic energy  EATOM  =      8369.52358910
  ---------------------------------------------------
  free energy    TOTEN  =      -484.77210901 eV

  energy without entropy =     -484.77210901  energy(sigma->0) =     -484.77210901


--------------------------------------------------------------------------------------------------------




--------------------------------------- Iteration      1(  21)  ---------------------------------------


    POTLOK:  cpu time    0.3689: real time    0.3713
    SETDIJ:  cpu time    0.0032: real time    0.0032
    TRIAL :  cpu time    2.6568: real time    2.6804
    CORREC:  cpu time    1.0645: real time    1.0725
    CHARGE:  cpu time    0.3139: real time    0.3162
    --------------------------------------------
      LOOP:  cpu time    4.4496: real time    4.4897

 eigenvalue-minimisations  :     0
 total energy-change (2. order) :-0.1710767E-05  (-0.7556084E-06)
 number of electron     216.0000000 magnetization 
 augmentation part       -0.4367249 magnetization 

 Free energy of the ion-electron system (eV)
  ---------------------------------------------------
  alpha Z        PSCENC =        47.94900195
  Ewald energy   TEWEN  =     44407.38298792
  -Hartree energ DENC   =    -51389.53898028
  -exchange      EXHF   =         0.00000000
  -V(xc)+E(xc)   XCENC  =       451.37413734
  PAW double counting   =    112465.29551277  -112204.53102127
  entropy T*S    EENTRO =        -0.00000000
  eigenvalues    EBANDS =     -2632.22733826
  atomic energy  EATOM  =      8369.52358910
  ---------------------------------------------------
  free energy    TOTEN  =      -484.77211072 eV

  energy without entropy =     -484.77211072  energy(sigma->0) =     -484.77211072


--------------------------------------------------------------------------------------------------------




--------------------------------------- Iteration      1(  22)  ---------------------------------------


    POTLOK:  cpu time    0.3719: real time    0.3742
    SETDIJ:  cpu time    0.0032: real time    0.0033
    TRIAL :  cpu time    2.6558: real time    2.6797
    CORREC:  cpu time    1.0659: real time    1.0741
    EDDIAG:  cpu time    0.5953: real time    0.6008
    CHARGE:  cpu time    0.3134: real time    0.3156
    --------------------------------------------
      LOOP:  cpu time    5.0920: real time    5.1400

 eigenvalue-minimisations  :     0
 total energy-change (2. order) :-0.7297203E-06  (-0.3512175E-06)
 number of electron     216.0000000 magnetization 
 augmentation part       -0.4367205 magnetization 

 Free energy of the ion-electron system (eV)
  ---------------------------------------------------
  alpha Z        PSCENC =        47.94900195
  Ewald energy   TEWEN  =     44407.38298792
  -Hartree energ DENC   =    -51389.52721750
  -exchange      EXHF   =         0.00000000
  -V(xc)+E(xc)   XCENC  =       451.37359757
  PAW double counting   =    112464.89185350  -112204.12732364
  entropy T*S    EENTRO =        -0.00000000
  eigenvalues    EBANDS =     -2632.23860035
  atomic energy  EATOM  =      8369.52358910
  ---------------------------------------------------
  free energy    TOTEN  =      -484.77211145 eV

  energy without entropy =     -484.77211145  energy(sigma->0) =     -484.77211145


--------------------------------------------------------------------------------------------------------


  average scaling for gradient   0.9296


 average (electrostatic) potential at core
  the test charge radii are     0.5770  0.5955
  (the norm of the test charge is              1.0000)
       1 -85.6366       2 -85.6354       3 -85.6378       4 -85.6397       5 -85.6338
       6 -85.6331       7 -85.6375       8 -85.6349       9 -85.6350      10 -85.6371
      11 -85.6332      12 -85.6338      13 -85.6368      14 -85.6348      15 -85.6330
      16 -85.6336      17 -85.6346      18 -85.6356      19 -85.6364      20 -85.6348
      21 -85.6329      22 -85.6325      23 -85.6407      24 -85.6404      25 -85.6328
      26 -85.6336      27 -85.6354      28 -85.6374      29 -85.6331      30 -85.6329
      31 -85.6387      32 -85.6371      33 -85.6342      34 -85.6335      35 -85.6335
      36 -85.6341      37 -85.6353      38 -85.6361      39 -85.6362      40 -85.6358
      41 -85.6359      42 -85.6366      43 -85.6347      44 -85.6366      45 -85.6330
      46 -85.6334      47 -85.6338      48 -85.6332      49 -85.6358      50 -85.6349
      51 -89.5718      52-120.3511      53-120.3506
 
 
 
 E-fermi :  -4.3016     XC(G=0):  -1.9247     alpha+bet : -1.6890

 Fermi energy:        -4.3015774000

 k-point     1 :       0.0000    0.0000    0.0000
  band No.  band energies     occupation 
      1     -27.6726      2.00000
      2     -26.6674      2.00000
      3     -22.3851      2.00000
      4     -21.4456      2.00000
      5     -21.4452      2.00000
      6     -21.4452      2.00000
      7     -21.4438      2.00000
      8     -21.4430      2.00000
      9     -21.4430      2.00000
     10     -19.6006      2.00000
     11     -19.6003      2.00000
     12     -19.6001      2.00000
     13     -19.5997      2.00000
     14     -19.5997      2.00000
     15     -19.5996      2.00000
     16     -18.7026      2.00000
     17     -18.7025      2.00000
     18     -18.7023      2.00000
     19     -18.7017      2.00000
     20     -18.7015      2.00000
     21     -18.7013      2.00000
     22     -16.5349      2.00000
     23     -16.5346      2.00000
     24     -16.5338      2.00000
     25     -16.5337      2.00000
     26     -16.5329      2.00000
     27     -16.5328      2.00000
     28     -15.5487      2.00000
     29     -15.5486      2.00000
     30     -15.5482      2.00000
     31     -15.5481      2.00000
     32     -15.5474      2.00000
     33     -15.5473      2.00000
     34     -14.1953      2.00000
     35     -14.1952      2.00000
     36     -14.1946      2.00000
     37     -14.1945      2.00000
     38     -14.1944      2.00000
     39     -14.1941      2.00000
     40     -12.4760      2.00000
     41     -11.8063      2.00000
     42     -11.8061      2.00000
     43     -11.8056      2.00000
     44     -11.8056      2.00000
     45     -11.8046      2.00000
     46     -11.8044      2.00000
     47     -11.7095      2.00000
     48     -11.7095      2.00000
     49     -11.7089      2.00000
     50     -11.7089      2.00000
     51     -11.7081      2.00000
     52     -11.7079      2.00000
     53     -11.2866      2.00000
     54     -11.2218      2.00000
     55     -11.2216      2.00000
     56     -10.4769      2.00000
     57     -10.3323      2.00000
     58     -10.3321      2.00000
     59     -10.3307      2.00000
     60     -10.3303      2.00000
     61     -10.3302      2.00000
     62     -10.3301      2.00000
     63      -9.3627      2.00000
     64      -9.3617      2.00000
     65      -9.3602      2.00000
     66      -9.3593      2.00000
     67      -9.3578      2.00000
     68      -9.3578      2.00000
     69      -9.0523      2.00000
     70      -9.0517      2.00000
     71      -9.0514      2.00000
     72      -9.0511      2.00000
     73      -9.0505      2.00000
     74      -9.0504      2.00000
     75      -9.0035      2.00000
     76      -9.0034      2.00000
     77      -9.0031      2.00000
     78      -9.0031      2.00000
     79      -9.0025      2.00000
     80      -9.0017      2.00000
     81      -7.6753      2.00000
     82      -7.6751      2.00000
     83      -7.3962      2.00000
     84      -7.3950      2.00000
     85      -7.3947      2.00000
     86      -7.3941      2.00000
     87      -7.3928      2.00000
     88      -7.3928      2.00000
     89      -7.2310      2.00000
     90      -7.2309      2.00000
     91      -7.2308      2.00000
     92      -7.2304      2.00000
     93      -7.2302      2.00000
     94      -7.2300      2.00000
     95      -6.3354      2.00000
     96      -6.3344      2.00000
     97      -6.3340      2.00000
     98      -6.3338      2.00000
     99      -6.3335      2.00000
    100      -6.3331      2.00000
    101      -5.9067      2.00000
    102      -5.9046      2.00000
    103      -4.3519      2.00000
    104      -4.3518      2.00000
    105      -4.3515      2.00000
    106      -4.3511      2.00000
    107      -4.3493      2.00000
    108      -4.3491      2.00000
    109      -1.5494      0.00000
    110      -1.5491      0.00000
    111      -1.5477      0.00000
    112      -1.5474      0.00000
    113      -1.5472      0.00000
    114      -1.5471      0.00000
    115       0.1124      0.00000
    116       0.3146      0.00000
    117       0.3153      0.00000
    118       0.3158      0.00000
    119       0.3165      0.00000
    120       0.3167      0.00000
    121       0.3189      0.00000
    122       0.6365      0.00000
    123       0.8332      0.00000
    124       1.1702      0.00000
    125       1.3366      0.00000
    126       1.4683      0.00000
    127       1.5693      0.00000
    128       1.6086      0.00000
    129       1.6677      0.00000
    130       1.6737      0.00000
    131       1.6861      0.00000
    132       1.8658      0.00000
    133       2.0596      0.00000
    134       2.0597      0.00000
    135       2.0617      0.00000
    136       2.0704      0.00000
    137       2.0903      0.00000
    138       2.8302      0.00000
    139       2.9113      0.00000
    140       3.2012      0.00000


--------------------------------------------------------------------------------------------------------


 soft charge-density along one line, spin component           1
         0         1         2         3         4         5         6         7         8         9
 total charge-density along one line
 
 pseudopotential strength for first ion, spin component:           1
 12.703  21.376   0.000   0.000   0.000   0.000   0.000   0.000
 21.376  35.970   0.000   0.000   0.000   0.000   0.000   0.000
  0.000   0.000  -3.169  -0.000   0.000  -5.681  -0.000   0.000
  0.000   0.000  -0.000  -3.171  -0.000  -0.000  -5.683  -0.000
  0.000   0.000   0.000  -0.000  -3.169   0.000  -0.000  -5.681
  0.000   0.000  -5.681  -0.000   0.000 -10.161  -0.000   0.000
  0.000   0.000  -0.000  -5.683  -0.000  -0.000 -10.163  -0.000
  0.000   0.000   0.000  -0.000  -5.681   0.000  -0.000 -10.161
 total augmentation occupancy for first ion, spin component:           1
  7.880  -2.765  -0.000  -0.002  -0.000   0.000   0.001   0.000
 -2.765   1.007   0.000   0.001   0.000  -0.000  -0.000  -0.000
 -0.000   0.000   7.264  -0.008   0.000  -2.462   0.003  -0.000
 -0.002   0.001  -0.008   3.235  -0.000   0.003  -0.862   0.000
 -0.000   0.000   0.000  -0.000   7.263  -0.000   0.000  -2.462
  0.000  -0.000  -2.462   0.003  -0.000   0.849  -0.001   0.000
  0.001  -0.000   0.003  -0.862   0.000  -0.001   0.236  -0.000
  0.000  -0.000  -0.000   0.000  -2.462   0.000  -0.000   0.849


------------------------ aborting loop because EDIFF is reached ----------------------------------------


    FORLOC:  cpu time    0.0671: real time    0.0677
    FORNL :  cpu time    1.0747: real time    1.0875
    FORCOR:  cpu time    0.3925: real time    0.3951
    OFIELD:  cpu time    0.0017: real time    0.0018

 ---------------------------------------------------------------------------------------------

         DFTD3 V3.0 Rev 1        
 IVDW         = 11
 DF pbe       
 parameters
 VDW_S6       =    1.0000
 VDW_S8       =    0.7220
 VDW_SR       =    1.2170
 rs18     =    1.0000
 alpha6   =   14.0000
 alpha8   =   16.0000
 k1-k3    =   16.0000    1.3333   -4.0000
 VDW_RADIUS   =   50.2022 A
 VDW_CNRADIUS =   21.1671 A
 Edisp (eV)   -1.75058

 E6    (eV) :    -0.9936
 E8    (eV) :    -0.7570
 % E8        : 43.24
    FORVDW:  cpu time    0.1607: real time    0.1627

 VOLUME and BASIS-vectors are now :
 -----------------------------------------------------------------------------
  energy-cutoff  :     1000.00
  volume of cell :     3288.85
      direct lattice vectors                 reciprocal lattice vectors
    12.325000000  0.000000000  0.000000000     0.081135903  0.046843835  0.000000000
    -6.162500000 10.673763102  0.000000000     0.000000000  0.093687670  0.000000000
     0.000000000  0.000000000 25.000000000     0.000000000  0.000000000  0.040000000

  length of vectors
    12.325000000 12.325000000 25.000000000     0.093687670  0.093687670  0.040000000


 FORCES acting on ions:
    Electron-Ion                     Ewald-Force                    Non-Local-Force
 -----------------------------------------------------------------------------------------------
   0.377E+01 0.327E+01 0.233E+02   -.377E+01 -.327E+01 -.233E+02   0.766E-02 -.111E-02 0.745E-02
   0.548E+01 0.267E+01 0.264E+02   -.549E+01 -.267E+01 -.264E+02   0.836E-02 -.459E-02 -.571E-02
   0.235E+01 0.630E+01 0.285E+02   -.235E+01 -.631E+01 -.286E+02   -.616E-03 0.171E-01 0.496E-02
   0.311E+01 0.450E+01 0.352E+02   -.312E+01 -.451E+01 -.352E+02   0.161E-01 0.291E-02 -.258E-02
   0.402E+01 0.954E+00 0.235E+02   -.402E+01 -.952E+00 -.235E+02   0.204E-02 -.792E-02 0.390E-03
   0.413E+01 -.813E+00 0.238E+02   -.413E+01 0.816E+00 -.238E+02   -.672E-02 0.212E-02 -.734E-02
   0.589E+01 0.215E+01 0.334E+02   -.590E+01 -.215E+01 -.334E+02   0.189E-01 -.227E-01 -.214E-02
   0.571E+01 -.204E+01 0.347E+02   -.572E+01 0.205E+01 -.347E+02   -.170E-03 -.989E-02 -.744E-02
   -.281E+01 0.569E+01 0.287E+02   0.282E+01 -.569E+01 -.287E+02   -.497E-02 -.843E-02 -.692E-02
   -.423E+01 0.356E+01 0.346E+02   0.425E+01 -.357E+01 -.346E+02   -.336E-01 0.202E-01 0.607E-02
   0.105E+01 -.103E+01 0.212E+02   -.104E+01 0.103E+01 -.212E+02   0.215E-02 -.230E-02 -.288E-02
   0.904E+00 -.757E+00 0.205E+02   -.901E+00 0.756E+00 -.205E+02   -.926E-02 0.426E-02 0.372E-02
   0.226E+01 -.485E+01 0.369E+02   -.227E+01 0.486E+01 -.369E+02   0.342E-01 -.131E-01 0.132E-02
   0.128E+01 -.632E+01 0.297E+02   -.129E+01 0.633E+01 -.297E+02   0.861E-02 0.250E-02 -.178E-01
   -.363E+01 0.223E+01 0.229E+02   0.363E+01 -.224E+01 -.229E+02   0.745E-02 -.356E-02 0.260E-02
   -.495E+01 0.147E+01 0.244E+02   0.496E+01 -.147E+01 -.244E+02   -.454E-02 0.765E-02 -.957E-02
   -.644E+00 -.254E+00 0.199E+02   0.650E+00 0.251E+00 -.199E+02   -.293E-02 0.125E-02 0.134E-02
   0.298E+00 0.224E+01 0.205E+02   -.296E+00 -.224E+01 -.205E+02   -.474E-02 0.283E-02 0.913E-02
   -.961E+00 -.593E+01 0.261E+02   0.956E+00 0.593E+01 -.261E+02   0.939E-02 -.449E-02 0.123E-02
   -.509E+00 -.335E+01 0.218E+02   0.503E+00 0.336E+01 -.218E+02   0.241E-02 -.307E-02 -.135E-02
   0.548E+01 -.242E+01 0.276E+02   -.548E+01 0.242E+01 -.275E+02   0.128E-02 -.489E-02 -.229E-01
   0.366E+01 -.304E+01 0.247E+02   -.366E+01 0.304E+01 -.247E+02   -.665E-02 0.545E-02 -.783E-02
   -.109E+01 0.207E+01 0.394E+02   0.109E+01 -.207E+01 -.394E+02   -.134E-01 0.135E-01 0.166E-01
   -.148E+01 -.324E+01 0.388E+02   0.148E+01 0.325E+01 -.388E+02   0.141E-01 -.192E-01 0.403E-02
   0.193E+01 -.765E+00 0.213E+02   -.192E+01 0.763E+00 -.213E+02   0.181E-02 -.189E-02 -.658E-02
   0.437E+00 0.169E+01 0.213E+02   -.434E+00 -.169E+01 -.213E+02   -.758E-02 0.480E-02 0.279E-02
   -.635E+01 0.875E+00 0.301E+02   0.637E+01 -.881E+00 -.301E+02   0.573E-02 0.110E-01 -.345E-02
   -.609E+01 -.242E+01 0.288E+02   0.610E+01 0.242E+01 -.288E+02   -.145E-01 0.112E-01 0.360E-02
   0.217E+01 -.434E+01 0.253E+02   -.217E+01 0.434E+01 -.253E+02   0.771E-02 0.129E-02 -.116E-01
   0.189E+00 -.183E+01 0.221E+02   -.193E+00 0.183E+01 -.221E+02   -.354E-02 0.268E-02 -.570E-02
   -.449E+01 -.469E+01 0.320E+02   0.450E+01 0.470E+01 -.320E+02   -.163E-01 -.107E-01 -.384E-02
   -.305E+01 -.565E+01 0.267E+02   0.306E+01 0.566E+01 -.267E+02   0.699E-03 -.557E-02 0.607E-02
   0.252E+00 0.100E+01 0.204E+02   -.255E+00 -.100E+01 -.204E+02   0.732E-02 -.561E-02 0.536E-02
   0.654E+00 0.983E+00 0.212E+02   -.657E+00 -.981E+00 -.211E+02   -.141E-02 0.378E-02 -.358E-02
   -.254E+01 0.402E+00 0.220E+02   0.254E+01 -.404E+00 -.220E+02   0.392E-02 -.173E-02 0.269E-02
   -.225E+01 -.951E+00 0.217E+02   0.225E+01 0.949E+00 -.217E+02   -.662E-02 0.377E-02 0.150E-02
   -.437E+01 -.227E+01 0.234E+02   0.438E+01 0.227E+01 -.234E+02   -.536E-02 0.166E-02 0.315E-02
   -.277E+01 -.221E+01 0.215E+02   0.277E+01 0.221E+01 -.215E+02   -.643E-02 0.151E-02 0.954E-02
   -.253E+01 -.325E+01 0.223E+02   0.253E+01 0.326E+01 -.223E+02   -.498E-02 -.116E-02 0.642E-02
   -.384E+00 -.838E+00 0.206E+02   0.384E+00 0.838E+00 -.206E+02   0.241E-02 -.233E-03 0.816E-02
   0.949E+00 0.236E+01 0.210E+02   -.949E+00 -.236E+01 -.210E+02   -.447E-02 0.355E-02 0.781E-02
   0.294E+01 0.459E+01 0.238E+02   -.294E+01 -.460E+01 -.238E+02   0.173E-02 0.130E-02 0.103E-01
   0.264E+00 0.399E+01 0.220E+02   -.258E+00 -.400E+01 -.220E+02   -.289E-02 0.352E-02 0.109E-02
   -.732E-01 0.628E+01 0.265E+02   0.793E-01 -.629E+01 -.265E+02   -.120E-01 0.546E-02 0.603E-02
   -.753E+00 0.145E+01 0.219E+02   0.755E+00 -.145E+01 -.219E+02   0.329E-02 -.277E-02 -.225E-02
   -.293E+01 0.362E+01 0.241E+02   0.293E+01 -.362E+01 -.241E+02   -.901E-02 0.184E-02 -.616E-02
   -.647E+00 -.167E+01 0.212E+02   0.644E+00 0.167E+01 -.212E+02   0.867E-02 -.215E-02 0.365E-02
   -.152E+01 0.573E+00 0.205E+02   0.151E+01 -.572E+00 -.205E+02   -.197E-02 0.280E-02 -.567E-02
   0.157E+00 -.105E+01 0.205E+02   -.159E+00 0.105E+01 -.205E+02   0.579E-02 -.380E-02 0.587E-02
   0.165E+01 0.119E+01 0.206E+02   -.166E+01 -.118E+01 -.206E+02   0.249E-02 0.115E-02 0.302E-02
   0.202E-01 0.126E-02 -.316E+03   -.242E-01 0.233E-02 0.316E+03   -.308E-02 0.209E-02 -.402E-02
   -.229E+03 0.156E+03 -.487E+03   0.279E+03 -.190E+03 0.491E+03   -.511E+02 0.348E+02 -.343E+01
   0.229E+03 -.156E+03 -.465E+03   -.279E+03 0.190E+03 0.462E+03   0.511E+02 -.348E+02 0.309E+01
 -----------------------------------------------------------------------------------------------
   -.639E-02 0.133E-01 0.343E+00   0.171E-12 -.142E-12 -.171E-12   0.584E-02 -.129E-01 -.343E+00
 
 
 POSITION                                       TOTAL-FORCE (eV/Angst)
 -----------------------------------------------------------------------------------
     11.98348      0.00342      0.01417         0.003027     -0.001269     -0.000812
     -0.34154      1.42665      0.01100        -0.001444     -0.000008     -0.002835
      2.12355      0.00315      0.01249        -0.001334      0.009400     -0.005417
      2.12326      1.42653      0.00641         0.011916      0.000920     -0.006185
     10.75099      2.13819      0.01213         0.000226     -0.005216      0.000196
     -1.57382      3.56123      0.01110        -0.008165      0.004996     -0.001238
      0.89078      2.13854      0.00548         0.008389     -0.017720      0.003568
      0.89099      3.56147      0.00181        -0.012785     -0.001761      0.012826
      4.58864      0.00346      0.01135         0.004189     -0.016485     -0.002847
      4.58894      1.42623      0.00646        -0.021643      0.012119      0.015296
      9.51854      4.27281      0.01369         0.006816     -0.003349      0.000318
     -2.80632      5.69591      0.01434        -0.006249      0.003265      0.000901
      2.12300      4.27302      0.00000         0.023067     -0.004144      0.021868
      2.12335      5.69594      0.00581        -0.001127      0.009794     -0.001973
      7.05344      0.00333      0.01399         0.008894     -0.005004     -0.000156
      7.05353      1.42635      0.01368        -0.001499      0.004598     -0.003454
      8.28610      6.40752      0.01601         0.003294     -0.001587     -0.000677
     -4.03885      7.83070      0.01636        -0.001955      0.000897      0.000002
      3.35586      6.40753      0.01007         0.004631      0.000421     -0.000958
      3.35599      7.83072      0.01320        -0.003447      0.000350     -0.000429
     -0.34146      4.27290      0.00723        -0.002049     -0.001145     -0.004017
     -0.34138      5.69591      0.00946        -0.008764      0.005918     -0.000814
      3.35624      2.13791      0.00222        -0.012443      0.011039      0.018831
      3.35573      3.56155      0.00139         0.012714     -0.014635      0.011019
     -1.57395      6.40758      0.01311         0.005945     -0.004133     -0.000484
     -1.57385      7.83068      0.01438        -0.004578      0.003686      0.000231
      5.82093      2.13784      0.01033         0.016850      0.004767     -0.002132
      5.82114      3.56097      0.01156        -0.005521      0.007562     -0.002963
      0.89092      6.40755      0.00907         0.004180      0.002051     -0.001895
      0.89106      7.83068      0.01235        -0.006985      0.003415      0.000497
      4.58871      4.27293      0.00850        -0.011527     -0.006068     -0.009320
      4.58852      5.69606      0.01149         0.001723     -0.000143     -0.003344
      9.51845      0.00337      0.01490         0.004565     -0.004541      0.000309
      9.51855      1.42644      0.01438        -0.005031      0.005695     -0.000218
      8.28593      2.13803      0.01453         0.006211     -0.003615      0.000758
      8.28613      3.56115      0.01464        -0.004088      0.001982      0.000158
      7.05356      4.27269      0.01457         0.003261     -0.001070     -0.000275
      7.05362      5.69588      0.01553        -0.002321      0.001317      0.000059
      5.82112      6.40755      0.01489        -0.002510      0.001711      0.000167
      5.82102      7.83073      0.01579         0.002607      0.000442     -0.000162
      7.05363      8.54227      0.01631        -0.004504      0.000901      0.001219
     -5.27149      9.96549      0.01495        -0.000406     -0.002270     -0.001770
     -2.80638      8.54234      0.01558         0.003454     -0.001727     -0.000953
     -2.80627      9.96553      0.01362        -0.005741     -0.000200     -0.003350
     -0.34149      8.54239      0.01378         0.005844     -0.004491      0.000387
     -0.34138      9.96550      0.01354        -0.005592      0.000000     -0.000977
      2.12343      8.54232      0.01336         0.005627     -0.001527      0.000944
      2.12354      9.96544      0.01469        -0.005608      0.003953     -0.001778
      4.58846      8.54235      0.01505         0.003531     -0.002826      0.001073
      4.58853      9.96550      0.01517        -0.003179      0.003350      0.000317
      3.04930      2.68154      5.29732        -0.006868      0.005606      0.020113
      4.02070      2.02068      5.36174        -0.520313      0.353625     -0.057546
      2.07767      3.34267      5.23786         0.526714     -0.358847      0.007919
 -----------------------------------------------------------------------------------
    total drift:                               -0.000551      0.000401      0.000731


--------------------------------------------------------------------------------------------------------



  FREE ENERGIE OF THE ION-ELECTRON SYSTEM (eV)
  ---------------------------------------------------
  free  energy   TOTEN  =      -486.52268976 eV

  energy  without entropy=     -486.52268976  energy(sigma->0) =     -486.52268976
 


--------------------------------------------------------------------------------------------------------


    POTLOK:  cpu time    0.3767: real time    0.3794


--------------------------------------------------------------------------------------------------------


     LOOP+:  cpu time  141.9668: real time  143.6253
    4ORBIT:  cpu time    0.0000: real time    0.0000

 total amount of memory used by VASP MPI-rank0   215378. kBytes
=======================================================================

   base      :      30000. kBytes
   nonl-proj :      57634. kBytes
   fftplans  :      45914. kBytes
   grid      :      67588. kBytes
   one-center:         43. kBytes
   wavefun   :      14199. kBytes
 
  
  
 General timing and accounting informations for this job:
 ========================================================
  
                  Total CPU time used (sec):      185.875
                            User time (sec):      172.794
                          System time (sec):       13.080
                         Elapsed time (sec):      188.885
  
                   Maximum memory used (kb):      590644.
                   Average memory used (kb):          N/A
  
                          Minor page faults:        64048
                          Major page faults:          102
                 Voluntary context switches:         3752
