 vasp.6.2.1 16May21 (build Nov 06 2021 14:46:37) complex                        
  
 executed on             LinuxIFC date 2025.04.16  22:26:37
 running on  112 total cores
 distrk:  each k-point on  112 cores,    1 groups
 distr:  one band on NCORE=   4 cores,   28 groups


--------------------------------------------------------------------------------------------------------


 INCAR:
   ALGO = Conjugate
   NCORE = 4
   ISMEAR = 0
   SIGMA = 0.01
   PREC = Accurate
   EDIFF = 1E-6
   ENCUT = 1000
   ISIF = 0
   IVDW = 11
   LWAVE = .FALSE.
   LCHARGE = .FALSE.
   SYMPREC = 1E-6

 POTCAR:    PAW_PBE C_h 06Feb2004                 
 POTCAR:    PAW_PBE O_h 06Feb2004                 
 -----------------------------------------------------------------------------
|                                                                             |
|           W    W    AA    RRRRR   N    N  II  N    N   GGGG   !!!           |
|           W    W   A  A   R    R  NN   N  II  NN   N  G    G  !!!           |
|           W    W  A    A  R    R  N N  N  II  N N  N  G       !!!           |
|           W WW W  AAAAAA  RRRRR   N  N N  II  N  N N  G  GGG   !            |
|           WW  WW  A    A  R   R   N   NN  II  N   NN  G    G                |
|           W    W  A    A  R    R  N    N  II  N    N   GGGG   !!!           |
|                                                                             |
|     For optimal performance we recommend to set                             |
|       NCORE = 2 up to number-of-cores-per-socket                            |
|     NCORE specifies how many cores store one orbital (NPAR=cpu/NCORE).      |
|     This setting can greatly improve the performance of VASP for DFT.       |
|     The default, NCORE=1 might be grossly inefficient on modern             |
|     multi-core architectures or massively parallel machines. Do your        |
|     own testing! More info at https://www.vasp.at/wiki/index.php/NCORE      |
|     Unfortunately you need to use the default for GW and RPA                |
|     calculations (for HF NCORE is supported but not extensively tested      |
|     yet).                                                                   |
|                                                                             |
 -----------------------------------------------------------------------------

 POTCAR:    PAW_PBE C_h 06Feb2004                 
   VRHFIN =C: s2p2                                                                                  
   LEXCH  = PE                                                                                      
   EATOM  =   147.1560 eV,   10.8157 Ry                                                             
                                                                                                    
   TITEL  = PAW_PBE C_h 06Feb2004                                                                   
   LULTRA =        F    use ultrasoft PP ?                                                          
   IUNSCR =        1    unscreen: 0-lin 1-nonlin 2-no                                               
   RPACOR =    0.800    partial core radius                                                         
   POMASS =   12.011; ZVAL   =    4.000    mass and valenz                                          
   RCORE  =    1.100    outmost cutoff radius                                                       
   RWIGS  =    1.630; RWIGS  =    0.863    wigner-seitz radius (au A)                               
   ENMAX  =  700.000; ENMIN  =  500.000 eV                                                          
   ICORE  =        2    local potential                                                             
   LCOR   =        T    correct aug charges                                                         
   LPAW   =        T    paw PP                                                                      
   EAUG   =  946.768                                                                                
   DEXC   =    0.000                                                                                
   RMAX   =    1.128    core radius for proj-oper                                                   
   RAUG   =    1.300    factor for augmentation sphere                                              
   RDEP   =    1.162    radius for radial grids                                                     
   RDEPT  =    1.088    core radius for aug-charge                                                  
                                                                                                    
   Atomic configuration                                                                             
    4 entries                                                                                       
     n  l   j            E        occ.                                                              
     1  0  0.50      -273.3789   2.0000                                                             
     2  0  0.50       -13.7508   2.0000                                                             
     2  1  0.50        -5.2854   2.0000                                                             
     3  2  1.50        -5.4423   0.0000                                                             
   Description                                                                                      
     l       E           TYP  RCUT    TYP  RCUT                                                     
     0    -13.7508458     23  1.100                                                                 
     0     -8.2022199     23  1.100                                                                 
     1     -5.2854383     23  1.100                                                                 
     1      1.1560700     23  1.100                                                                 
     2     -5.4423304      7  1.100                                                                 
  local pseudopotential read in
  partial core-charges read in
  partial kinetic energy density read in
  atomic valenz-charges read in
  non local Contribution for L=           0  read in
    real space projection operators read in
  non local Contribution for L=           0  read in
    real space projection operators read in
  non local Contribution for L=           1  read in
    real space projection operators read in
  non local Contribution for L=           1  read in
    real space projection operators read in
    PAW grid and wavefunctions read in
 
   number of l-projection  operators is LMAX  =           4
   number of lm-projection operators is LMMAX =           8
 
 POTCAR:    PAW_PBE O_h 06Feb2004                 
   VRHFIN =O: s2p4                                                                                  
   LEXCH  = PE                                                                                      
   EATOM  =   432.3788 eV,   31.7789 Ry                                                             
                                                                                                    
   TITEL  = PAW_PBE O_h 06Feb2004                                                                   
   LULTRA =        F    use ultrasoft PP ?                                                          
   IUNSCR =        1    unscreen: 0-lin 1-nonlin 2-no                                               
   RPACOR =    0.800    partial core radius                                                         
   POMASS =   16.000; ZVAL   =    6.000    mass and valenz                                          
   RCORE  =    1.100    outmost cutoff radius                                                       
   RWIGS  =    1.400; RWIGS  =    0.741    wigner-seitz radius (au A)                               
   ENMAX  =  700.000; ENMIN  =  500.000 eV                                                          
   ICORE  =        2    local potential                                                             
   LCOR   =        T    correct aug charges                                                         
   LPAW   =        T    paw PP                                                                      
   EAUG   =  888.804                                                                                
   DEXC   =    0.000                                                                                
   RMAX   =    1.128    core radius for proj-oper                                                   
   RAUG   =    1.300    factor for augmentation sphere                                              
   RDEP   =    1.125    radius for radial grids                                                     
   RDEPT  =    1.088    core radius for aug-charge                                                  
                                                                                                    
   Atomic configuration                                                                             
    4 entries                                                                                       
     n  l   j            E        occ.                                                              
     1  0  0.50      -514.6923   2.0000                                                             
     2  0  0.50       -23.9615   2.0000                                                             
     2  1  0.50        -9.0305   4.0000                                                             
     3  2  1.50        -9.5241   0.0000                                                             
   Description                                                                                      
     l       E           TYP  RCUT    TYP  RCUT                                                     
     0    -23.9615319     23  1.100                                                                 
     0    -25.3221145     23  1.100                                                                 
     1     -9.0304911     23  1.100                                                                 
     1     -5.4802209     23  1.100                                                                 
     2     -9.5240782      7  1.100                                                                 
  local pseudopotential read in
  partial core-charges read in
  partial kinetic energy density read in
  atomic valenz-charges read in
  non local Contribution for L=           0  read in
    real space projection operators read in
  non local Contribution for L=           0  read in
    real space projection operators read in
  non local Contribution for L=           1  read in
    real space projection operators read in
  non local Contribution for L=           1  read in
    real space projection operators read in
    PAW grid and wavefunctions read in
 
   number of l-projection  operators is LMAX  =           4
   number of lm-projection operators is LMMAX =           8
 
 -----------------------------------------------------------------------------
|                                                                             |
|               ----> ADVICE to this user running VASP <----                  |
|                                                                             |
|     You have a (more or less) 'large supercell' and for larger cells it     |
|     might be more efficient to use real-space projection operators.         |
|     Therefore, try LREAL= Auto in the INCAR file.                           |
|     Mind: For very accurate calculation, you might also keep the            |
|     reciprocal projection scheme (i.e. LREAL=.FALSE.).                      |
|                                                                             |
 -----------------------------------------------------------------------------

  PAW_PBE C_h 06Feb2004                 :
 energy of atom  1       EATOM= -147.1560
 kinetic energy error for atom=    0.0031 (will be added to EATOM!!)
  PAW_PBE O_h 06Feb2004                 :
 energy of atom  2       EATOM= -432.3788
 kinetic energy error for atom=    0.0171 (will be added to EATOM!!)
 
 
 POSCAR:  C  O
  positions in cartesian coordinates
  No initial velocities read in
 exchange correlation table for  LEXCH =        8
   RHO(1)=    0.500       N(1)  =     2000
   RHO(2)=  100.500       N(2)  =     4000
 


--------------------------------------------------------------------------------------------------------


 ion  position               nearest neighbor table
   1  0.972  0.000  0.001-  50 1.42   2 1.42  42 1.42
   2  0.039  0.134  0.000-   5 1.42   7 1.42   1 1.42
   3  0.172  0.000  0.000-  42 1.42  44 1.42   4 1.42
   4  0.239  0.134  0.000-   7 1.42   3 1.42  23 1.42
   5  0.972  0.200  0.000-   6 1.42   2 1.42  34 1.42
   6  0.039  0.334  0.000-   5 1.42  21 1.42  11 1.42
   7  0.172  0.200  0.000-   8 1.42   2 1.42   4 1.42
   8  0.239  0.334  0.000-  13 1.42   7 1.42  21 1.42
   9  0.372  0.000  0.000-  10 1.42  44 1.42  46 1.42
  10  0.439  0.134  0.000-  27 1.42   9 1.42  23 1.42
  11  0.972  0.400  0.001-  12 1.42  36 1.42   6 1.42
  12  0.039  0.534  0.001-  25 1.42  11 1.42  17 1.42
  13  0.372  0.400  0.000-   8 1.42  14 1.42  24 1.42
  14  0.439  0.534  0.000-  13 1.42  29 1.42  19 1.42
  15  0.572  0.000  0.001-  46 1.42  16 1.42  48 1.42
  16  0.639  0.134  0.001-  15 1.42  35 1.42  27 1.42
  17  0.972  0.600  0.001-  38 1.42  18 1.42  12 1.42
  18  0.039  0.734  0.001-  43 1.42  41 1.42  17 1.42
  19  0.572  0.600  0.000-  14 1.42  20 1.42  32 1.42
  20  0.639  0.734  0.001-  49 1.42  19 1.42  47 1.42
  21  0.172  0.400  0.000-  22 1.42   8 1.42   6 1.42
  22  0.239  0.534  0.000-  21 1.42  29 1.42  25 1.42
  23  0.372  0.200  0.000-  10 1.42   4 1.42  24 1.42
  24  0.439  0.334  0.000-  13 1.42  31 1.42  23 1.42
  25  0.172  0.600  0.001-  26 1.42  12 1.42  22 1.42
  26  0.239  0.734  0.001-  25 1.42  45 1.42  43 1.42
  27  0.572  0.200  0.000-  10 1.42  28 1.42  16 1.42
  28  0.639  0.334  0.000-  27 1.42  37 1.42  31 1.42
  29  0.372  0.600  0.000-  22 1.42  14 1.42  30 1.42
  30  0.439  0.734  0.000-  47 1.42  29 1.42  45 1.42
  31  0.572  0.400  0.000-  32 1.42  28 1.42  24 1.42
  32  0.639  0.534  0.000-  31 1.42  39 1.42  19 1.42
  33  0.772  0.000  0.001-  34 1.42  48 1.42  50 1.42
  34  0.839  0.134  0.001-  33 1.42   5 1.42  35 1.42
  35  0.772  0.200  0.001-  36 1.42  16 1.42  34 1.42
  36  0.839  0.334  0.001-  35 1.42  11 1.42  37 1.42
  37  0.772  0.400  0.001-  28 1.42  38 1.42  36 1.42
  38  0.839  0.534  0.001-  17 1.42  37 1.42  39 1.42
  39  0.772  0.600  0.001-  40 1.42  38 1.42  32 1.42
  40  0.839  0.734  0.001-  39 1.42  49 1.42  41 1.42
  41  0.972  0.800  0.001-  18 1.42  42 1.42  40 1.42
  42  0.039  0.934  0.001-   3 1.42  41 1.42   1 1.42
  43  0.172  0.800  0.001-  18 1.42  44 1.42  26 1.42
  44  0.239  0.934  0.001-   9 1.42  43 1.42   3 1.42
  45  0.372  0.800  0.001-  26 1.42  46 1.42  30 1.42
  46  0.439  0.934  0.001-  15 1.42  45 1.42   9 1.42
  47  0.572  0.800  0.001-  30 1.42  48 1.42  20 1.42
  48  0.639  0.934  0.001-  47 1.42  33 1.42  15 1.42
  49  0.772  0.800  0.001-  50 1.42  20 1.42  40 1.42
  50  0.839  0.934  0.001-  49 1.42   1 1.42  33 1.42
  51  0.373  0.251  0.168-  52 1.18  53 1.18
  52  0.421  0.189  0.171-  51 1.18
  53  0.325  0.313  0.166-  51 1.18
 
  LATTYP: Found a hexagonal cell.
 ALAT       =    12.3250000000
 C/A-ratio  =     2.0283975659
  
  Lattice vectors:
  
 A1 = (  12.3250000000,   0.0000000000,   0.0000000000)
 A2 = (  -6.1625000000,  10.6737631016,   0.0000000000)
 A3 = (   0.0000000000,   0.0000000000,  25.0000000000)


Analysis of symmetry for initial positions (statically):
=====================================================================
 Subroutine PRICEL returns:
 Original cell was already a primitive cell.
 

 Routine SETGRP: Setting up the symmetry group for a 
 hexagonal supercell.


 Subroutine GETGRP returns: Found  1 space group operations
 (whereof  1 operations were pure point group operations)
 out of a pool of 24 trial point group operations.


The static configuration has the point symmetry C_1 .


Analysis of symmetry for dynamics (positions and initial velocities):
=====================================================================
 Subroutine PRICEL returns:
 Original cell was already a primitive cell.
 

 Routine SETGRP: Setting up the symmetry group for a 
 hexagonal supercell.


 Subroutine GETGRP returns: Found  1 space group operations
 (whereof  1 operations were pure point group operations)
 out of a pool of 24 trial point group operations.


The dynamic configuration has the point symmetry C_1 .


 Subroutine INISYM returns: Found  1 space group operations
 (whereof  1 operations are pure point group operations),
 and found     1 'primitive' translations


----------------------------------------------------------------------------------------

                                     Primitive cell                                     

  volume of cell :    3288.8533

  direct lattice vectors                    reciprocal lattice vectors
    12.325000000  0.000000000  0.000000000     0.081135903  0.046843835  0.000000000
    -6.162500000 10.673763102  0.000000000     0.000000000  0.093687670  0.000000000
     0.000000000  0.000000000 25.000000000     0.000000000  0.000000000  0.040000000

  length of vectors
    12.325000000 12.325000000 25.000000000     0.093687670  0.093687670  0.040000000

  position of ions in fractional coordinates (direct lattice)
     0.972450841  0.000320818  0.000566711
     0.039118382  0.133659505  0.000440173
     0.172443627  0.000295449  0.000499628
     0.239096278  0.133647917  0.000256468
     0.972452058  0.200322012  0.000485219
     0.039128360  0.333643771  0.000444150
     0.172451764  0.200354552  0.000219167
     0.239124359  0.333665720  0.000072260
     0.372465565  0.000324403  0.000453913
     0.439137473  0.133619939  0.000258338
     0.972449824  0.400309362  0.000547611
     0.039124981  0.533636789  0.000573410
     0.372416176  0.400329481  0.000000000
     0.439099602  0.533638981  0.000232414
     0.572443676  0.000312125  0.000559580
     0.639110207  0.133631751  0.000547275
     0.972452703  0.600305653  0.000640289
     0.039124495  0.733640359  0.000654513
     0.572433471  0.600306242  0.000402895
     0.639111888  0.733641879  0.000527905
     0.172454630  0.400318228  0.000289045
     0.239120185  0.533636548  0.000378509
     0.372459750  0.200295993  0.000088997
     0.439107096  0.333673419  0.000055762
     0.172452155  0.600311506  0.000524340
     0.239123371  0.733638574  0.000575129
     0.572431082  0.200289171  0.000413296
     0.639112773  0.333618630  0.000462376
     0.372439808  0.600308022  0.000362844
     0.439116090  0.733637858  0.000494190
     0.572469358  0.400320504  0.000339918
     0.639119408  0.533650873  0.000459610
     0.772445723  0.000315427  0.000596161
     0.839116277  0.133640203  0.000575306
     0.772440513  0.200307432  0.000581033
     0.839120241  0.333635728  0.000585467
     0.772446320  0.400298367  0.000582978
     0.839118980  0.533633964  0.000621100
     0.772456143  0.600308173  0.000595712
     0.839115033  0.733643180  0.000631512
     0.972455313  0.800305582  0.000652233
     0.039114714  0.933643289  0.000598051
     0.172457971  0.800312211  0.000623372
     0.239134551  0.933647193  0.000544850
     0.372451396  0.800316674  0.000551399
     0.439124489  0.933644769  0.000541430
     0.572441101  0.800310054  0.000534535
     0.639115067  0.933638985  0.000587644
     0.772445098  0.800313187  0.000602062
     0.839116614  0.933644338  0.000606830
     0.373021009  0.251226878  0.168179283
     0.420879805  0.189313152  0.170756158
     0.325156981  0.313167186  0.165801088

  ion indices of the primitive-cell ions
   primitive index   ion index
                 1           1
                 2           2
                 3           3
                 4           4
                 5           5
                 6           6
                 7           7
                 8           8
                 9           9
                10          10
                11          11
                12          12
                13          13
                14          14
                15          15
                16          16
                17          17
                18          18
                19          19
                20          20
                21          21
                22          22
                23          23
                24          24
                25          25
                26          26
                27          27
                28          28
                29          29
                30          30
                31          31
                32          32
                33          33
                34          34
                35          35
                36          36
                37          37
                38          38
                39          39
                40          40
                41          41
                42          42
                43          43
                44          44
                45          45
                46          46
                47          47
                48          48
                49          49
                50          50
                51          51
                52          52
                53          53

----------------------------------------------------------------------------------------

 
 
 KPOINTS: auto                                    

Automatic generation of k-mesh.
 Grid dimensions read from file:
 generate k-points for:    1    1    1

 Generating k-lattice:

  Cartesian coordinates                     Fractional coordinates (reciprocal lattice)
     0.081135903  0.046843835  0.000000000     1.000000000 -0.000000000  0.000000000
     0.000000000  0.093687670  0.000000000     0.000000000  1.000000000  0.000000000
     0.000000000  0.000000000  0.040000000     0.000000000  0.000000000  1.000000000

  Length of vectors
     0.093687670  0.093687670  0.040000000

  Shift w.r.t. Gamma in fractional coordinates (k-lattice)
     0.000000000  0.000000000  0.000000000

 
 Subroutine IBZKPT returns following result:
 ===========================================
 
 Found      1 irreducible k-points:
 
 Following reciprocal coordinates:
            Coordinates               Weight
  0.000000  0.000000  0.000000      1.000000
 
 Following cartesian coordinates:
            Coordinates               Weight
  0.000000  0.000000  0.000000      1.000000
 


--------------------------------------------------------------------------------------------------------




 Dimension of arrays:
   k-points           NKPTS =      1   k-points in BZ     NKDIM =      1   number of bands    NBANDS=    140
   number of dos      NEDOS =    301   number of ions     NIONS =     53
   non local maximal  LDIM  =      4   non local SUM 2l+1 LMDIM =      8
   total plane-waves  NPLWV = ******
   max r-space proj   IRMAX =      1   max aug-charges    IRDMAX=  10008
   dimension x,y,z NGX =   128 NGY =  128 NGZ =  270
   dimension x,y,z NGXF=   256 NGYF=  256 NGZF=  540
   support grid    NGXF=   256 NGYF=  256 NGZF=  540
   ions per type =              51   2
   NGX,Y,Z   is equivalent  to a cutoff of  17.27, 17.27, 17.95 a.u.
   NGXF,Y,Z  is equivalent  to a cutoff of  34.53, 34.53, 35.91 a.u.

 SYSTEM =  unknown system                          
 POSCAR =   C  O                                   

 Startparameter for this run:
   NWRITE =      2    write-flag & timer
   PREC   = accura    normal or accurate (medium, high low for compatibility)
   ISTART =      0    job   : 0-new  1-cont  2-samecut
   ICHARG =      2    charge: 1-file 2-atom 10-const
   ISPIN  =      1    spin polarized calculation?
   LNONCOLLINEAR =      F non collinear calculations
   LSORBIT =      F    spin-orbit coupling
   INIWAV =      1    electr: 0-lowe 1-rand  2-diag
   LASPH  =      F    aspherical Exc in radial PAW
 Electronic Relaxation 1
   ENCUT  = 1000.0 eV  73.50 Ry    8.57 a.u.  31.78 31.78 64.46*2*pi/ulx,y,z
   ENINI  = 1000.0     initial cutoff
   ENAUG  =  946.8 eV  augmentation charge cutoff
   NELM   =     60;   NELMIN=  2; NELMDL= -5     # of ELM steps 
   EDIFF  = 0.1E-05   stopping-criterion for ELM
   LREAL  =      F    real-space projection
   NLSPLINE    = F    spline interpolate recip. space projectors
   LCOMPAT=      F    compatible to vasp.4.4
   GGA_COMPAT  = T    GGA compatible to vasp.4.4-vasp.4.6
   LMAXPAW     = -100 max onsite density
   LMAXMIX     =    2 max onsite mixed and CHGCAR
   VOSKOWN=      0    Vosko Wilk Nusair interpolation
   ROPT   =    0.00000   0.00000
 Ionic relaxation
   EDIFFG = 0.1E-04   stopping-criterion for IOM
   NSW    =      0    number of steps for IOM
   NBLOCK =      1;   KBLOCK =      1    inner block; outer block 
   IBRION =     -1    ionic relax: 0-MD 1-quasi-New 2-CG
   NFREE  =      0    steps in history (QN), initial steepest desc. (CG)
   ISIF   =      0    stress and relaxation
   IWAVPR =     10    prediction:  0-non 1-charg 2-wave 3-comb
   ISYM   =      2    0-nonsym 1-usesym 2-fastsym
   LCORR  =      T    Harris-Foulkes like correction to forces

   POTIM  = 0.5000    time-step for ionic-motion
   TEIN   =    0.0    initial temperature
   TEBEG  =    0.0;   TEEND  =   0.0 temperature during run
   SMASS  =  -3.00    Nose mass-parameter (am)
   estimated Nose-frequenzy (Omega)   =  0.10E-29 period in steps = 0.13E+47 mass=  -0.347E-26a.u.
   SCALEE = 1.0000    scale energy and forces
   NPACO  =    256;   APACO  = 16.0  distance and # of slots for P.C.
   PSTRESS=    0.0 pullay stress

  Mass of Ions in am
   POMASS =  12.01 16.00
  Ionic Valenz
   ZVAL   =   4.00  6.00
  Atomic Wigner-Seitz radii
   RWIGS  =  -1.00 -1.00
  virtual crystal weights 
   VCA    =   1.00  1.00
   NELECT =     216.0000    total number of electrons
   NUPDOWN=      -1.0000    fix difference up-down

 DOS related values:
   EMIN   =  10.00;   EMAX   =-10.00  energy-range for DOS
   EFERMI =   0.00
   ISMEAR =     0;   SIGMA  =   0.01  broadening in eV -4-tet -1-fermi 0-gaus

 Electronic relaxation 2 (details)
   IALGO  =     58    algorithm
   LDIAG  =      T    sub-space diagonalisation (order eigenvalues)
   LSUBROT=      F    optimize rotation matrix (better conditioning)
   TURBO    =      0    0=normal 1=particle mesh
   IRESTART =      0    0=no restart 2=restart with 2 vectors
   NREBOOT  =      0    no. of reboots
   NMIN     =      0    reboot dimension
   EREF     =   0.00    reference energy to select bands
   IMIX   =      4    mixing-type and parameters
     AMIX     =   0.40;   BMIX     =  1.00
     AMIX_MAG =   1.60;   BMIX_MAG =  1.00
     AMIN     =   0.10
     WC   =   100.;   INIMIX=   1;  MIXPRE=   1;  MAXMIX= -45

 Intra band minimization:
   WEIMIN = 0.0000     energy-eigenvalue tresh-hold
   EBREAK =  0.18E-08  absolut break condition
   DEPER  =   0.30     relativ break condition  

   TIME   =   0.40     timestep for ELM

  volume/ion in A,a.u.               =      62.05       418.76
  Fermi-wavevector in a.u.,A,eV,Ry     =   0.660508  1.248179  5.935820  0.436270
  Thomas-Fermi vector in A             =   1.732977
 
 Write flags
   LWAVE        =      F    write WAVECAR
   LDOWNSAMPLE  =      F    k-point downsampling of WAVECAR
   LCHARG       =      T    write CHGCAR
   LVTOT        =      F    write LOCPOT, total local potential
   LVHAR        =      F    write LOCPOT, Hartree potential only
   LELF         =      F    write electronic localiz. function (ELF)
   LORBIT       =      0    0 simple, 1 ext, 2 COOP (PROOUT), +10 PAW based schemes


 Dipole corrections
   LMONO  =      F    monopole corrections only (constant potential shift)
   LDIPOL =      F    correct potential (dipole corrections)
   IDIPOL =      0    1-x, 2-y, 3-z, 4-all directions 
   EPSILON=  1.0000000 bulk dielectric constant

 Exchange correlation treatment:
   GGA     =    --    GGA type
   LEXCH   =     8    internal setting for exchange type
   VOSKOWN=      0    Vosko Wilk Nusair interpolation
   LHFCALC =     F    Hartree Fock is set to
   LHFONE  =     F    Hartree Fock one center treatment
   AEXX    =    0.0000 exact exchange contribution

 Linear response parameters
   LEPSILON=     F    determine dielectric tensor
   LRPA    =     F    only Hartree local field effects (RPA)
   LNABLA  =     F    use nabla operator in PAW spheres
   LVEL    =     F    velocity operator in full k-point grid
   LINTERFAST=   F  fast interpolation
   KINTER  =     0    interpolate to denser k-point grid
   CSHIFT  =0.1000    complex shift for real part using Kramers Kronig
   OMEGAMAX=  -1.0    maximum frequency
   DEG_THRESHOLD= 0.2000000E-02 threshold for treating states as degnerate
   RTIME   =   -0.100 relaxation time in fs
  (WPLASMAI=    0.000 imaginary part of plasma frequency in eV, 0.658/RTIME)
   DFIELD  = 0.0000000 0.0000000 0.0000000 field for delta impulse in time
 
 Orbital magnetization related:
   ORBITALMAG=     F  switch on orbital magnetization
   LCHIMAG   =     F  perturbation theory with respect to B field
   DQ        =  0.001000  dq finite difference perturbation B field
   LLRAUG    =     F  two centre corrections for induced B field



--------------------------------------------------------------------------------------------------------


 Static calculation
 charge density and potential will be updated during run
 non-spin polarized calculation
 Conjugate gradient for all bands (Freysoldt, et al. PRB 79, 241103 (2009))
 preconditioned conjugated gradient                                        
 perform sub-space diagonalisation
    before iterative eigenvector-optimisation
 modified Broyden-mixing scheme, WC =      100.0
 initial mixing is a Kerker type mixing with AMIX =  0.4000 and BMIX =      1.0000
 Hartree-type preconditioning will be used
 using additional bands           32
 reciprocal scheme for non local part
 use partial core corrections
 no Harris-corrections to forces 
 use gradient corrections 
 use of overlap-Matrix (Vanderbilt PP)
 Gauss-broadening in eV      SIGMA  =   0.01


--------------------------------------------------------------------------------------------------------


  energy-cutoff  :     1000.00
  volume of cell :     3288.85
      direct lattice vectors                 reciprocal lattice vectors
    12.325000000  0.000000000  0.000000000     0.081135903  0.046843835  0.000000000
    -6.162500000 10.673763102  0.000000000     0.000000000  0.093687670  0.000000000
     0.000000000  0.000000000 25.000000000     0.000000000  0.000000000  0.040000000

  length of vectors
    12.325000000 12.325000000 25.000000000     0.093687670  0.093687670  0.040000000


 
 k-points in units of 2pi/SCALE and weight: auto                                    
   0.00000000  0.00000000  0.00000000       1.000
 
 k-points in reciprocal lattice and weights: auto                                    
   0.00000000  0.00000000  0.00000000       1.000
 
 position of ions in fractional coordinates (direct lattice) 
   0.97245084  0.00032082  0.00056671
   0.03911838  0.13365950  0.00044017
   0.17244363  0.00029545  0.00049963
   0.23909628  0.13364792  0.00025647
   0.97245206  0.20032201  0.00048522
   0.03912836  0.33364377  0.00044415
   0.17245176  0.20035455  0.00021917
   0.23912436  0.33366572  0.00007226
   0.37246557  0.00032440  0.00045391
   0.43913747  0.13361994  0.00025834
   0.97244982  0.40030936  0.00054761
   0.03912498  0.53363679  0.00057341
   0.37241618  0.40032948  0.00000000
   0.43909960  0.53363898  0.00023241
   0.57244368  0.00031213  0.00055958
   0.63911021  0.13363175  0.00054727
   0.97245270  0.60030565  0.00064029
   0.03912449  0.73364036  0.00065451
   0.57243347  0.60030624  0.00040289
   0.63911189  0.73364188  0.00052791
   0.17245463  0.40031823  0.00028904
   0.23912018  0.53363655  0.00037851
   0.37245975  0.20029599  0.00008900
   0.43910710  0.33367342  0.00005576
   0.17245216  0.60031151  0.00052434
   0.23912337  0.73363857  0.00057513
   0.57243108  0.20028917  0.00041330
   0.63911277  0.33361863  0.00046238
   0.37243981  0.60030802  0.00036284
   0.43911609  0.73363786  0.00049419
   0.57246936  0.40032050  0.00033992
   0.63911941  0.53365087  0.00045961
   0.77244572  0.00031543  0.00059616
   0.83911628  0.13364020  0.00057531
   0.77244051  0.20030743  0.00058103
   0.83912024  0.33363573  0.00058547
   0.77244632  0.40029837  0.00058298
   0.83911898  0.53363396  0.00062110
   0.77245614  0.60030817  0.00059571
   0.83911503  0.73364318  0.00063151
   0.97245531  0.80030558  0.00065223
   0.03911471  0.93364329  0.00059805
   0.17245797  0.80031221  0.00062337
   0.23913455  0.93364719  0.00054485
   0.37245140  0.80031667  0.00055140
   0.43912449  0.93364477  0.00054143
   0.57244110  0.80031005  0.00053453
   0.63911507  0.93363899  0.00058764
   0.77244510  0.80031319  0.00060206
   0.83911661  0.93364434  0.00060683
   0.37302101  0.25122688  0.16817928
   0.42087980  0.18931315  0.17075616
   0.32515698  0.31316719  0.16580109
 
 position of ions in cartesian coordinates  (Angst):
  11.98347958  0.00342433  0.01416777
  -0.34154264  1.42664989  0.01100432
   2.12354700  0.00315355  0.01249070
   2.12325634  1.42652621  0.00641170
  10.75098721  2.13818970  0.01213047
  -1.57382270  3.56123457  0.01110375
   0.89078307  2.13853702  0.00547917
   0.89099273  3.56146885  0.00180651
   4.58863896  0.00346260  0.01134782
   4.58893648  1.42622757  0.00645846
   9.51853763  4.27280730  0.01369027
  -2.80632132  5.69591267  0.01433526
   2.12299894  4.27302204  0.00000000
   2.12335237  5.69593607  0.00581036
   7.05344483  0.00333155  0.01398950
   7.05352764  1.42635365  0.01368187
   8.28609598  6.40752033  0.01600723
  -4.03884931  7.83070339  0.01636283
   3.35585531  6.40752662  0.01007237
   3.35598594  7.83071962  0.01319763
  -0.34145776  4.27290193  0.00722612
  -0.34137895  5.69591010  0.00946273
   3.35624236  2.13791198  0.00222492
   3.35573251  3.56155103  0.00139405
  -1.57394684  6.40758280  0.01310850
  -1.57385216  7.83068434  0.01437823
   5.82093107  2.13783916  0.01033241
   5.82114012  3.56096622  0.01155939
   0.89092245  6.40754561  0.00907111
   0.89106251  7.83067670  0.01235474
   4.58870974  4.27292622  0.00849795
   4.58852320  5.69606300  0.01149026
   9.51844972  0.00336679  0.01490402
   9.51855036  1.42644387  0.01438264
   8.28593477  2.13803408  0.01452582
   8.28612680  3.56114872  0.01463668
   7.05356221  4.27268994  0.01457444
   7.05362213  5.69588251  0.01552751
   5.82112285  6.40754723  0.01489279
   5.82101669  7.83073350  0.01578780
   7.05362858  8.54227219  0.01630582
  -5.27148792  9.96548729  0.01495127
  -2.80637951  8.54234295  0.01558431
  -2.80626749  9.96552896  0.01362126
  -0.34148805  8.54239058  0.01378498
  -0.34137657  9.96550309  0.01353576
   2.12342586  8.54231992  0.01336337
   2.12354296  9.96544135  0.01469111
   4.58845581  8.54235337  0.01505154
   4.58852904  9.96549848  0.01517076
   3.04929830  2.68153618  4.20448208
   4.02070129  2.02068374  4.26890394
   2.07766701  3.34267235  4.14502721
 


--------------------------------------------------------------------------------------------------------


 k-point   1 :   0.0000 0.0000 0.0000  plane waves:  236157

 maximum and minimum number of plane-waves per node :     59046    59034

 maximum number of plane-waves:    236157
 maximum index in each direction: 
   IXMAX=   31   IYMAX=   31   IZMAX=   64
   IXMIN=  -31   IYMIN=  -31   IZMIN=  -64


 parallel 3D FFT for wavefunctions:
    minimum data exchange during FFTs selected (reduces bandwidth)
 parallel 3D FFT for charge:
    minimum data exchange during FFTs selected (reduces bandwidth)


 total amount of memory used by VASP MPI-rank0   215378. kBytes
=======================================================================

   base      :      30000. kBytes
   nonl-proj :      57634. kBytes
   fftplans  :      45914. kBytes
   grid      :      67588. kBytes
   one-center:         43. kBytes
   wavefun   :      14199. kBytes
 
     INWAV:  cpu time    0.0000: real time    0.0002
 Broyden mixing: mesh for mixing (old mesh)
   NGX = 63   NGY = 63   NGZ =129
  (NGX  =256   NGY  =256   NGZ  =540)
  gives a total of 512001 points

 initial charge density was supplied:
 charge density of overlapping atoms calculated
 number of electron     216.0000000 magnetization 
 keeping initial charge density in first step


--------------------------------------------------------------------------------------------------------


 Maximum index for augmentation-charges          471 (set IRDMAX)


--------------------------------------------------------------------------------------------------------


 First call to EWALD:  gamma=   0.119
 Maximum number of real-space cells 4x 4x 2
 Maximum number of reciprocal cells 2x 2x 4

    FEWALD:  cpu time    0.0033: real time    0.0034


--------------------------------------- Iteration      1(   1)  ---------------------------------------


    POTLOK:  cpu time    0.3993: real time    0.4025
    SETDIJ:  cpu time    0.0046: real time    0.0047
    TRIAL :  cpu time    5.5954: real time    5.6503
    CORREC:  cpu time    0.0004: real time    0.0006
    --------------------------------------------
      LOOP:  cpu time    6.0062: real time    6.0719

 eigenvalue-minimisations  :   280
 total energy-change (2. order) : 0.2770042E+04  (-0.1023945E+05)
 number of electron     216.0000000 magnetization 
 augmentation part      216.0000000 magnetization 

 Free energy of the ion-electron system (eV)
  ---------------------------------------------------
  alpha Z        PSCENC =        47.94900195
  Ewald energy   TEWEN  =     45899.51553853
  -Hartree energ DENC   =    -51968.63327317
  -exchange      EXHF   =         0.00000000
  -V(xc)+E(xc)   XCENC  =       420.81901028
  PAW double counting   =      6525.96553977    -6260.36035765
  entropy T*S    EENTRO =        -0.00000000
  eigenvalues    EBANDS =      -264.73693040
  atomic energy  EATOM  =      8369.52358910
  ---------------------------------------------------
  free energy    TOTEN  =      2770.04211842 eV

  energy without entropy =     2770.04211842  energy(sigma->0) =     2770.04211842


--------------------------------------------------------------------------------------------------------




--------------------------------------- Iteration      1(   2)  ---------------------------------------


    TRIAL :  cpu time    8.0500: real time    8.1580
    CORREC:  cpu time    0.0001: real time    0.0001
    --------------------------------------------
      LOOP:  cpu time    8.1036: real time    8.2271

 eigenvalue-minimisations  :   448
 total energy-change (2. order) :-0.2440620E+04  (-0.2284331E+04)
 number of electron     216.0000000 magnetization 
 augmentation part      216.0000000 magnetization 

 Free energy of the ion-electron system (eV)
  ---------------------------------------------------
  alpha Z        PSCENC =        47.94900195
  Ewald energy   TEWEN  =     45899.51553853
  -Hartree energ DENC   =    -51968.63327317
  -exchange      EXHF   =         0.00000000
  -V(xc)+E(xc)   XCENC  =       420.81901028
  PAW double counting   =      6525.96553977    -6260.36035765
  entropy T*S    EENTRO =        -0.00000000
  eigenvalues    EBANDS =     -2705.35692183
  atomic energy  EATOM  =      8369.52358910
  ---------------------------------------------------
  free energy    TOTEN  =       329.42212699 eV

  energy without entropy =      329.42212699  energy(sigma->0) =      329.42212699


--------------------------------------------------------------------------------------------------------




--------------------------------------- Iteration      1(   3)  ---------------------------------------


    TRIAL :  cpu time    6.8073: real time    6.8711
    CORREC:  cpu time    0.0001: real time    0.0001
    --------------------------------------------
      LOOP:  cpu time    6.8661: real time    6.9332

 eigenvalue-minimisations  :   364
 total energy-change (2. order) :-0.7925428E+03  (-0.7809798E+03)
 number of electron     216.0000000 magnetization 
 augmentation part      216.0000000 magnetization 

 Free energy of the ion-electron system (eV)
  ---------------------------------------------------
  alpha Z        PSCENC =        47.94900195
  Ewald energy   TEWEN  =     45899.51553853
  -Hartree energ DENC   =    -51968.63327317
  -exchange      EXHF   =         0.00000000
  -V(xc)+E(xc)   XCENC  =       420.81901028
  PAW double counting   =      6525.96553977    -6260.36035765
  entropy T*S    EENTRO =        -0.00000000
  eigenvalues    EBANDS =     -3497.89971872
  atomic energy  EATOM  =      8369.52358910
  ---------------------------------------------------
  free energy    TOTEN  =      -463.12066990 eV

  energy without entropy =     -463.12066990  energy(sigma->0) =     -463.12066990


--------------------------------------------------------------------------------------------------------




--------------------------------------- Iteration      1(   4)  ---------------------------------------


    TRIAL :  cpu time    6.8028: real time    6.8683
    CORREC:  cpu time    0.0001: real time    0.0001
    --------------------------------------------
      LOOP:  cpu time    6.8522: real time    6.9181

 eigenvalue-minimisations  :   364
 total energy-change (2. order) :-0.5346281E+02  (-0.5315274E+02)
 number of electron     216.0000000 magnetization 
 augmentation part      216.0000000 magnetization 

 Free energy of the ion-electron system (eV)
  ---------------------------------------------------
  alpha Z        PSCENC =        47.94900195
  Ewald energy   TEWEN  =     45899.51553853
  -Hartree energ DENC   =    -51968.63327317
  -exchange      EXHF   =         0.00000000
  -V(xc)+E(xc)   XCENC  =       420.81901028
  PAW double counting   =      6525.96553977    -6260.36035765
  entropy T*S    EENTRO =        -0.00000000
  eigenvalues    EBANDS =     -3551.36252901
  atomic energy  EATOM  =      8369.52358910
  ---------------------------------------------------
  free energy    TOTEN  =      -516.58348019 eV

  energy without entropy =     -516.58348019  energy(sigma->0) =     -516.58348019


--------------------------------------------------------------------------------------------------------




--------------------------------------- Iteration      1(   5)  ---------------------------------------


    TRIAL :  cpu time    7.6479: real time    7.7187
    CORREC:  cpu time    0.0001: real time    0.0001
    CHARGE:  cpu time    0.3190: real time    0.3222
    --------------------------------------------
      LOOP:  cpu time    8.0113: real time    8.0875

 eigenvalue-minimisations  :   420
 total energy-change (2. order) :-0.1439213E+01  (-0.1435518E+01)
 number of electron     216.0000000 magnetization 
 augmentation part       -0.2678141 magnetization 

 Free energy of the ion-electron system (eV)
  ---------------------------------------------------
  alpha Z        PSCENC =        47.94900195
  Ewald energy   TEWEN  =     45899.51553853
  -Hartree energ DENC   =    -51968.63327317
  -exchange      EXHF   =         0.00000000
  -V(xc)+E(xc)   XCENC  =       420.81901028
  PAW double counting   =      6525.96553977    -6260.36035765
  entropy T*S    EENTRO =        -0.00000000
  eigenvalues    EBANDS =     -3552.80174221
  atomic energy  EATOM  =      8369.52358910
  ---------------------------------------------------
  free energy    TOTEN  =      -518.02269339 eV

  energy without entropy =     -518.02269339  energy(sigma->0) =     -518.02269339


--------------------------------------------------------------------------------------------------------




--------------------------------------- Iteration      1(   6)  ---------------------------------------


    POTLOK:  cpu time    0.3799: real time    0.3829
    SETDIJ:  cpu time    0.0028: real time    0.0029
    TRIAL :  cpu time    2.6790: real time    2.7031
    CORREC:  cpu time    1.0712: real time    1.0801
    CHARGE:  cpu time    0.3145: real time    0.3169
    --------------------------------------------
      LOOP:  cpu time    4.4620: real time    4.5049

 eigenvalue-minimisations  :     0
 total energy-change (2. order) : 0.5119620E+02  (-0.1540617E+02)
 number of electron     216.0000000 magnetization 
 augmentation part       -0.3659610 magnetization 

 Free energy of the ion-electron system (eV)
  ---------------------------------------------------
  alpha Z        PSCENC =        47.94900195
  Ewald energy   TEWEN  =     45899.51553853
  -Hartree energ DENC   =    -53405.87146699
  -exchange      EXHF   =         0.00000000
  -V(xc)+E(xc)   XCENC  =       468.93537583
  PAW double counting   =     89825.12426354   -89567.78606379
  entropy T*S    EENTRO =        -0.00000000
  eigenvalues    EBANDS =     -2104.21673514
  atomic energy  EATOM  =      8369.52358910
  ---------------------------------------------------
  free energy    TOTEN  =      -466.82649695 eV

  energy without entropy =     -466.82649695  energy(sigma->0) =     -466.82649695


--------------------------------------------------------------------------------------------------------




--------------------------------------- Iteration      1(   7)  ---------------------------------------


    POTLOK:  cpu time    0.3838: real time    0.3865
    SETDIJ:  cpu time    0.0029: real time    0.0029
    TRIAL :  cpu time    2.6653: real time    2.6891
    CORREC:  cpu time    1.0866: real time    1.0952
    CHARGE:  cpu time    0.3142: real time    0.3165
    --------------------------------------------
      LOOP:  cpu time    4.4910: real time    4.5325

 eigenvalue-minimisations  :     0
 total energy-change (2. order) :-0.1544608E+02  (-0.1796470E+01)
 number of electron     216.0000000 magnetization 
 augmentation part       -0.4132091 magnetization 

 Free energy of the ion-electron system (eV)
  ---------------------------------------------------
  alpha Z        PSCENC =        47.94900195
  Ewald energy   TEWEN  =     45899.51553853
  -Hartree energ DENC   =    -52897.31045354
  -exchange      EXHF   =         0.00000000
  -V(xc)+E(xc)   XCENC  =       451.95590356
  PAW double counting   =    105910.62578407  -105650.46994858
  entropy T*S    EENTRO =        -0.00000000
  eigenvalues    EBANDS =     -2614.06199323
  atomic energy  EATOM  =      8369.52358910
  ---------------------------------------------------
  free energy    TOTEN  =      -482.27257813 eV

  energy without entropy =     -482.27257813  energy(sigma->0) =     -482.27257813


--------------------------------------------------------------------------------------------------------




--------------------------------------- Iteration      1(   8)  ---------------------------------------


    POTLOK:  cpu time    0.3827: real time    0.3852
    SETDIJ:  cpu time    0.0028: real time    0.0028
    TRIAL :  cpu time    2.6643: real time    2.6887
    CORREC:  cpu time    1.0798: real time    1.0884
    CHARGE:  cpu time    0.3142: real time    0.3165
    --------------------------------------------
      LOOP:  cpu time    4.5324: real time    4.5735

 eigenvalue-minimisations  :     0
 total energy-change (2. order) :-0.1795592E+01  (-0.4657972E+00)
 number of electron     216.0000000 magnetization 
 augmentation part       -0.4301164 magnetization 

 Free energy of the ion-electron system (eV)
  ---------------------------------------------------
  alpha Z        PSCENC =        47.94900195
  Ewald energy   TEWEN  =     45899.51553853
  -Hartree energ DENC   =    -52870.04574744
  -exchange      EXHF   =         0.00000000
  -V(xc)+E(xc)   XCENC  =       451.37349411
  PAW double counting   =    110266.83976289  -110006.27341492
  entropy T*S    EENTRO =        -0.00000000
  eigenvalues    EBANDS =     -2642.95039391
  atomic energy  EATOM  =      8369.52358910
  ---------------------------------------------------
  free energy    TOTEN  =      -484.06816968 eV

  energy without entropy =     -484.06816968  energy(sigma->0) =     -484.06816968


--------------------------------------------------------------------------------------------------------




--------------------------------------- Iteration      1(   9)  ---------------------------------------


    POTLOK:  cpu time    0.3858: real time    0.3885
    SETDIJ:  cpu time    0.0029: real time    0.0029
    TRIAL :  cpu time    2.6618: real time    2.6859
    CORREC:  cpu time    1.0806: real time    1.0894
    CHARGE:  cpu time    0.3142: real time    0.3165
    --------------------------------------------
      LOOP:  cpu time    4.4968: real time    4.5357

 eigenvalue-minimisations  :     0
 total energy-change (2. order) :-0.4656931E+00  (-0.1503318E+00)
 number of electron     216.0000000 magnetization 
 augmentation part       -0.4374683 magnetization 

 Free energy of the ion-electron system (eV)
  ---------------------------------------------------
  alpha Z        PSCENC =        47.94900195
  Ewald energy   TEWEN  =     45899.51553853
  -Hartree energ DENC   =    -52886.77194651
  -exchange      EXHF   =         0.00000000
  -V(xc)+E(xc)   XCENC  =       451.56958286
  PAW double counting   =    112986.68943826  -112725.97310240
  entropy T*S    EENTRO =        -0.00000000
  eigenvalues    EBANDS =     -2627.03596462
  atomic energy  EATOM  =      8369.52358910
  ---------------------------------------------------
  free energy    TOTEN  =      -484.53386282 eV

  energy without entropy =     -484.53386282  energy(sigma->0) =     -484.53386282


--------------------------------------------------------------------------------------------------------




--------------------------------------- Iteration      1(  10)  ---------------------------------------


    POTLOK:  cpu time    0.3847: real time    0.3872
    SETDIJ:  cpu time    0.0029: real time    0.0029
    TRIAL :  cpu time    2.6610: real time    2.6852
    CORREC:  cpu time    1.0785: real time    1.0872
    CHARGE:  cpu time    0.3144: real time    0.3167
    --------------------------------------------
      LOOP:  cpu time    4.4671: real time    4.5217

 eigenvalue-minimisations  :     0
 total energy-change (2. order) :-0.1501192E+00  (-0.6169847E-01)
 number of electron     216.0000000 magnetization 
 augmentation part       -0.4380354 magnetization 

 Free energy of the ion-electron system (eV)
  ---------------------------------------------------
  alpha Z        PSCENC =        47.94900195
  Ewald energy   TEWEN  =     45899.51553853
  -Hartree energ DENC   =    -52887.95702263
  -exchange      EXHF   =         0.00000000
  -V(xc)+E(xc)   XCENC  =       451.49131319
  PAW double counting   =    113426.18607116  -113165.38783496
  entropy T*S    EENTRO =        -0.00000000
  eigenvalues    EBANDS =     -2626.00463833
  atomic energy  EATOM  =      8369.52358910
  ---------------------------------------------------
  free energy    TOTEN  =      -484.68398199 eV

  energy without entropy =     -484.68398199  energy(sigma->0) =     -484.68398199


--------------------------------------------------------------------------------------------------------




--------------------------------------- Iteration      1(  11)  ---------------------------------------


    POTLOK:  cpu time    0.3837: real time    0.3862
    SETDIJ:  cpu time    0.0029: real time    0.0029
    TRIAL :  cpu time    2.6624: real time    2.6860
    CORREC:  cpu time    1.0775: real time    1.0858
    CHARGE:  cpu time    0.3146: real time    0.3169
    --------------------------------------------
      LOOP:  cpu time    4.4820: real time    4.5287

 eigenvalue-minimisations  :     0
 total energy-change (2. order) :-0.6155392E-01  (-0.2517662E-01)
 number of electron     216.0000000 magnetization 
 augmentation part       -0.4375277 magnetization 

 Free energy of the ion-electron system (eV)
  ---------------------------------------------------
  alpha Z        PSCENC =        47.94900195
  Ewald energy   TEWEN  =     45899.51553853
  -Hartree energ DENC   =    -52883.67753952
  -exchange      EXHF   =         0.00000000
  -V(xc)+E(xc)   XCENC  =       451.42588030
  PAW double counting   =    112941.28375147  -112680.48544110
  entropy T*S    EENTRO =        -0.00000000
  eigenvalues    EBANDS =     -2630.28031664
  atomic energy  EATOM  =      8369.52358910
  ---------------------------------------------------
  free energy    TOTEN  =      -484.74553591 eV

  energy without entropy =     -484.74553591  energy(sigma->0) =     -484.74553591


--------------------------------------------------------------------------------------------------------




--------------------------------------- Iteration      1(  12)  ---------------------------------------


    POTLOK:  cpu time    0.3837: real time    0.3862
    SETDIJ:  cpu time    0.0027: real time    0.0027
    TRIAL :  cpu time    2.6306: real time    2.6954
    CORREC:  cpu time    1.0716: real time    1.0860
    CHARGE:  cpu time    0.3128: real time    0.3150
    --------------------------------------------
      LOOP:  cpu time    4.4269: real time    4.5244

 eigenvalue-minimisations  :     0
 total energy-change (2. order) :-0.2509142E-01  (-0.8695917E-02)
 number of electron     216.0000000 magnetization 
 augmentation part       -0.4376371 magnetization 

 Free energy of the ion-electron system (eV)
  ---------------------------------------------------
  alpha Z        PSCENC =        47.94900195
  Ewald energy   TEWEN  =     45899.51553853
  -Hartree energ DENC   =    -52881.74924644
  -exchange      EXHF   =         0.00000000
  -V(xc)+E(xc)   XCENC  =       451.38956023
  PAW double counting   =    112561.53611782  -112300.76039777
  entropy T*S    EENTRO =        -0.00000000
  eigenvalues    EBANDS =     -2632.17479074
  atomic energy  EATOM  =      8369.52358910
  ---------------------------------------------------
  free energy    TOTEN  =      -484.77062732 eV

  energy without entropy =     -484.77062732  energy(sigma->0) =     -484.77062732


--------------------------------------------------------------------------------------------------------




--------------------------------------- Iteration      1(  13)  ---------------------------------------


    POTLOK:  cpu time    0.3809: real time    0.3831
    SETDIJ:  cpu time    0.0027: real time    0.0027
    TRIAL :  cpu time    2.6645: real time    2.6882
    CORREC:  cpu time    1.0748: real time    1.0832
    CHARGE:  cpu time    0.3131: real time    0.3154
    --------------------------------------------
      LOOP:  cpu time    4.4714: real time    4.5102

 eigenvalue-minimisations  :     0
 total energy-change (2. order) :-0.8680911E-02  (-0.2612057E-02)
 number of electron     216.0000000 magnetization 
 augmentation part       -0.4372668 magnetization 

 Free energy of the ion-electron system (eV)
  ---------------------------------------------------
  alpha Z        PSCENC =        47.94900195
  Ewald energy   TEWEN  =     45899.51553853
  -Hartree energ DENC   =    -52881.70173143
  -exchange      EXHF   =         0.00000000
  -V(xc)+E(xc)   XCENC  =       451.37877575
  PAW double counting   =    112450.40901498  -112189.64358434
  entropy T*S    EENTRO =        -0.00000000
  eigenvalues    EBANDS =     -2632.20991279
  atomic energy  EATOM  =      8369.52358910
  ---------------------------------------------------
  free energy    TOTEN  =      -484.77930824 eV

  energy without entropy =     -484.77930824  energy(sigma->0) =     -484.77930824


--------------------------------------------------------------------------------------------------------




--------------------------------------- Iteration      1(  14)  ---------------------------------------


    POTLOK:  cpu time    0.3788: real time    0.3813
    SETDIJ:  cpu time    0.0028: real time    0.0028
    TRIAL :  cpu time    2.6644: real time    2.6881
    CORREC:  cpu time    1.0707: real time    1.0790
    CHARGE:  cpu time    0.3132: real time    0.3154
    --------------------------------------------
      LOOP:  cpu time    4.4613: real time    4.5073

 eigenvalue-minimisations  :     0
 total energy-change (2. order) :-0.2613058E-02  (-0.7899538E-03)
 number of electron     216.0000000 magnetization 
 augmentation part       -0.4370221 magnetization 

 Free energy of the ion-electron system (eV)
  ---------------------------------------------------
  alpha Z        PSCENC =        47.94900195
  Ewald energy   TEWEN  =     45899.51553853
  -Hartree energ DENC   =    -52881.71265763
  -exchange      EXHF   =         0.00000000
  -V(xc)+E(xc)   XCENC  =       451.37768259
  PAW double counting   =    112486.57725601  -112225.81445735
  entropy T*S    EENTRO =        -0.00000000
  eigenvalues    EBANDS =     -2632.19787450
  atomic energy  EATOM  =      8369.52358910
  ---------------------------------------------------
  free energy    TOTEN  =      -484.78192129 eV

  energy without entropy =     -484.78192129  energy(sigma->0) =     -484.78192129


--------------------------------------------------------------------------------------------------------




--------------------------------------- Iteration      1(  15)  ---------------------------------------


    POTLOK:  cpu time    0.3770: real time    0.3794
    SETDIJ:  cpu time    0.0026: real time    0.0027
    TRIAL :  cpu time    2.6621: real time    2.6861
    CORREC:  cpu time    1.0705: real time    1.0786
    CHARGE:  cpu time    0.3131: real time    0.3153
    --------------------------------------------
      LOOP:  cpu time    4.4874: real time    4.5340

 eigenvalue-minimisations  :     0
 total energy-change (2. order) :-0.7920097E-03  (-0.2902940E-03)
 number of electron     216.0000000 magnetization 
 augmentation part       -0.4367227 magnetization 

 Free energy of the ion-electron system (eV)
  ---------------------------------------------------
  alpha Z        PSCENC =        47.94900195
  Ewald energy   TEWEN  =     45899.51553853
  -Hartree energ DENC   =    -52881.36120973
  -exchange      EXHF   =         0.00000000
  -V(xc)+E(xc)   XCENC  =       451.36277778
  PAW double counting   =    112516.73125528  -112255.96641879
  entropy T*S    EENTRO =        -0.00000000
  eigenvalues    EBANDS =     -2632.53724742
  atomic energy  EATOM  =      8369.52358910
  ---------------------------------------------------
  free energy    TOTEN  =      -484.78271330 eV

  energy without entropy =     -484.78271330  energy(sigma->0) =     -484.78271330


--------------------------------------------------------------------------------------------------------




--------------------------------------- Iteration      1(  16)  ---------------------------------------


    POTLOK:  cpu time    0.3767: real time    0.3791
    SETDIJ:  cpu time    0.0029: real time    0.0029
    TRIAL :  cpu time    2.6635: real time    2.6875
    CORREC:  cpu time    1.0692: real time    1.0775
    CHARGE:  cpu time    0.3128: real time    0.3150
    --------------------------------------------
      LOOP:  cpu time    4.4605: real time    4.4996

 eigenvalue-minimisations  :     0
 total energy-change (2. order) :-0.2915683E-03  (-0.1216148E-03)
 number of electron     216.0000000 magnetization 
 augmentation part       -0.4365565 magnetization 

 Free energy of the ion-electron system (eV)
  ---------------------------------------------------
  alpha Z        PSCENC =        47.94900195
  Ewald energy   TEWEN  =     45899.51553853
  -Hartree energ DENC   =    -52881.49185696
  -exchange      EXHF   =         0.00000000
  -V(xc)+E(xc)   XCENC  =       451.36795145
  PAW double counting   =    112491.77866201  -112231.01457976
  entropy T*S    EENTRO =        -0.00000000
  eigenvalues    EBANDS =     -2632.41131118
  atomic energy  EATOM  =      8369.52358910
  ---------------------------------------------------
  free energy    TOTEN  =      -484.78300487 eV

  energy without entropy =     -484.78300487  energy(sigma->0) =     -484.78300487


--------------------------------------------------------------------------------------------------------




--------------------------------------- Iteration      1(  17)  ---------------------------------------


    POTLOK:  cpu time    0.3756: real time    0.3780
    SETDIJ:  cpu time    0.0027: real time    0.0027
    TRIAL :  cpu time    2.6715: real time    2.6956
    CORREC:  cpu time    1.0709: real time    1.0796
    CHARGE:  cpu time    0.3140: real time    0.3163
    --------------------------------------------
      LOOP:  cpu time    4.4651: real time    4.5157

 eigenvalue-minimisations  :     0
 total energy-change (2. order) :-0.1221341E-03  (-0.4757248E-04)
 number of electron     216.0000000 magnetization 
 augmentation part       -0.4365676 magnetization 

 Free energy of the ion-electron system (eV)
  ---------------------------------------------------
  alpha Z        PSCENC =        47.94900195
  Ewald energy   TEWEN  =     45899.51553853
  -Hartree energ DENC   =    -52881.61401623
  -exchange      EXHF   =         0.00000000
  -V(xc)+E(xc)   XCENC  =       451.37175691
  PAW double counting   =    112457.39560805  -112196.63188913
  entropy T*S    EENTRO =        -0.00000000
  eigenvalues    EBANDS =     -2632.29271620
  atomic energy  EATOM  =      8369.52358910
  ---------------------------------------------------
  free energy    TOTEN  =      -484.78312701 eV

  energy without entropy =     -484.78312701  energy(sigma->0) =     -484.78312701


--------------------------------------------------------------------------------------------------------




--------------------------------------- Iteration      1(  18)  ---------------------------------------


    POTLOK:  cpu time    0.3749: real time    0.3775
    SETDIJ:  cpu time    0.0028: real time    0.0028
    TRIAL :  cpu time    2.6622: real time    2.6863
    CORREC:  cpu time    1.0696: real time    1.0786
    CHARGE:  cpu time    0.3127: real time    0.3152
    --------------------------------------------
      LOOP:  cpu time    4.4577: real time    4.4962

 eigenvalue-minimisations  :     0
 total energy-change (2. order) :-0.4749723E-04  (-0.1749912E-04)
 number of electron     216.0000000 magnetization 
 augmentation part       -0.4366316 magnetization 

 Free energy of the ion-electron system (eV)
  ---------------------------------------------------
  alpha Z        PSCENC =        47.94900195
  Ewald energy   TEWEN  =     45899.51553853
  -Hartree energ DENC   =    -52881.60033992
  -exchange      EXHF   =         0.00000000
  -V(xc)+E(xc)   XCENC  =       451.37104079
  PAW double counting   =    112448.49486951  -112187.73066476
  entropy T*S    EENTRO =        -0.00000000
  eigenvalues    EBANDS =     -2632.30620971
  atomic energy  EATOM  =      8369.52358910
  ---------------------------------------------------
  free energy    TOTEN  =      -484.78317450 eV

  energy without entropy =     -484.78317450  energy(sigma->0) =     -484.78317450


--------------------------------------------------------------------------------------------------------




--------------------------------------- Iteration      1(  19)  ---------------------------------------


    POTLOK:  cpu time    0.3749: real time    0.3773
    SETDIJ:  cpu time    0.0028: real time    0.0028
    TRIAL :  cpu time    2.6512: real time    2.6912
    CORREC:  cpu time    1.0717: real time    1.0804
    CHARGE:  cpu time    0.3127: real time    0.3149
    --------------------------------------------
      LOOP:  cpu time    4.4586: real time    4.5131

 eigenvalue-minimisations  :     0
 total energy-change (2. order) :-0.1720681E-04  (-0.6175302E-05)
 number of electron     216.0000000 magnetization 
 augmentation part       -0.4367018 magnetization 

 Free energy of the ion-electron system (eV)
  ---------------------------------------------------
  alpha Z        PSCENC =        47.94900195
  Ewald energy   TEWEN  =     45899.51553853
  -Hartree energ DENC   =    -52881.61718960
  -exchange      EXHF   =         0.00000000
  -V(xc)+E(xc)   XCENC  =       451.37187853
  PAW double counting   =    112454.32050034  -112193.55608879
  entropy T*S    EENTRO =        -0.00000000
  eigenvalues    EBANDS =     -2632.29042178
  atomic energy  EATOM  =      8369.52358910
  ---------------------------------------------------
  free energy    TOTEN  =      -484.78319171 eV

  energy without entropy =     -484.78319171  energy(sigma->0) =     -484.78319171


--------------------------------------------------------------------------------------------------------




--------------------------------------- Iteration      1(  20)  ---------------------------------------


    POTLOK:  cpu time    0.3741: real time    0.3767
    SETDIJ:  cpu time    0.0026: real time    0.0027
    TRIAL :  cpu time    2.6609: real time    2.6873
    CORREC:  cpu time    1.0707: real time    1.0787
    CHARGE:  cpu time    0.3138: real time    0.3160
    --------------------------------------------
      LOOP:  cpu time    4.4715: real time    4.5248

 eigenvalue-minimisations  :     0
 total energy-change (2. order) :-0.5916678E-05  (-0.2324525E-05)
 number of electron     216.0000000 magnetization 
 augmentation part       -0.4367248 magnetization 

 Free energy of the ion-electron system (eV)
  ---------------------------------------------------
  alpha Z        PSCENC =        47.94900195
  Ewald energy   TEWEN  =     45899.51553853
  -Hartree energ DENC   =    -52881.61975635
  -exchange      EXHF   =         0.00000000
  -V(xc)+E(xc)   XCENC  =       451.37161700
  PAW double counting   =    112460.56821352  -112199.80355812
  entropy T*S    EENTRO =        -0.00000000
  eigenvalues    EBANDS =     -2632.28784326
  atomic energy  EATOM  =      8369.52358910
  ---------------------------------------------------
  free energy    TOTEN  =      -484.78319763 eV

  energy without entropy =     -484.78319763  energy(sigma->0) =     -484.78319763


--------------------------------------------------------------------------------------------------------




--------------------------------------- Iteration      1(  21)  ---------------------------------------


    POTLOK:  cpu time    0.3758: real time    0.3781
    SETDIJ:  cpu time    0.0030: real time    0.0030
    TRIAL :  cpu time    2.6579: real time    2.6866
    CORREC:  cpu time    1.0695: real time    1.0774
    CHARGE:  cpu time    0.3115: real time    0.3138
    --------------------------------------------
      LOOP:  cpu time    4.4564: real time    4.4998

 eigenvalue-minimisations  :     0
 total energy-change (2. order) :-0.2218367E-05  (-0.1075938E-05)
 number of electron     216.0000000 magnetization 
 augmentation part       -0.4367266 magnetization 

 Free energy of the ion-electron system (eV)
  ---------------------------------------------------
  alpha Z        PSCENC =        47.94900195
  Ewald energy   TEWEN  =     45899.51553853
  -Hartree energ DENC   =    -52881.62725175
  -exchange      EXHF   =         0.00000000
  -V(xc)+E(xc)   XCENC  =       451.37189438
  PAW double counting   =    112462.83736428  -112202.07274573
  entropy T*S    EENTRO =        -0.00000000
  eigenvalues    EBANDS =     -2632.28059062
  atomic energy  EATOM  =      8369.52358910
  ---------------------------------------------------
  free energy    TOTEN  =      -484.78319985 eV

  energy without entropy =     -484.78319985  energy(sigma->0) =     -484.78319985


--------------------------------------------------------------------------------------------------------




--------------------------------------- Iteration      1(  22)  ---------------------------------------


    POTLOK:  cpu time    0.3772: real time    0.3794
    SETDIJ:  cpu time    0.0028: real time    0.0028
    TRIAL :  cpu time    2.6620: real time    2.6858
    CORREC:  cpu time    1.0725: real time    1.0809
    CHARGE:  cpu time    0.3127: real time    0.3153
    --------------------------------------------
      LOOP:  cpu time    4.4531: real time    4.4916

 eigenvalue-minimisations  :     0
 total energy-change (2. order) :-0.1030872E-05  (-0.4499910E-06)
 number of electron     216.0000000 magnetization 
 augmentation part       -0.4367216 magnetization 

 Free energy of the ion-electron system (eV)
  ---------------------------------------------------
  alpha Z        PSCENC =        47.94900195
  Ewald energy   TEWEN  =     45899.51553853
  -Hartree energ DENC   =    -52881.62354390
  -exchange      EXHF   =         0.00000000
  -V(xc)+E(xc)   XCENC  =       451.37179070
  PAW double counting   =    112462.48750808  -112201.72294538
  entropy T*S    EENTRO =        -0.00000000
  eigenvalues    EBANDS =     -2632.28413996
  atomic energy  EATOM  =      8369.52358910
  ---------------------------------------------------
  free energy    TOTEN  =      -484.78320088 eV

  energy without entropy =     -484.78320088  energy(sigma->0) =     -484.78320088


--------------------------------------------------------------------------------------------------------




--------------------------------------- Iteration      1(  23)  ---------------------------------------


    POTLOK:  cpu time    0.3761: real time    0.3784
    SETDIJ:  cpu time    0.0028: real time    0.0028
    TRIAL :  cpu time    2.6625: real time    2.6869
    CORREC:  cpu time    1.0682: real time    1.0764
    EDDIAG:  cpu time    0.5955: real time    0.6009
    CHARGE:  cpu time    0.3128: real time    0.3151
    --------------------------------------------
      LOOP:  cpu time    5.0566: real time    5.1007

 eigenvalue-minimisations  :     0
 total energy-change (2. order) :-0.4435278E-06  (-0.1646338E-06)
 number of electron     216.0000000 magnetization 
 augmentation part       -0.4367156 magnetization 

 Free energy of the ion-electron system (eV)
  ---------------------------------------------------
  alpha Z        PSCENC =        47.94900195
  Ewald energy   TEWEN  =     45899.51553853
  -Hartree energ DENC   =    -52881.62011849
  -exchange      EXHF   =         0.00000000
  -V(xc)+E(xc)   XCENC  =       451.37163361
  PAW double counting   =    112461.39162113  -112200.62708594
  entropy T*S    EENTRO =        -0.00000000
  eigenvalues    EBANDS =     -2632.28738122
  atomic energy  EATOM  =      8369.52358910
  ---------------------------------------------------
  free energy    TOTEN  =      -484.78320132 eV

  energy without entropy =     -484.78320132  energy(sigma->0) =     -484.78320132


--------------------------------------------------------------------------------------------------------


  average scaling for gradient   0.9250


 average (electrostatic) potential at core
  the test charge radii are     0.5770  0.5955
  (the norm of the test charge is              1.0000)
       1 -85.6382       2 -85.6361       3 -85.6411       4 -85.6453       5 -85.6336
       6 -85.6320       7 -85.6401       8 -85.6348       9 -85.6351      10 -85.6396
      11 -85.6327      12 -85.6342      13 -85.6390      14 -85.6347      15 -85.6317
      16 -85.6325      17 -85.6350      18 -85.6365      19 -85.6378      20 -85.6351
      21 -85.6311      22 -85.6309      23 -85.6474      24 -85.6467      25 -85.6321
      26 -85.6334      27 -85.6357      28 -85.6398      29 -85.6319      30 -85.6322
      31 -85.6432      32 -85.6395      33 -85.6348      34 -85.6331      35 -85.6328
      36 -85.6341      37 -85.6358      38 -85.6373      39 -85.6375      40 -85.6368
      41 -85.6370      42 -85.6384      43 -85.6349      44 -85.6381      45 -85.6321
      46 -85.6323      47 -85.6340      48 -85.6328      49 -85.6368      50 -85.6354
      51 -89.5649      52-120.3439      53-120.3433
 
 
 
 E-fermi :  -4.2389     XC(G=0):  -1.9014     alpha+bet : -1.6890

 Fermi energy:        -4.2388588761

 k-point     1 :       0.0000    0.0000    0.0000
  band No.  band energies     occupation 
      1     -27.6649      2.00000
      2     -26.6598      2.00000
      3     -22.3859      2.00000
      4     -21.4490      2.00000
      5     -21.4473      2.00000
      6     -21.4450      2.00000
      7     -21.4442      2.00000
      8     -21.4426      2.00000
      9     -21.4425      2.00000
     10     -19.6016      2.00000
     11     -19.6015      2.00000
     12     -19.6010      2.00000
     13     -19.6005      2.00000
     14     -19.6002      2.00000
     15     -19.6000      2.00000
     16     -18.7034      2.00000
     17     -18.7031      2.00000
     18     -18.7029      2.00000
     19     -18.7028      2.00000
     20     -18.7025      2.00000
     21     -18.7020      2.00000
     22     -16.5360      2.00000
     23     -16.5358      2.00000
     24     -16.5354      2.00000
     25     -16.5348      2.00000
     26     -16.5328      2.00000
     27     -16.5327      2.00000
     28     -15.5498      2.00000
     29     -15.5496      2.00000
     30     -15.5488      2.00000
     31     -15.5487      2.00000
     32     -15.5482      2.00000
     33     -15.5481      2.00000
     34     -14.1961      2.00000
     35     -14.1960      2.00000
     36     -14.1956      2.00000
     37     -14.1954      2.00000
     38     -14.1954      2.00000
     39     -14.1946      2.00000
     40     -12.4694      2.00000
     41     -11.8069      2.00000
     42     -11.8068      2.00000
     43     -11.8063      2.00000
     44     -11.8062      2.00000
     45     -11.8056      2.00000
     46     -11.8056      2.00000
     47     -11.7108      2.00000
     48     -11.7108      2.00000
     49     -11.7098      2.00000
     50     -11.7097      2.00000
     51     -11.7083      2.00000
     52     -11.7080      2.00000
     53     -11.2804      2.00000
     54     -11.2169      2.00000
     55     -11.2142      2.00000
     56     -10.4767      2.00000
     57     -10.3327      2.00000
     58     -10.3326      2.00000
     59     -10.3317      2.00000
     60     -10.3314      2.00000
     61     -10.3310      2.00000
     62     -10.3309      2.00000
     63      -9.3668      2.00000
     64      -9.3643      2.00000
     65      -9.3597      2.00000
     66      -9.3593      2.00000
     67      -9.3567      2.00000
     68      -9.3563      2.00000
     69      -9.0542      2.00000
     70      -9.0527      2.00000
     71      -9.0525      2.00000
     72      -9.0511      2.00000
     73      -9.0509      2.00000
     74      -9.0508      2.00000
     75      -9.0046      2.00000
     76      -9.0045      2.00000
     77      -9.0043      2.00000
     78      -9.0036      2.00000
     79      -9.0028      2.00000
     80      -9.0022      2.00000
     81      -7.6706      2.00000
     82      -7.6683      2.00000
     83      -7.3967      2.00000
     84      -7.3963      2.00000
     85      -7.3958      2.00000
     86      -7.3955      2.00000
     87      -7.3931      2.00000
     88      -7.3930      2.00000
     89      -7.2340      2.00000
     90      -7.2337      2.00000
     91      -7.2305      2.00000
     92      -7.2295      2.00000
     93      -7.2294      2.00000
     94      -7.2288      2.00000
     95      -6.3376      2.00000
     96      -6.3361      2.00000
     97      -6.3357      2.00000
     98      -6.3335      2.00000
     99      -6.3332      2.00000
    100      -6.3325      2.00000
    101      -5.9075      2.00000
    102      -5.9054      2.00000
    103      -4.3544      2.00000
    104      -4.3537      2.00000
    105      -4.3526      2.00000
    106      -4.3519      2.00000
    107      -4.3487      2.00000
    108      -4.3485      2.00000
    109      -1.5517      0.00000
    110      -1.5514      0.00000
    111      -1.5483      0.00000
    112      -1.5480      0.00000
    113      -1.5472      0.00000
    114      -1.5468      0.00000
    115       0.1062      0.00000
    116       0.3122      0.00000
    117       0.3132      0.00000
    118       0.3141      0.00000
    119       0.3162      0.00000
    120       0.3166      0.00000
    121       0.3194      0.00000
    122       0.7210      0.00000
    123       0.8112      0.00000
    124       1.1891      0.00000
    125       1.3991      0.00000
    126       1.4538      0.00000
    127       1.6483      0.00000
    128       1.6496      0.00000
    129       1.6696      0.00000
    130       1.6752      0.00000
    131       1.6962      0.00000
    132       1.9586      0.00000
    133       2.0548      0.00000
    134       2.0559      0.00000
    135       2.0577      0.00000
    136       2.0585      0.00000
    137       2.0591      0.00000
    138       2.2294      0.00000
    139       2.7463      0.00000
    140       3.0480      0.00000


--------------------------------------------------------------------------------------------------------


 soft charge-density along one line, spin component           1
         0         1         2         3         4         5         6         7         8         9
 total charge-density along one line
 
 pseudopotential strength for first ion, spin component:           1
 12.703  21.376  -0.000   0.000   0.000  -0.000   0.000   0.000
 21.376  35.970  -0.000   0.000   0.000  -0.000   0.000   0.000
 -0.000  -0.000  -3.169  -0.000   0.000  -5.681  -0.000   0.000
  0.000   0.000  -0.000  -3.171  -0.000  -0.000  -5.683  -0.000
  0.000   0.000   0.000  -0.000  -3.169   0.000  -0.000  -5.681
 -0.000  -0.000  -5.681  -0.000   0.000 -10.161  -0.000   0.000
  0.000   0.000  -0.000  -5.683  -0.000  -0.000 -10.163  -0.000
  0.000   0.000   0.000  -0.000  -5.681   0.000  -0.000 -10.161
 total augmentation occupancy for first ion, spin component:           1
  7.879  -2.765  -0.000  -0.002  -0.000   0.000   0.001  -0.000
 -2.765   1.007   0.000   0.001  -0.000  -0.000  -0.000   0.000
 -0.000   0.000   7.264  -0.008   0.000  -2.462   0.003  -0.000
 -0.002   0.001  -0.008   3.234  -0.000   0.003  -0.862   0.000
 -0.000  -0.000   0.000  -0.000   7.263  -0.000   0.000  -2.462
  0.000  -0.000  -2.462   0.003  -0.000   0.849  -0.001   0.000
  0.001  -0.000   0.003  -0.862   0.000  -0.001   0.236  -0.000
 -0.000   0.000  -0.000   0.000  -2.462   0.000  -0.000   0.849


------------------------ aborting loop because EDIFF is reached ----------------------------------------


    FORLOC:  cpu time    0.0665: real time    0.0670
    FORNL :  cpu time    1.0854: real time    1.0982
    FORCOR:  cpu time    0.3969: real time    0.3996
    OFIELD:  cpu time    0.0017: real time    0.0017

 ---------------------------------------------------------------------------------------------

         DFTD3 V3.0 Rev 1        
 IVDW         = 11
 DF pbe       
 parameters
 VDW_S6       =    1.0000
 VDW_S8       =    0.7220
 VDW_SR       =    1.2170
 rs18     =    1.0000
 alpha6   =   14.0000
 alpha8   =   16.0000
 k1-k3    =   16.0000    1.3333   -4.0000
 VDW_RADIUS   =   50.2022 A
 VDW_CNRADIUS =   21.1671 A
 Edisp (eV)   -1.79988

 E6    (eV) :    -1.0324
 E8    (eV) :    -0.7675
 % E8        : 42.64
    FORVDW:  cpu time    0.1603: real time    0.1621

 VOLUME and BASIS-vectors are now :
 -----------------------------------------------------------------------------
  energy-cutoff  :     1000.00
  volume of cell :     3288.85
      direct lattice vectors                 reciprocal lattice vectors
    12.325000000  0.000000000  0.000000000     0.081135903  0.046843835  0.000000000
    -6.162500000 10.673763102  0.000000000     0.000000000  0.093687670  0.000000000
     0.000000000  0.000000000 25.000000000     0.000000000  0.000000000  0.040000000

  length of vectors
    12.325000000 12.325000000 25.000000000     0.093687670  0.093687670  0.040000000


 FORCES acting on ions:
    Electron-Ion                     Ewald-Force                    Non-Local-Force
 -----------------------------------------------------------------------------------------------
   0.672E+01 0.586E+01 0.254E+02   -.673E+01 -.586E+01 -.254E+02   0.106E-01 -.200E-02 0.862E-02
   0.103E+02 0.502E+01 0.304E+02   -.103E+02 -.502E+01 -.304E+02   0.139E-01 -.683E-02 -.719E-02
   0.468E+01 0.123E+02 0.349E+02   -.467E+01 -.123E+02 -.349E+02   -.141E-02 0.264E-01 0.124E-01
   0.662E+01 0.963E+01 0.474E+02   -.664E+01 -.964E+01 -.474E+02   0.254E-01 0.787E-02 0.205E-01
   0.722E+01 0.170E+01 0.255E+02   -.722E+01 -.170E+01 -.255E+02   0.380E-02 -.111E-01 -.299E-02
   0.748E+01 -.138E+01 0.259E+02   -.747E+01 0.138E+01 -.259E+02   -.941E-02 0.478E-03 -.121E-01
   0.121E+02 0.455E+01 0.431E+02   -.121E+02 -.453E+01 -.431E+02   0.303E-01 -.310E-01 0.908E-03
   0.117E+02 -.413E+01 0.448E+02   -.117E+02 0.415E+01 -.448E+02   0.795E-02 -.166E-01 -.191E-01
   -.542E+01 0.111E+02 0.351E+02   0.544E+01 -.111E+02 -.351E+02   -.111E-01 -.451E-02 -.148E-01
   -.881E+01 0.744E+01 0.459E+02   0.885E+01 -.746E+01 -.459E+02   -.476E-01 0.292E-01 0.394E-02
   0.184E+01 -.172E+01 0.220E+02   -.183E+01 0.172E+01 -.220E+02   -.670E-04 -.906E-03 -.480E-02
   0.152E+01 -.126E+01 0.209E+02   -.152E+01 0.126E+01 -.209E+02   -.118E-01 0.525E-02 0.231E-02
   0.468E+01 -.103E+02 0.490E+02   -.471E+01 0.103E+02 -.490E+02   0.492E-01 -.216E-01 -.643E-03
   0.244E+01 -.123E+02 0.357E+02   -.246E+01 0.123E+02 -.357E+02   0.149E-01 -.869E-03 -.241E-01
   -.646E+01 0.402E+01 0.249E+02   0.646E+01 -.402E+01 -.249E+02   0.929E-02 -.444E-02 -.285E-02
   -.917E+01 0.267E+01 0.275E+02   0.917E+01 -.267E+01 -.275E+02   -.554E-02 0.997E-02 -.168E-01
   -.107E+01 -.428E+00 0.202E+02   0.108E+01 0.425E+00 -.202E+02   -.500E-02 0.178E-02 0.101E-02
   0.537E+00 0.381E+01 0.212E+02   -.533E+00 -.381E+01 -.212E+02   -.641E-02 0.361E-02 0.895E-02
   -.182E+01 -.110E+02 0.297E+02   0.181E+01 0.110E+02 -.297E+02   0.144E-01 -.688E-02 0.160E-02
   -.879E+00 -.580E+01 0.229E+02   0.871E+00 0.581E+01 -.229E+02   0.454E-02 -.475E-02 -.191E-02
   0.104E+02 -.457E+01 0.321E+02   -.104E+02 0.457E+01 -.321E+02   0.180E-02 -.673E-02 -.337E-01
   0.660E+01 -.559E+01 0.272E+02   -.660E+01 0.559E+01 -.272E+02   -.811E-02 0.772E-02 -.144E-01
   -.227E+01 0.455E+01 0.553E+02   0.228E+01 -.456E+01 -.553E+02   -.220E-01 0.213E-01 0.478E-01
   -.332E+01 -.716E+01 0.537E+02   0.331E+01 0.717E+01 -.537E+02   0.189E-01 -.296E-01 0.327E-01
   0.329E+01 -.138E+01 0.221E+02   -.328E+01 0.138E+01 -.221E+02   -.144E-02 -.654E-03 -.887E-02
   0.675E+00 0.292E+01 0.222E+02   -.670E+00 -.292E+01 -.222E+02   -.998E-02 0.569E-02 0.604E-03
   -.126E+02 0.166E+01 0.375E+02   0.126E+02 -.167E+01 -.375E+02   -.104E-02 0.161E-01 -.111E-01
   -.119E+02 -.485E+01 0.353E+02   0.119E+02 0.484E+01 -.353E+02   -.229E-01 0.163E-01 0.531E-02
   0.397E+01 -.802E+01 0.282E+02   -.398E+01 0.802E+01 -.281E+02   0.106E-01 0.228E-02 -.179E-01
   0.362E+00 -.320E+01 0.232E+02   -.367E+00 0.320E+01 -.232E+02   -.191E-02 0.407E-02 -.825E-02
   -.913E+01 -.967E+01 0.410E+02   0.915E+01 0.968E+01 -.410E+02   -.250E-01 -.158E-01 0.108E-01
   -.577E+01 -.106E+02 0.310E+02   0.578E+01 0.106E+02 -.310E+02   0.581E-03 -.127E-01 0.105E-01
   0.414E+00 0.165E+01 0.208E+02   -.419E+00 -.165E+01 -.208E+02   0.949E-02 -.675E-02 0.432E-02
   0.111E+01 0.164E+01 0.219E+02   -.112E+01 -.164E+01 -.219E+02   -.509E-03 0.206E-02 -.524E-02
   -.454E+01 0.642E+00 0.233E+02   0.454E+01 -.646E+00 -.233E+02   0.521E-02 -.519E-03 -.381E-03
   -.397E+01 -.163E+01 0.229E+02   0.397E+01 0.162E+01 -.229E+02   -.886E-02 0.558E-02 -.776E-03
   -.787E+01 -.409E+01 0.257E+02   0.789E+01 0.408E+01 -.257E+02   -.985E-02 0.257E-02 0.206E-02
   -.478E+01 -.385E+01 0.226E+02   0.479E+01 0.385E+01 -.226E+02   -.869E-02 0.199E-02 0.983E-02
   -.443E+01 -.574E+01 0.238E+02   0.443E+01 0.575E+01 -.238E+02   -.759E-02 -.322E-02 0.748E-02
   -.664E+00 -.142E+01 0.212E+02   0.664E+00 0.142E+01 -.212E+02   0.272E-02 -.115E-02 0.845E-02
   0.166E+01 0.406E+01 0.218E+02   -.166E+01 -.407E+01 -.218E+02   -.477E-02 0.576E-02 0.818E-02
   0.531E+01 0.832E+01 0.265E+02   -.531E+01 -.832E+01 -.265E+02   0.514E-02 0.466E-02 0.126E-01
   0.445E+00 0.703E+01 0.235E+02   -.436E+00 -.704E+01 -.235E+02   -.548E-02 0.583E-02 -.291E-03
   -.698E-01 0.119E+02 0.312E+02   0.841E-01 -.119E+02 -.312E+02   -.186E-01 0.902E-02 0.530E-02
   -.133E+01 0.260E+01 0.231E+02   0.133E+01 -.260E+01 -.231E+02   0.244E-02 -.385E-02 -.521E-02
   -.536E+01 0.670E+01 0.268E+02   0.537E+01 -.670E+01 -.268E+02   -.111E-01 0.174E-02 -.128E-01
   -.104E+01 -.283E+01 0.218E+02   0.104E+01 0.283E+01 -.219E+02   0.112E-01 -.267E-02 0.208E-02
   -.259E+01 0.102E+01 0.211E+02   0.258E+01 -.101E+01 -.211E+02   0.986E-03 0.174E-02 -.747E-02
   0.237E+00 -.177E+01 0.209E+02   -.241E+00 0.177E+01 -.210E+02   0.703E-02 -.412E-02 0.594E-02
   0.279E+01 0.202E+01 0.211E+02   -.279E+01 -.202E+01 -.211E+02   0.476E-02 0.951E-03 0.295E-02
   0.493E-01 -.301E-01 -.364E+03   -.513E-01 0.324E-01 0.364E+03   -.378E-02 0.246E-02 -.639E-02
   -.229E+03 0.156E+03 -.559E+03   0.279E+03 -.190E+03 0.563E+03   -.511E+02 0.347E+02 -.341E+01
   0.229E+03 -.156E+03 -.537E+03   -.279E+03 0.190E+03 0.534E+03   0.511E+02 -.348E+02 0.309E+01
 -----------------------------------------------------------------------------------------------
   -.100E-02 0.991E-02 0.323E+00   0.171E-12 -.142E-12 -.682E-12   0.372E-03 -.953E-02 -.322E+00
 
 
 POSITION                                       TOTAL-FORCE (eV/Angst)
 -----------------------------------------------------------------------------------
     11.98348      0.00342      0.01417         0.002895     -0.000432     -0.000686
     -0.34154      1.42665      0.01100        -0.001811      0.000111     -0.001785
      2.12355      0.00315      0.01249        -0.000433      0.006426     -0.003255
      2.12326      1.42653      0.00641         0.008185      0.000449     -0.000303
     10.75099      2.13819      0.01213         0.000586     -0.004739      0.000664
     -1.57382      3.56123      0.01110        -0.006463      0.005505     -0.000878
      0.89078      2.13854      0.00548         0.006242     -0.013330      0.006577
      0.89099      3.56147      0.00181        -0.012265     -0.000578      0.015430
      4.58864      0.00346      0.01135         0.004518     -0.015172     -0.001345
      4.58894      1.42623      0.00646        -0.016826      0.009603      0.018948
      9.51854      4.27281      0.01369         0.007079     -0.003999      0.000404
     -2.80632      5.69591      0.01434        -0.006301      0.003320      0.001053
      2.12300      4.27302      0.00000         0.017424     -0.002918      0.025376
      2.12335      5.69594      0.00581        -0.001704      0.008730     -0.000401
      7.05344      0.00333      0.01399         0.007842     -0.004190      0.000246
      7.05353      1.42635      0.01368        -0.002403      0.004456     -0.002713
      8.28610      6.40752      0.01601         0.003437     -0.001570     -0.000565
     -4.03885      7.83070      0.01636        -0.001703      0.001189      0.000069
      3.35586      6.40753      0.01007         0.003076     -0.000220     -0.000474
      3.35599      7.83072      0.01320        -0.003416      0.000528     -0.000168
     -0.34146      4.27290      0.00723        -0.000487     -0.001648     -0.002767
     -0.34138      5.69591      0.00946        -0.007833      0.004501     -0.000228
      3.35624      2.13791      0.00222        -0.008568      0.008055      0.026346
      3.35573      3.56155      0.00139         0.009522     -0.010865      0.017910
     -1.57395      6.40758      0.01311         0.006938     -0.004328     -0.000432
     -1.57385      7.83068      0.01438        -0.004602      0.003843      0.000421
      5.82093      2.13784      0.01033         0.015746      0.003571     -0.000351
      5.82114      3.56097      0.01156        -0.004493      0.005062     -0.001424
      0.89092      6.40755      0.00907         0.004254      0.000998     -0.001159
      0.89106      7.83068      0.01235        -0.007226      0.002378      0.000582
      4.58871      4.27293      0.00850        -0.007982     -0.005126     -0.005439
      4.58852      5.69606      0.01149         0.001317      0.001385     -0.002247
      9.51845      0.00337      0.01490         0.004584     -0.004621      0.000428
      9.51855      1.42644      0.01438        -0.004781      0.006316     -0.000147
      8.28593      2.13803      0.01453         0.005053     -0.004046      0.000911
      8.28613      3.56115      0.01464        -0.004249      0.001777      0.000361
      7.05356      4.27269      0.01457         0.003528     -0.000954      0.000197
      7.05362      5.69588      0.01553        -0.002351      0.000838      0.000117
      5.82112      6.40755      0.01489        -0.002018      0.001774      0.000349
      5.82102      7.83073      0.01579         0.002489      0.000635     -0.000119
      7.05363      8.54227      0.01631        -0.004297      0.000491      0.001323
     -5.27149      9.96549      0.01495        -0.000925     -0.002422     -0.001414
     -2.80638      8.54234      0.01558         0.003427     -0.001760     -0.000640
     -2.80627      9.96553      0.01362        -0.003910      0.000439     -0.002531
     -0.34149      8.54239      0.01378         0.005833     -0.003451      0.000533
     -0.34138      9.96550      0.01354        -0.005927      0.000994     -0.000369
      2.12343      8.54232      0.01336         0.005657     -0.001596      0.001099
      2.12354      9.96544      0.01469        -0.006401      0.004277     -0.001752
      4.58846      8.54235      0.01505         0.003457     -0.002942      0.001118
      4.58853      9.96550      0.01517        -0.003399      0.003239      0.000482
      3.04930      2.68154      4.20448        -0.005638      0.004642     -0.006093
      4.02070      2.02068      4.26890        -0.519145      0.352978     -0.071958
      2.07767      3.34267      4.14503         0.524467     -0.357602     -0.009301
 -----------------------------------------------------------------------------------
    total drift:                               -0.000630      0.000384      0.000375


--------------------------------------------------------------------------------------------------------



  FREE ENERGIE OF THE ION-ELECTRON SYSTEM (eV)
  ---------------------------------------------------
  free  energy   TOTEN  =      -486.58307807 eV

  energy  without entropy=     -486.58307807  energy(sigma->0) =     -486.58307807
 


--------------------------------------------------------------------------------------------------------


    POTLOK:  cpu time    0.3803: real time    0.3829


--------------------------------------------------------------------------------------------------------


     LOOP+:  cpu time  146.1658: real time  147.7929
    4ORBIT:  cpu time    0.0000: real time    0.0000

 total amount of memory used by VASP MPI-rank0   215378. kBytes
=======================================================================

   base      :      30000. kBytes
   nonl-proj :      57634. kBytes
   fftplans  :      45914. kBytes
   grid      :      67588. kBytes
   one-center:         43. kBytes
   wavefun   :      14199. kBytes
 
  
  
 General timing and accounting informations for this job:
 ========================================================
  
                  Total CPU time used (sec):      189.868
                            User time (sec):      174.356
                          System time (sec):       15.512
                         Elapsed time (sec):      192.635
  
                   Maximum memory used (kb):      583120.
                   Average memory used (kb):          N/A
  
                          Minor page faults:        61162
                          Major page faults:          101
                 Voluntary context switches:         3723
