 vasp.6.2.1 16May21 (build Nov 06 2021 14:46:37) complex                        
  
 executed on             LinuxIFC date 2025.04.16  23:02:04
 running on  112 total cores
 distrk:  each k-point on  112 cores,    1 groups
 distr:  one band on NCORE=   4 cores,   28 groups


--------------------------------------------------------------------------------------------------------


 INCAR:
   ALGO = Conjugate
   NCORE = 4
   ISMEAR = 0
   SIGMA = 0.01
   PREC = Accurate
   EDIFF = 1E-6
   ENCUT = 1000
   ISIF = 0
   IVDW = 11
   LWAVE = .FALSE.
   LCHARGE = .FALSE.
   SYMPREC = 1E-6

 POTCAR:    PAW_PBE C_h 06Feb2004                 
 POTCAR:    PAW_PBE O_h 06Feb2004                 
 -----------------------------------------------------------------------------
|                                                                             |
|           W    W    AA    RRRRR   N    N  II  N    N   GGGG   !!!           |
|           W    W   A  A   R    R  NN   N  II  NN   N  G    G  !!!           |
|           W    W  A    A  R    R  N N  N  II  N N  N  G       !!!           |
|           W WW W  AAAAAA  RRRRR   N  N N  II  N  N N  G  GGG   !            |
|           WW  WW  A    A  R   R   N   NN  II  N   NN  G    G                |
|           W    W  A    A  R    R  N    N  II  N    N   GGGG   !!!           |
|                                                                             |
|     For optimal performance we recommend to set                             |
|       NCORE = 2 up to number-of-cores-per-socket                            |
|     NCORE specifies how many cores store one orbital (NPAR=cpu/NCORE).      |
|     This setting can greatly improve the performance of VASP for DFT.       |
|     The default, NCORE=1 might be grossly inefficient on modern             |
|     multi-core architectures or massively parallel machines. Do your        |
|     own testing! More info at https://www.vasp.at/wiki/index.php/NCORE      |
|     Unfortunately you need to use the default for GW and RPA                |
|     calculations (for HF NCORE is supported but not extensively tested      |
|     yet).                                                                   |
|                                                                             |
 -----------------------------------------------------------------------------

 POTCAR:    PAW_PBE C_h 06Feb2004                 
   VRHFIN =C: s2p2                                                                                  
   LEXCH  = PE                                                                                      
   EATOM  =   147.1560 eV,   10.8157 Ry                                                             
                                                                                                    
   TITEL  = PAW_PBE C_h 06Feb2004                                                                   
   LULTRA =        F    use ultrasoft PP ?                                                          
   IUNSCR =        1    unscreen: 0-lin 1-nonlin 2-no                                               
   RPACOR =    0.800    partial core radius                                                         
   POMASS =   12.011; ZVAL   =    4.000    mass and valenz                                          
   RCORE  =    1.100    outmost cutoff radius                                                       
   RWIGS  =    1.630; RWIGS  =    0.863    wigner-seitz radius (au A)                               
   ENMAX  =  700.000; ENMIN  =  500.000 eV                                                          
   ICORE  =        2    local potential                                                             
   LCOR   =        T    correct aug charges                                                         
   LPAW   =        T    paw PP                                                                      
   EAUG   =  946.768                                                                                
   DEXC   =    0.000                                                                                
   RMAX   =    1.128    core radius for proj-oper                                                   
   RAUG   =    1.300    factor for augmentation sphere                                              
   RDEP   =    1.162    radius for radial grids                                                     
   RDEPT  =    1.088    core radius for aug-charge                                                  
                                                                                                    
   Atomic configuration                                                                             
    4 entries                                                                                       
     n  l   j            E        occ.                                                              
     1  0  0.50      -273.3789   2.0000                                                             
     2  0  0.50       -13.7508   2.0000                                                             
     2  1  0.50        -5.2854   2.0000                                                             
     3  2  1.50        -5.4423   0.0000                                                             
   Description                                                                                      
     l       E           TYP  RCUT    TYP  RCUT                                                     
     0    -13.7508458     23  1.100                                                                 
     0     -8.2022199     23  1.100                                                                 
     1     -5.2854383     23  1.100                                                                 
     1      1.1560700     23  1.100                                                                 
     2     -5.4423304      7  1.100                                                                 
  local pseudopotential read in
  partial core-charges read in
  partial kinetic energy density read in
  atomic valenz-charges read in
  non local Contribution for L=           0  read in
    real space projection operators read in
  non local Contribution for L=           0  read in
    real space projection operators read in
  non local Contribution for L=           1  read in
    real space projection operators read in
  non local Contribution for L=           1  read in
    real space projection operators read in
    PAW grid and wavefunctions read in
 
   number of l-projection  operators is LMAX  =           4
   number of lm-projection operators is LMMAX =           8
 
 POTCAR:    PAW_PBE O_h 06Feb2004                 
   VRHFIN =O: s2p4                                                                                  
   LEXCH  = PE                                                                                      
   EATOM  =   432.3788 eV,   31.7789 Ry                                                             
                                                                                                    
   TITEL  = PAW_PBE O_h 06Feb2004                                                                   
   LULTRA =        F    use ultrasoft PP ?                                                          
   IUNSCR =        1    unscreen: 0-lin 1-nonlin 2-no                                               
   RPACOR =    0.800    partial core radius                                                         
   POMASS =   16.000; ZVAL   =    6.000    mass and valenz                                          
   RCORE  =    1.100    outmost cutoff radius                                                       
   RWIGS  =    1.400; RWIGS  =    0.741    wigner-seitz radius (au A)                               
   ENMAX  =  700.000; ENMIN  =  500.000 eV                                                          
   ICORE  =        2    local potential                                                             
   LCOR   =        T    correct aug charges                                                         
   LPAW   =        T    paw PP                                                                      
   EAUG   =  888.804                                                                                
   DEXC   =    0.000                                                                                
   RMAX   =    1.128    core radius for proj-oper                                                   
   RAUG   =    1.300    factor for augmentation sphere                                              
   RDEP   =    1.125    radius for radial grids                                                     
   RDEPT  =    1.088    core radius for aug-charge                                                  
                                                                                                    
   Atomic configuration                                                                             
    4 entries                                                                                       
     n  l   j            E        occ.                                                              
     1  0  0.50      -514.6923   2.0000                                                             
     2  0  0.50       -23.9615   2.0000                                                             
     2  1  0.50        -9.0305   4.0000                                                             
     3  2  1.50        -9.5241   0.0000                                                             
   Description                                                                                      
     l       E           TYP  RCUT    TYP  RCUT                                                     
     0    -23.9615319     23  1.100                                                                 
     0    -25.3221145     23  1.100                                                                 
     1     -9.0304911     23  1.100                                                                 
     1     -5.4802209     23  1.100                                                                 
     2     -9.5240782      7  1.100                                                                 
  local pseudopotential read in
  partial core-charges read in
  partial kinetic energy density read in
  atomic valenz-charges read in
  non local Contribution for L=           0  read in
    real space projection operators read in
  non local Contribution for L=           0  read in
    real space projection operators read in
  non local Contribution for L=           1  read in
    real space projection operators read in
  non local Contribution for L=           1  read in
    real space projection operators read in
    PAW grid and wavefunctions read in
 
   number of l-projection  operators is LMAX  =           4
   number of lm-projection operators is LMMAX =           8
 
 -----------------------------------------------------------------------------
|                                                                             |
|               ----> ADVICE to this user running VASP <----                  |
|                                                                             |
|     You have a (more or less) 'large supercell' and for larger cells it     |
|     might be more efficient to use real-space projection operators.         |
|     Therefore, try LREAL= Auto in the INCAR file.                           |
|     Mind: For very accurate calculation, you might also keep the            |
|     reciprocal projection scheme (i.e. LREAL=.FALSE.).                      |
|                                                                             |
 -----------------------------------------------------------------------------

  PAW_PBE C_h 06Feb2004                 :
 energy of atom  1       EATOM= -147.1560
 kinetic energy error for atom=    0.0031 (will be added to EATOM!!)
  PAW_PBE O_h 06Feb2004                 :
 energy of atom  2       EATOM= -432.3788
 kinetic energy error for atom=    0.0171 (will be added to EATOM!!)
 
 
 POSCAR:  C  O
  positions in cartesian coordinates
  No initial velocities read in
 exchange correlation table for  LEXCH =        8
   RHO(1)=    0.500       N(1)  =     2000
   RHO(2)=  100.500       N(2)  =     4000
 


--------------------------------------------------------------------------------------------------------


 ion  position               nearest neighbor table
   1  0.972  0.000  0.001-  50 1.42   2 1.42  42 1.42
   2  0.039  0.134  0.000-   5 1.42   7 1.42   1 1.42
   3  0.172  0.000  0.000-  42 1.42  44 1.42   4 1.42
   4  0.239  0.134  0.000-   7 1.42   3 1.42  23 1.42
   5  0.972  0.200  0.000-   6 1.42   2 1.42  34 1.42
   6  0.039  0.334  0.000-   5 1.42  21 1.42  11 1.42
   7  0.172  0.200  0.000-   8 1.42   2 1.42   4 1.42
   8  0.239  0.334  0.000-  13 1.42   7 1.42  21 1.42
   9  0.372  0.000  0.000-  10 1.42  44 1.42  46 1.42
  10  0.439  0.134  0.000-  27 1.42   9 1.42  23 1.42
  11  0.972  0.400  0.001-  12 1.42  36 1.42   6 1.42
  12  0.039  0.534  0.001-  25 1.42  11 1.42  17 1.42
  13  0.372  0.400  0.000-   8 1.42  14 1.42  24 1.42
  14  0.439  0.534  0.000-  13 1.42  29 1.42  19 1.42
  15  0.572  0.000  0.001-  46 1.42  16 1.42  48 1.42
  16  0.639  0.134  0.001-  15 1.42  35 1.42  27 1.42
  17  0.972  0.600  0.001-  38 1.42  18 1.42  12 1.42
  18  0.039  0.734  0.001-  43 1.42  41 1.42  17 1.42
  19  0.572  0.600  0.000-  14 1.42  20 1.42  32 1.42
  20  0.639  0.734  0.001-  49 1.42  19 1.42  47 1.42
  21  0.172  0.400  0.000-  22 1.42   8 1.42   6 1.42
  22  0.239  0.534  0.000-  21 1.42  29 1.42  25 1.42
  23  0.372  0.200  0.000-  10 1.42   4 1.42  24 1.42
  24  0.439  0.334  0.000-  13 1.42  31 1.42  23 1.42
  25  0.172  0.600  0.001-  26 1.42  12 1.42  22 1.42
  26  0.239  0.734  0.001-  25 1.42  45 1.42  43 1.42
  27  0.572  0.200  0.000-  10 1.42  28 1.42  16 1.42
  28  0.639  0.334  0.000-  27 1.42  37 1.42  31 1.42
  29  0.372  0.600  0.000-  22 1.42  14 1.42  30 1.42
  30  0.439  0.734  0.000-  47 1.42  29 1.42  45 1.42
  31  0.572  0.400  0.000-  32 1.42  28 1.42  24 1.42
  32  0.639  0.534  0.000-  31 1.42  39 1.42  19 1.42
  33  0.772  0.000  0.001-  34 1.42  48 1.42  50 1.42
  34  0.839  0.134  0.001-  33 1.42   5 1.42  35 1.42
  35  0.772  0.200  0.001-  36 1.42  16 1.42  34 1.42
  36  0.839  0.334  0.001-  35 1.42  11 1.42  37 1.42
  37  0.772  0.400  0.001-  28 1.42  38 1.42  36 1.42
  38  0.839  0.534  0.001-  17 1.42  37 1.42  39 1.42
  39  0.772  0.600  0.001-  40 1.42  38 1.42  32 1.42
  40  0.839  0.734  0.001-  39 1.42  49 1.42  41 1.42
  41  0.972  0.800  0.001-  18 1.42  42 1.42  40 1.42
  42  0.039  0.934  0.001-   3 1.42  41 1.42   1 1.42
  43  0.172  0.800  0.001-  18 1.42  44 1.42  26 1.42
  44  0.239  0.934  0.001-   9 1.42  43 1.42   3 1.42
  45  0.372  0.800  0.001-  26 1.42  46 1.42  30 1.42
  46  0.439  0.934  0.001-  15 1.42  45 1.42   9 1.42
  47  0.572  0.800  0.001-  30 1.42  48 1.42  20 1.42
  48  0.639  0.934  0.001-  47 1.42  33 1.42  15 1.42
  49  0.772  0.800  0.001-  50 1.42  20 1.42  40 1.42
  50  0.839  0.934  0.001-  49 1.42   1 1.42  33 1.42
  51  0.373  0.251  0.317-  52 1.18  53 1.18
  52  0.421  0.189  0.320-  51 1.18
  53  0.325  0.313  0.315-  51 1.18
 
  LATTYP: Found a hexagonal cell.
 ALAT       =    12.3250000000
 C/A-ratio  =     2.0283975659
  
  Lattice vectors:
  
 A1 = (  12.3250000000,   0.0000000000,   0.0000000000)
 A2 = (  -6.1625000000,  10.6737631016,   0.0000000000)
 A3 = (   0.0000000000,   0.0000000000,  25.0000000000)


Analysis of symmetry for initial positions (statically):
=====================================================================
 Subroutine PRICEL returns:
 Original cell was already a primitive cell.
 

 Routine SETGRP: Setting up the symmetry group for a 
 hexagonal supercell.


 Subroutine GETGRP returns: Found  1 space group operations
 (whereof  1 operations were pure point group operations)
 out of a pool of 24 trial point group operations.


The static configuration has the point symmetry C_1 .


Analysis of symmetry for dynamics (positions and initial velocities):
=====================================================================
 Subroutine PRICEL returns:
 Original cell was already a primitive cell.
 

 Routine SETGRP: Setting up the symmetry group for a 
 hexagonal supercell.


 Subroutine GETGRP returns: Found  1 space group operations
 (whereof  1 operations were pure point group operations)
 out of a pool of 24 trial point group operations.


The dynamic configuration has the point symmetry C_1 .


 Subroutine INISYM returns: Found  1 space group operations
 (whereof  1 operations are pure point group operations),
 and found     1 'primitive' translations


----------------------------------------------------------------------------------------

                                     Primitive cell                                     

  volume of cell :    3288.8533

  direct lattice vectors                    reciprocal lattice vectors
    12.325000000  0.000000000  0.000000000     0.081135903  0.046843835  0.000000000
    -6.162500000 10.673763102  0.000000000     0.000000000  0.093687670  0.000000000
     0.000000000  0.000000000 25.000000000     0.000000000  0.000000000  0.040000000

  length of vectors
    12.325000000 12.325000000 25.000000000     0.093687670  0.093687670  0.040000000

  position of ions in fractional coordinates (direct lattice)
     0.972450841  0.000320818  0.000566711
     0.039118382  0.133659505  0.000440173
     0.172443627  0.000295449  0.000499628
     0.239096278  0.133647917  0.000256468
     0.972452058  0.200322012  0.000485219
     0.039128360  0.333643771  0.000444150
     0.172451764  0.200354552  0.000219167
     0.239124359  0.333665720  0.000072260
     0.372465565  0.000324403  0.000453913
     0.439137473  0.133619939  0.000258338
     0.972449824  0.400309362  0.000547611
     0.039124981  0.533636789  0.000573410
     0.372416176  0.400329481  0.000000000
     0.439099602  0.533638981  0.000232414
     0.572443676  0.000312125  0.000559580
     0.639110207  0.133631751  0.000547275
     0.972452703  0.600305653  0.000640289
     0.039124495  0.733640359  0.000654513
     0.572433471  0.600306242  0.000402895
     0.639111888  0.733641879  0.000527905
     0.172454630  0.400318228  0.000289045
     0.239120185  0.533636548  0.000378509
     0.372459750  0.200295993  0.000088997
     0.439107096  0.333673419  0.000055762
     0.172452155  0.600311506  0.000524340
     0.239123371  0.733638574  0.000575129
     0.572431082  0.200289171  0.000413296
     0.639112773  0.333618630  0.000462376
     0.372439808  0.600308022  0.000362844
     0.439116090  0.733637858  0.000494190
     0.572469358  0.400320504  0.000339918
     0.639119408  0.533650873  0.000459610
     0.772445723  0.000315427  0.000596161
     0.839116277  0.133640203  0.000575306
     0.772440513  0.200307432  0.000581033
     0.839120241  0.333635728  0.000585467
     0.772446320  0.400298367  0.000582978
     0.839118980  0.533633964  0.000621100
     0.772456143  0.600308173  0.000595712
     0.839115033  0.733643180  0.000631512
     0.972455313  0.800305582  0.000652233
     0.039114714  0.933643289  0.000598051
     0.172457971  0.800312211  0.000623372
     0.239134551  0.933647193  0.000544850
     0.372451396  0.800316674  0.000551399
     0.439124489  0.933644769  0.000541430
     0.572441101  0.800310054  0.000534535
     0.639115067  0.933638985  0.000587644
     0.772445098  0.800313187  0.000602062
     0.839116614  0.933644338  0.000606830
     0.373021009  0.251226878  0.317480210
     0.420879805  0.189313152  0.320057085
     0.325156981  0.313167186  0.315102016

  ion indices of the primitive-cell ions
   primitive index   ion index
                 1           1
                 2           2
                 3           3
                 4           4
                 5           5
                 6           6
                 7           7
                 8           8
                 9           9
                10          10
                11          11
                12          12
                13          13
                14          14
                15          15
                16          16
                17          17
                18          18
                19          19
                20          20
                21          21
                22          22
                23          23
                24          24
                25          25
                26          26
                27          27
                28          28
                29          29
                30          30
                31          31
                32          32
                33          33
                34          34
                35          35
                36          36
                37          37
                38          38
                39          39
                40          40
                41          41
                42          42
                43          43
                44          44
                45          45
                46          46
                47          47
                48          48
                49          49
                50          50
                51          51
                52          52
                53          53

----------------------------------------------------------------------------------------

 
 
 KPOINTS: auto                                    

Automatic generation of k-mesh.
 Grid dimensions read from file:
 generate k-points for:    1    1    1

 Generating k-lattice:

  Cartesian coordinates                     Fractional coordinates (reciprocal lattice)
     0.081135903  0.046843835  0.000000000     1.000000000 -0.000000000  0.000000000
     0.000000000  0.093687670  0.000000000     0.000000000  1.000000000  0.000000000
     0.000000000  0.000000000  0.040000000     0.000000000  0.000000000  1.000000000

  Length of vectors
     0.093687670  0.093687670  0.040000000

  Shift w.r.t. Gamma in fractional coordinates (k-lattice)
     0.000000000  0.000000000  0.000000000

 
 Subroutine IBZKPT returns following result:
 ===========================================
 
 Found      1 irreducible k-points:
 
 Following reciprocal coordinates:
            Coordinates               Weight
  0.000000  0.000000  0.000000      1.000000
 
 Following cartesian coordinates:
            Coordinates               Weight
  0.000000  0.000000  0.000000      1.000000
 


--------------------------------------------------------------------------------------------------------




 Dimension of arrays:
   k-points           NKPTS =      1   k-points in BZ     NKDIM =      1   number of bands    NBANDS=    140
   number of dos      NEDOS =    301   number of ions     NIONS =     53
   non local maximal  LDIM  =      4   non local SUM 2l+1 LMDIM =      8
   total plane-waves  NPLWV = ******
   max r-space proj   IRMAX =      1   max aug-charges    IRDMAX=  10008
   dimension x,y,z NGX =   128 NGY =  128 NGZ =  270
   dimension x,y,z NGXF=   256 NGYF=  256 NGZF=  540
   support grid    NGXF=   256 NGYF=  256 NGZF=  540
   ions per type =              51   2
   NGX,Y,Z   is equivalent  to a cutoff of  17.27, 17.27, 17.95 a.u.
   NGXF,Y,Z  is equivalent  to a cutoff of  34.53, 34.53, 35.91 a.u.

 SYSTEM =  unknown system                          
 POSCAR =   C  O                                   

 Startparameter for this run:
   NWRITE =      2    write-flag & timer
   PREC   = accura    normal or accurate (medium, high low for compatibility)
   ISTART =      0    job   : 0-new  1-cont  2-samecut
   ICHARG =      2    charge: 1-file 2-atom 10-const
   ISPIN  =      1    spin polarized calculation?
   LNONCOLLINEAR =      F non collinear calculations
   LSORBIT =      F    spin-orbit coupling
   INIWAV =      1    electr: 0-lowe 1-rand  2-diag
   LASPH  =      F    aspherical Exc in radial PAW
 Electronic Relaxation 1
   ENCUT  = 1000.0 eV  73.50 Ry    8.57 a.u.  31.78 31.78 64.46*2*pi/ulx,y,z
   ENINI  = 1000.0     initial cutoff
   ENAUG  =  946.8 eV  augmentation charge cutoff
   NELM   =     60;   NELMIN=  2; NELMDL= -5     # of ELM steps 
   EDIFF  = 0.1E-05   stopping-criterion for ELM
   LREAL  =      F    real-space projection
   NLSPLINE    = F    spline interpolate recip. space projectors
   LCOMPAT=      F    compatible to vasp.4.4
   GGA_COMPAT  = T    GGA compatible to vasp.4.4-vasp.4.6
   LMAXPAW     = -100 max onsite density
   LMAXMIX     =    2 max onsite mixed and CHGCAR
   VOSKOWN=      0    Vosko Wilk Nusair interpolation
   ROPT   =    0.00000   0.00000
 Ionic relaxation
   EDIFFG = 0.1E-04   stopping-criterion for IOM
   NSW    =      0    number of steps for IOM
   NBLOCK =      1;   KBLOCK =      1    inner block; outer block 
   IBRION =     -1    ionic relax: 0-MD 1-quasi-New 2-CG
   NFREE  =      0    steps in history (QN), initial steepest desc. (CG)
   ISIF   =      0    stress and relaxation
   IWAVPR =     10    prediction:  0-non 1-charg 2-wave 3-comb
   ISYM   =      2    0-nonsym 1-usesym 2-fastsym
   LCORR  =      T    Harris-Foulkes like correction to forces

   POTIM  = 0.5000    time-step for ionic-motion
   TEIN   =    0.0    initial temperature
   TEBEG  =    0.0;   TEEND  =   0.0 temperature during run
   SMASS  =  -3.00    Nose mass-parameter (am)
   estimated Nose-frequenzy (Omega)   =  0.10E-29 period in steps = 0.13E+47 mass=  -0.347E-26a.u.
   SCALEE = 1.0000    scale energy and forces
   NPACO  =    256;   APACO  = 16.0  distance and # of slots for P.C.
   PSTRESS=    0.0 pullay stress

  Mass of Ions in am
   POMASS =  12.01 16.00
  Ionic Valenz
   ZVAL   =   4.00  6.00
  Atomic Wigner-Seitz radii
   RWIGS  =  -1.00 -1.00
  virtual crystal weights 
   VCA    =   1.00  1.00
   NELECT =     216.0000    total number of electrons
   NUPDOWN=      -1.0000    fix difference up-down

 DOS related values:
   EMIN   =  10.00;   EMAX   =-10.00  energy-range for DOS
   EFERMI =   0.00
   ISMEAR =     0;   SIGMA  =   0.01  broadening in eV -4-tet -1-fermi 0-gaus

 Electronic relaxation 2 (details)
   IALGO  =     58    algorithm
   LDIAG  =      T    sub-space diagonalisation (order eigenvalues)
   LSUBROT=      F    optimize rotation matrix (better conditioning)
   TURBO    =      0    0=normal 1=particle mesh
   IRESTART =      0    0=no restart 2=restart with 2 vectors
   NREBOOT  =      0    no. of reboots
   NMIN     =      0    reboot dimension
   EREF     =   0.00    reference energy to select bands
   IMIX   =      4    mixing-type and parameters
     AMIX     =   0.40;   BMIX     =  1.00
     AMIX_MAG =   1.60;   BMIX_MAG =  1.00
     AMIN     =   0.10
     WC   =   100.;   INIMIX=   1;  MIXPRE=   1;  MAXMIX= -45

 Intra band minimization:
   WEIMIN = 0.0000     energy-eigenvalue tresh-hold
   EBREAK =  0.18E-08  absolut break condition
   DEPER  =   0.30     relativ break condition  

   TIME   =   0.40     timestep for ELM

  volume/ion in A,a.u.               =      62.05       418.76
  Fermi-wavevector in a.u.,A,eV,Ry     =   0.660508  1.248179  5.935820  0.436270
  Thomas-Fermi vector in A             =   1.732977
 
 Write flags
   LWAVE        =      F    write WAVECAR
   LDOWNSAMPLE  =      F    k-point downsampling of WAVECAR
   LCHARG       =      T    write CHGCAR
   LVTOT        =      F    write LOCPOT, total local potential
   LVHAR        =      F    write LOCPOT, Hartree potential only
   LELF         =      F    write electronic localiz. function (ELF)
   LORBIT       =      0    0 simple, 1 ext, 2 COOP (PROOUT), +10 PAW based schemes


 Dipole corrections
   LMONO  =      F    monopole corrections only (constant potential shift)
   LDIPOL =      F    correct potential (dipole corrections)
   IDIPOL =      0    1-x, 2-y, 3-z, 4-all directions 
   EPSILON=  1.0000000 bulk dielectric constant

 Exchange correlation treatment:
   GGA     =    --    GGA type
   LEXCH   =     8    internal setting for exchange type
   VOSKOWN=      0    Vosko Wilk Nusair interpolation
   LHFCALC =     F    Hartree Fock is set to
   LHFONE  =     F    Hartree Fock one center treatment
   AEXX    =    0.0000 exact exchange contribution

 Linear response parameters
   LEPSILON=     F    determine dielectric tensor
   LRPA    =     F    only Hartree local field effects (RPA)
   LNABLA  =     F    use nabla operator in PAW spheres
   LVEL    =     F    velocity operator in full k-point grid
   LINTERFAST=   F  fast interpolation
   KINTER  =     0    interpolate to denser k-point grid
   CSHIFT  =0.1000    complex shift for real part using Kramers Kronig
   OMEGAMAX=  -1.0    maximum frequency
   DEG_THRESHOLD= 0.2000000E-02 threshold for treating states as degnerate
   RTIME   =   -0.100 relaxation time in fs
  (WPLASMAI=    0.000 imaginary part of plasma frequency in eV, 0.658/RTIME)
   DFIELD  = 0.0000000 0.0000000 0.0000000 field for delta impulse in time
 
 Orbital magnetization related:
   ORBITALMAG=     F  switch on orbital magnetization
   LCHIMAG   =     F  perturbation theory with respect to B field
   DQ        =  0.001000  dq finite difference perturbation B field
   LLRAUG    =     F  two centre corrections for induced B field



--------------------------------------------------------------------------------------------------------


 Static calculation
 charge density and potential will be updated during run
 non-spin polarized calculation
 Conjugate gradient for all bands (Freysoldt, et al. PRB 79, 241103 (2009))
 preconditioned conjugated gradient                                        
 perform sub-space diagonalisation
    before iterative eigenvector-optimisation
 modified Broyden-mixing scheme, WC =      100.0
 initial mixing is a Kerker type mixing with AMIX =  0.4000 and BMIX =      1.0000
 Hartree-type preconditioning will be used
 using additional bands           32
 reciprocal scheme for non local part
 use partial core corrections
 no Harris-corrections to forces 
 use gradient corrections 
 use of overlap-Matrix (Vanderbilt PP)
 Gauss-broadening in eV      SIGMA  =   0.01


--------------------------------------------------------------------------------------------------------


  energy-cutoff  :     1000.00
  volume of cell :     3288.85
      direct lattice vectors                 reciprocal lattice vectors
    12.325000000  0.000000000  0.000000000     0.081135903  0.046843835  0.000000000
    -6.162500000 10.673763102  0.000000000     0.000000000  0.093687670  0.000000000
     0.000000000  0.000000000 25.000000000     0.000000000  0.000000000  0.040000000

  length of vectors
    12.325000000 12.325000000 25.000000000     0.093687670  0.093687670  0.040000000


 
 k-points in units of 2pi/SCALE and weight: auto                                    
   0.00000000  0.00000000  0.00000000       1.000
 
 k-points in reciprocal lattice and weights: auto                                    
   0.00000000  0.00000000  0.00000000       1.000
 
 position of ions in fractional coordinates (direct lattice) 
   0.97245084  0.00032082  0.00056671
   0.03911838  0.13365950  0.00044017
   0.17244363  0.00029545  0.00049963
   0.23909628  0.13364792  0.00025647
   0.97245206  0.20032201  0.00048522
   0.03912836  0.33364377  0.00044415
   0.17245176  0.20035455  0.00021917
   0.23912436  0.33366572  0.00007226
   0.37246557  0.00032440  0.00045391
   0.43913747  0.13361994  0.00025834
   0.97244982  0.40030936  0.00054761
   0.03912498  0.53363679  0.00057341
   0.37241618  0.40032948  0.00000000
   0.43909960  0.53363898  0.00023241
   0.57244368  0.00031213  0.00055958
   0.63911021  0.13363175  0.00054727
   0.97245270  0.60030565  0.00064029
   0.03912449  0.73364036  0.00065451
   0.57243347  0.60030624  0.00040289
   0.63911189  0.73364188  0.00052791
   0.17245463  0.40031823  0.00028904
   0.23912018  0.53363655  0.00037851
   0.37245975  0.20029599  0.00008900
   0.43910710  0.33367342  0.00005576
   0.17245216  0.60031151  0.00052434
   0.23912337  0.73363857  0.00057513
   0.57243108  0.20028917  0.00041330
   0.63911277  0.33361863  0.00046238
   0.37243981  0.60030802  0.00036284
   0.43911609  0.73363786  0.00049419
   0.57246936  0.40032050  0.00033992
   0.63911941  0.53365087  0.00045961
   0.77244572  0.00031543  0.00059616
   0.83911628  0.13364020  0.00057531
   0.77244051  0.20030743  0.00058103
   0.83912024  0.33363573  0.00058547
   0.77244632  0.40029837  0.00058298
   0.83911898  0.53363396  0.00062110
   0.77245614  0.60030817  0.00059571
   0.83911503  0.73364318  0.00063151
   0.97245531  0.80030558  0.00065223
   0.03911471  0.93364329  0.00059805
   0.17245797  0.80031221  0.00062337
   0.23913455  0.93364719  0.00054485
   0.37245140  0.80031667  0.00055140
   0.43912449  0.93364477  0.00054143
   0.57244110  0.80031005  0.00053453
   0.63911507  0.93363899  0.00058764
   0.77244510  0.80031319  0.00060206
   0.83911661  0.93364434  0.00060683
   0.37302101  0.25122688  0.31748021
   0.42087980  0.18931315  0.32005708
   0.32515698  0.31316719  0.31510202
 
 position of ions in cartesian coordinates  (Angst):
  11.98347958  0.00342433  0.01416777
  -0.34154264  1.42664989  0.01100432
   2.12354700  0.00315355  0.01249070
   2.12325634  1.42652621  0.00641170
  10.75098721  2.13818970  0.01213047
  -1.57382270  3.56123457  0.01110375
   0.89078307  2.13853702  0.00547917
   0.89099273  3.56146885  0.00180651
   4.58863896  0.00346260  0.01134782
   4.58893648  1.42622757  0.00645846
   9.51853763  4.27280730  0.01369027
  -2.80632132  5.69591267  0.01433526
   2.12299894  4.27302204  0.00000000
   2.12335237  5.69593607  0.00581036
   7.05344483  0.00333155  0.01398950
   7.05352764  1.42635365  0.01368187
   8.28609598  6.40752033  0.01600723
  -4.03884931  7.83070339  0.01636283
   3.35585531  6.40752662  0.01007237
   3.35598594  7.83071962  0.01319763
  -0.34145776  4.27290193  0.00722612
  -0.34137895  5.69591010  0.00946273
   3.35624236  2.13791198  0.00222492
   3.35573251  3.56155103  0.00139405
  -1.57394684  6.40758280  0.01310850
  -1.57385216  7.83068434  0.01437823
   5.82093107  2.13783916  0.01033241
   5.82114012  3.56096622  0.01155939
   0.89092245  6.40754561  0.00907111
   0.89106251  7.83067670  0.01235474
   4.58870974  4.27292622  0.00849795
   4.58852320  5.69606300  0.01149026
   9.51844972  0.00336679  0.01490402
   9.51855036  1.42644387  0.01438264
   8.28593477  2.13803408  0.01452582
   8.28612680  3.56114872  0.01463668
   7.05356221  4.27268994  0.01457444
   7.05362213  5.69588251  0.01552751
   5.82112285  6.40754723  0.01489279
   5.82101669  7.83073350  0.01578780
   7.05362858  8.54227219  0.01630582
  -5.27148792  9.96548729  0.01495127
  -2.80637951  8.54234295  0.01558431
  -2.80626749  9.96552896  0.01362126
  -0.34148805  8.54239058  0.01378498
  -0.34137657  9.96550309  0.01353576
   2.12342586  8.54231992  0.01336337
   2.12354296  9.96544135  0.01469111
   4.58845581  8.54235337  0.01505154
   4.58852904  9.96549848  0.01517076
   3.04929830  2.68153618  7.93700526
   4.02070129  2.02068374  8.00142712
   2.07766701  3.34267235  7.87755039
 


--------------------------------------------------------------------------------------------------------


 k-point   1 :   0.0000 0.0000 0.0000  plane waves:  236157

 maximum and minimum number of plane-waves per node :     59046    59034

 maximum number of plane-waves:    236157
 maximum index in each direction: 
   IXMAX=   31   IYMAX=   31   IZMAX=   64
   IXMIN=  -31   IYMIN=  -31   IZMIN=  -64


 parallel 3D FFT for wavefunctions:
    minimum data exchange during FFTs selected (reduces bandwidth)
 parallel 3D FFT for charge:
    minimum data exchange during FFTs selected (reduces bandwidth)


 total amount of memory used by VASP MPI-rank0   215378. kBytes
=======================================================================

   base      :      30000. kBytes
   nonl-proj :      57634. kBytes
   fftplans  :      45914. kBytes
   grid      :      67588. kBytes
   one-center:         43. kBytes
   wavefun   :      14199. kBytes
 
     INWAV:  cpu time    0.0000: real time    0.0000
 Broyden mixing: mesh for mixing (old mesh)
   NGX = 63   NGY = 63   NGZ =129
  (NGX  =256   NGY  =256   NGZ  =540)
  gives a total of 512001 points

 initial charge density was supplied:
 charge density of overlapping atoms calculated
 number of electron     216.0000000 magnetization 
 keeping initial charge density in first step


--------------------------------------------------------------------------------------------------------


 Maximum index for augmentation-charges          471 (set IRDMAX)


--------------------------------------------------------------------------------------------------------


 First call to EWALD:  gamma=   0.119
 Maximum number of real-space cells 4x 4x 2
 Maximum number of reciprocal cells 2x 2x 4

    FEWALD:  cpu time    0.0023: real time    0.0023


--------------------------------------- Iteration      1(   1)  ---------------------------------------


    POTLOK:  cpu time    0.3889: real time    0.3917
    SETDIJ:  cpu time    0.0051: real time    0.0052
    TRIAL :  cpu time    5.5730: real time    5.6251
    CORREC:  cpu time    0.0004: real time    0.0006
    --------------------------------------------
      LOOP:  cpu time    5.9761: real time    6.0323

 eigenvalue-minimisations  :   280
 total energy-change (2. order) : 0.2770230E+04  (-0.1022404E+05)
 number of electron     216.0000000 magnetization 
 augmentation part      216.0000000 magnetization 

 Free energy of the ion-electron system (eV)
  ---------------------------------------------------
  alpha Z        PSCENC =        47.94900195
  Ewald energy   TEWEN  =     41669.36851546
  -Hartree energ DENC   =    -47738.58488265
  -exchange      EXHF   =         0.00000000
  -V(xc)+E(xc)   XCENC  =       420.79770417
  PAW double counting   =      6525.96553977    -6260.36035765
  entropy T*S    EENTRO =        -0.00000000
  eigenvalues    EBANDS =      -264.42873399
  atomic energy  EATOM  =      8369.52358910
  ---------------------------------------------------
  free energy    TOTEN  =      2770.23037618 eV

  energy without entropy =     2770.23037618  energy(sigma->0) =     2770.23037618


--------------------------------------------------------------------------------------------------------




--------------------------------------- Iteration      1(   2)  ---------------------------------------


    TRIAL :  cpu time    8.0457: real time    8.1274
    CORREC:  cpu time    0.0001: real time    0.0001
    --------------------------------------------
      LOOP:  cpu time    8.1256: real time    8.2090

 eigenvalue-minimisations  :   448
 total energy-change (2. order) :-0.2441779E+04  (-0.2280444E+04)
 number of electron     216.0000000 magnetization 
 augmentation part      216.0000000 magnetization 

 Free energy of the ion-electron system (eV)
  ---------------------------------------------------
  alpha Z        PSCENC =        47.94900195
  Ewald energy   TEWEN  =     41669.36851546
  -Hartree energ DENC   =    -47738.58488265
  -exchange      EXHF   =         0.00000000
  -V(xc)+E(xc)   XCENC  =       420.79770417
  PAW double counting   =      6525.96553977    -6260.36035765
  entropy T*S    EENTRO =        -0.00000000
  eigenvalues    EBANDS =     -2706.20793189
  atomic energy  EATOM  =      8369.52358910
  ---------------------------------------------------
  free energy    TOTEN  =       328.45117828 eV

  energy without entropy =      328.45117828  energy(sigma->0) =      328.45117828


--------------------------------------------------------------------------------------------------------




--------------------------------------- Iteration      1(   3)  ---------------------------------------


    TRIAL :  cpu time    7.2147: real time    7.2851
    CORREC:  cpu time    0.0001: real time    0.0001
    --------------------------------------------
      LOOP:  cpu time    7.2508: real time    7.3237

 eigenvalue-minimisations  :   392
 total energy-change (2. order) :-0.7950380E+03  (-0.7853637E+03)
 number of electron     216.0000000 magnetization 
 augmentation part      216.0000000 magnetization 

 Free energy of the ion-electron system (eV)
  ---------------------------------------------------
  alpha Z        PSCENC =        47.94900195
  Ewald energy   TEWEN  =     41669.36851546
  -Hartree energ DENC   =    -47738.58488265
  -exchange      EXHF   =         0.00000000
  -V(xc)+E(xc)   XCENC  =       420.79770417
  PAW double counting   =      6525.96553977    -6260.36035765
  entropy T*S    EENTRO =        -0.00000000
  eigenvalues    EBANDS =     -3501.24595118
  atomic energy  EATOM  =      8369.52358910
  ---------------------------------------------------
  free energy    TOTEN  =      -466.58684102 eV

  energy without entropy =     -466.58684102  energy(sigma->0) =     -466.58684102


--------------------------------------------------------------------------------------------------------




--------------------------------------- Iteration      1(   4)  ---------------------------------------


    TRIAL :  cpu time    5.9570: real time    6.0195
    CORREC:  cpu time    0.0001: real time    0.0001
    --------------------------------------------
      LOOP:  cpu time    6.0097: real time    6.0824

 eigenvalue-minimisations  :   308
 total energy-change (2. order) :-0.4989024E+02  (-0.4957872E+02)
 number of electron     216.0000000 magnetization 
 augmentation part      216.0000000 magnetization 

 Free energy of the ion-electron system (eV)
  ---------------------------------------------------
  alpha Z        PSCENC =        47.94900195
  Ewald energy   TEWEN  =     41669.36851546
  -Hartree energ DENC   =    -47738.58488265
  -exchange      EXHF   =         0.00000000
  -V(xc)+E(xc)   XCENC  =       420.79770417
  PAW double counting   =      6525.96553977    -6260.36035765
  entropy T*S    EENTRO =        -0.00000000
  eigenvalues    EBANDS =     -3551.13619311
  atomic energy  EATOM  =      8369.52358910
  ---------------------------------------------------
  free energy    TOTEN  =      -516.47708295 eV

  energy without entropy =     -516.47708295  energy(sigma->0) =     -516.47708295


--------------------------------------------------------------------------------------------------------




--------------------------------------- Iteration      1(   5)  ---------------------------------------


    TRIAL :  cpu time    8.0827: real time    8.1582
    CORREC:  cpu time    0.0004: real time    0.0004
    CHARGE:  cpu time    0.3107: real time    0.3137
    --------------------------------------------
      LOOP:  cpu time    8.4613: real time    8.5417

 eigenvalue-minimisations  :   448
 total energy-change (2. order) :-0.1564641E+01  (-0.1562115E+01)
 number of electron     216.0000000 magnetization 
 augmentation part       -0.2654281 magnetization 

 Free energy of the ion-electron system (eV)
  ---------------------------------------------------
  alpha Z        PSCENC =        47.94900195
  Ewald energy   TEWEN  =     41669.36851546
  -Hartree energ DENC   =    -47738.58488265
  -exchange      EXHF   =         0.00000000
  -V(xc)+E(xc)   XCENC  =       420.79770417
  PAW double counting   =      6525.96553977    -6260.36035765
  entropy T*S    EENTRO =        -0.00000000
  eigenvalues    EBANDS =     -3552.70083420
  atomic energy  EATOM  =      8369.52358910
  ---------------------------------------------------
  free energy    TOTEN  =      -518.04172403 eV

  energy without entropy =     -518.04172403  energy(sigma->0) =     -518.04172403


--------------------------------------------------------------------------------------------------------




--------------------------------------- Iteration      1(   6)  ---------------------------------------


    POTLOK:  cpu time    0.3713: real time    0.3742
    SETDIJ:  cpu time    0.0069: real time    0.0070
    TRIAL :  cpu time    2.6659: real time    2.6903
    CORREC:  cpu time    1.0621: real time    1.0717
    CHARGE:  cpu time    0.3131: real time    0.3154
    --------------------------------------------
      LOOP:  cpu time    4.4521: real time    4.4934

 eigenvalue-minimisations  :     0
 total energy-change (2. order) : 0.5146336E+02  (-0.1559989E+02)
 number of electron     216.0000000 magnetization 
 augmentation part       -0.3647241 magnetization 

 Free energy of the ion-electron system (eV)
  ---------------------------------------------------
  alpha Z        PSCENC =        47.94900195
  Ewald energy   TEWEN  =     41669.36851546
  -Hartree energ DENC   =    -49179.32127350
  -exchange      EXHF   =         0.00000000
  -V(xc)+E(xc)   XCENC  =       469.06479102
  PAW double counting   =     89546.81302404   -89289.50622902
  entropy T*S    EENTRO =        -0.00000000
  eigenvalues    EBANDS =     -2100.46978786
  atomic energy  EATOM  =      8369.52358910
  ---------------------------------------------------
  free energy    TOTEN  =      -466.57836880 eV

  energy without entropy =     -466.57836880  energy(sigma->0) =     -466.57836880


--------------------------------------------------------------------------------------------------------




--------------------------------------- Iteration      1(   7)  ---------------------------------------


    POTLOK:  cpu time    0.3735: real time    0.3760
    SETDIJ:  cpu time    0.0032: real time    0.0032
    TRIAL :  cpu time    2.6525: real time    2.6816
    CORREC:  cpu time    1.0647: real time    1.0732
    CHARGE:  cpu time    0.3150: real time    0.3173
    --------------------------------------------
      LOOP:  cpu time    4.4484: real time    4.4937

 eigenvalue-minimisations  :     0
 total energy-change (2. order) :-0.1564378E+02  (-0.1825493E+01)
 number of electron     216.0000000 magnetization 
 augmentation part       -0.4123464 magnetization 

 Free energy of the ion-electron system (eV)
  ---------------------------------------------------
  alpha Z        PSCENC =        47.94900195
  Ewald energy   TEWEN  =     41669.36851546
  -Hartree energ DENC   =    -48667.98722450
  -exchange      EXHF   =         0.00000000
  -V(xc)+E(xc)   XCENC  =       451.92265260
  PAW double counting   =    105736.86879835  -105476.72453960
  entropy T*S    EENTRO =        -0.00000000
  eigenvalues    EBANDS =     -2613.14293941
  atomic energy  EATOM  =      8369.52358910
  ---------------------------------------------------
  free energy    TOTEN  =      -482.22214604 eV

  energy without entropy =     -482.22214604  energy(sigma->0) =     -482.22214604


--------------------------------------------------------------------------------------------------------




--------------------------------------- Iteration      1(   8)  ---------------------------------------


    POTLOK:  cpu time    0.3720: real time    0.3747
    SETDIJ:  cpu time    0.0028: real time    0.0028
    TRIAL :  cpu time    2.6562: real time    2.6807
    CORREC:  cpu time    1.0633: real time    1.0722
    CHARGE:  cpu time    0.3138: real time    0.3165
    --------------------------------------------
      LOOP:  cpu time    4.4494: real time    4.4974

 eigenvalue-minimisations  :     0
 total energy-change (2. order) :-0.1823860E+01  (-0.4733123E+00)
 number of electron     216.0000000 magnetization 
 augmentation part       -0.4297508 magnetization 

 Free energy of the ion-electron system (eV)
  ---------------------------------------------------
  alpha Z        PSCENC =        47.94900195
  Ewald energy   TEWEN  =     41669.36851546
  -Hartree energ DENC   =    -48638.78661941
  -exchange      EXHF   =         0.00000000
  -V(xc)+E(xc)   XCENC  =       451.33954026
  PAW double counting   =    110119.70615963  -109859.14799079
  entropy T*S    EENTRO =        -0.00000000
  eigenvalues    EBANDS =     -2643.99820181
  atomic energy  EATOM  =      8369.52358910
  ---------------------------------------------------
  free energy    TOTEN  =      -484.04600560 eV

  energy without entropy =     -484.04600560  energy(sigma->0) =     -484.04600560


--------------------------------------------------------------------------------------------------------




--------------------------------------- Iteration      1(   9)  ---------------------------------------


    POTLOK:  cpu time    0.3724: real time    0.3748
    SETDIJ:  cpu time    0.0029: real time    0.0029
    TRIAL :  cpu time    2.6518: real time    2.6775
    CORREC:  cpu time    1.0635: real time    1.0722
    CHARGE:  cpu time    0.3126: real time    0.3149
    --------------------------------------------
      LOOP:  cpu time    4.4501: real time    4.4948

 eigenvalue-minimisations  :     0
 total energy-change (2. order) :-0.4731887E+00  (-0.1520603E+00)
 number of electron     216.0000000 magnetization 
 augmentation part       -0.4374511 magnetization 

 Free energy of the ion-electron system (eV)
  ---------------------------------------------------
  alpha Z        PSCENC =        47.94900195
  Ewald energy   TEWEN  =     41669.36851546
  -Hartree energ DENC   =    -48656.16671707
  -exchange      EXHF   =         0.00000000
  -V(xc)+E(xc)   XCENC  =       451.55557986
  PAW double counting   =    112914.23200579  -112653.52111220
  entropy T*S    EENTRO =        -0.00000000
  eigenvalues    EBANDS =     -2627.46005715
  atomic energy  EATOM  =      8369.52358910
  ---------------------------------------------------
  free energy    TOTEN  =      -484.51919427 eV

  energy without entropy =     -484.51919427  energy(sigma->0) =     -484.51919427


--------------------------------------------------------------------------------------------------------




--------------------------------------- Iteration      1(  10)  ---------------------------------------


    POTLOK:  cpu time    0.3729: real time    0.3757
    SETDIJ:  cpu time    0.0029: real time    0.0029
    TRIAL :  cpu time    2.6537: real time    2.6781
    CORREC:  cpu time    1.0664: real time    1.0752
    CHARGE:  cpu time    0.3130: real time    0.3154
    --------------------------------------------
      LOOP:  cpu time    4.4611: real time    4.5034

 eigenvalue-minimisations  :     0
 total energy-change (2. order) :-0.1518248E+00  (-0.6122911E-01)
 number of electron     216.0000000 magnetization 
 augmentation part       -0.4381071 magnetization 

 Free energy of the ion-electron system (eV)
  ---------------------------------------------------
  alpha Z        PSCENC =        47.94900195
  Ewald energy   TEWEN  =     41669.36851546
  -Hartree energ DENC   =    -48657.64766476
  -exchange      EXHF   =         0.00000000
  -V(xc)+E(xc)   XCENC  =       451.48472291
  PAW double counting   =    113418.75584195  -113157.95923704
  entropy T*S    EENTRO =        -0.00000000
  eigenvalues    EBANDS =     -2626.14578863
  atomic energy  EATOM  =      8369.52358910
  ---------------------------------------------------
  free energy    TOTEN  =      -484.67101906 eV

  energy without entropy =     -484.67101906  energy(sigma->0) =     -484.67101906


--------------------------------------------------------------------------------------------------------




--------------------------------------- Iteration      1(  11)  ---------------------------------------


    POTLOK:  cpu time    0.3704: real time    0.3730
    SETDIJ:  cpu time    0.0030: real time    0.0030
    TRIAL :  cpu time    2.6505: real time    2.6759
    CORREC:  cpu time    1.0681: real time    1.0774
    CHARGE:  cpu time    0.3132: real time    0.3154
    --------------------------------------------
      LOOP:  cpu time    4.4430: real time    4.4847

 eigenvalue-minimisations  :     0
 total energy-change (2. order) :-0.6107317E-01  (-0.2514232E-01)
 number of electron     216.0000000 magnetization 
 augmentation part       -0.4375755 magnetization 

 Free energy of the ion-electron system (eV)
  ---------------------------------------------------
  alpha Z        PSCENC =        47.94900195
  Ewald energy   TEWEN  =     41669.36851546
  -Hartree energ DENC   =    -48653.50953785
  -exchange      EXHF   =         0.00000000
  -V(xc)+E(xc)   XCENC  =       451.42673934
  PAW double counting   =    112958.18879972  -112697.39061903
  entropy T*S    EENTRO =        -0.00000000
  eigenvalues    EBANDS =     -2630.28858092
  atomic energy  EATOM  =      8369.52358910
  ---------------------------------------------------
  free energy    TOTEN  =      -484.73209223 eV

  energy without entropy =     -484.73209223  energy(sigma->0) =     -484.73209223


--------------------------------------------------------------------------------------------------------




--------------------------------------- Iteration      1(  12)  ---------------------------------------


    POTLOK:  cpu time    0.3760: real time    0.3788
    SETDIJ:  cpu time    0.0027: real time    0.0028
    TRIAL :  cpu time    2.6500: real time    2.6750
    CORREC:  cpu time    1.0617: real time    1.0707
    CHARGE:  cpu time    0.3136: real time    0.3162
    --------------------------------------------
      LOOP:  cpu time    4.4922: real time    4.5336

 eigenvalue-minimisations  :     0
 total energy-change (2. order) :-0.2503852E-01  (-0.8636555E-02)
 number of electron     216.0000000 magnetization 
 augmentation part       -0.4376334 magnetization 

 Free energy of the ion-electron system (eV)
  ---------------------------------------------------
  alpha Z        PSCENC =        47.94900195
  Ewald energy   TEWEN  =     41669.36851546
  -Hartree energ DENC   =    -48651.60811574
  -exchange      EXHF   =         0.00000000
  -V(xc)+E(xc)   XCENC  =       451.39123077
  PAW double counting   =    112572.46002030  -112311.68380190
  entropy T*S    EENTRO =        -0.00000000
  eigenvalues    EBANDS =     -2632.15757069
  atomic energy  EATOM  =      8369.52358910
  ---------------------------------------------------
  free energy    TOTEN  =      -484.75713075 eV

  energy without entropy =     -484.75713075  energy(sigma->0) =     -484.75713075


--------------------------------------------------------------------------------------------------------




--------------------------------------- Iteration      1(  13)  ---------------------------------------


    POTLOK:  cpu time    0.3706: real time    0.3730
    SETDIJ:  cpu time    0.0027: real time    0.0028
    TRIAL :  cpu time    2.6508: real time    2.6763
    CORREC:  cpu time    1.0577: real time    1.0663
    CHARGE:  cpu time    0.3135: real time    0.3157
    --------------------------------------------
      LOOP:  cpu time    4.4110: real time    4.4640

 eigenvalue-minimisations  :     0
 total energy-change (2. order) :-0.8619949E-02  (-0.2556406E-02)
 number of electron     216.0000000 magnetization 
 augmentation part       -0.4372676 magnetization 

 Free energy of the ion-electron system (eV)
  ---------------------------------------------------
  alpha Z        PSCENC =        47.94900195
  Ewald energy   TEWEN  =     41669.36851546
  -Hartree energ DENC   =    -48651.62578659
  -exchange      EXHF   =         0.00000000
  -V(xc)+E(xc)   XCENC  =       451.38208758
  PAW double counting   =    112454.78728918  -112194.02157664
  entropy T*S    EENTRO =        -0.00000000
  eigenvalues    EBANDS =     -2632.12887074
  atomic energy  EATOM  =      8369.52358910
  ---------------------------------------------------
  free energy    TOTEN  =      -484.76575070 eV

  energy without entropy =     -484.76575070  energy(sigma->0) =     -484.76575070


--------------------------------------------------------------------------------------------------------




--------------------------------------- Iteration      1(  14)  ---------------------------------------


    POTLOK:  cpu time    0.3689: real time    0.3712
    SETDIJ:  cpu time    0.0030: real time    0.0030
    TRIAL :  cpu time    2.6496: real time    2.6731
    CORREC:  cpu time    1.0569: real time    1.0652
    CHARGE:  cpu time    0.3133: real time    0.3156
    --------------------------------------------
      LOOP:  cpu time    4.4182: real time    4.4568

 eigenvalue-minimisations  :     0
 total energy-change (2. order) :-0.2558067E-02  (-0.7497261E-03)
 number of electron     216.0000000 magnetization 
 augmentation part       -0.4370260 magnetization 

 Free energy of the ion-electron system (eV)
  ---------------------------------------------------
  alpha Z        PSCENC =        47.94900195
  Ewald energy   TEWEN  =     41669.36851546
  -Hartree energ DENC   =    -48651.67140521
  -exchange      EXHF   =         0.00000000
  -V(xc)+E(xc)   XCENC  =       451.38204135
  PAW double counting   =    112490.38093156  -112229.61804197
  entropy T*S    EENTRO =        -0.00000000
  eigenvalues    EBANDS =     -2632.08294102
  atomic energy  EATOM  =      8369.52358910
  ---------------------------------------------------
  free energy    TOTEN  =      -484.76830876 eV

  energy without entropy =     -484.76830876  energy(sigma->0) =     -484.76830876


--------------------------------------------------------------------------------------------------------




--------------------------------------- Iteration      1(  15)  ---------------------------------------


    POTLOK:  cpu time    0.3684: real time    0.3706
    SETDIJ:  cpu time    0.0029: real time    0.0029
    TRIAL :  cpu time    2.6759: real time    2.7235
    CORREC:  cpu time    1.0658: real time    1.0744
    CHARGE:  cpu time    0.3146: real time    0.3170
    --------------------------------------------
      LOOP:  cpu time    4.4910: real time    4.5523

 eigenvalue-minimisations  :     0
 total energy-change (2. order) :-0.7518912E-03  (-0.2655801E-03)
 number of electron     216.0000000 magnetization 
 augmentation part       -0.4367206 magnetization 

 Free energy of the ion-electron system (eV)
  ---------------------------------------------------
  alpha Z        PSCENC =        47.94900195
  Ewald energy   TEWEN  =     41669.36851546
  -Hartree energ DENC   =    -48651.33774760
  -exchange      EXHF   =         0.00000000
  -V(xc)+E(xc)   XCENC  =       451.36763458
  PAW double counting   =    112520.90123867  -112260.13646536
  entropy T*S    EENTRO =        -0.00000000
  eigenvalues    EBANDS =     -2632.40482746
  atomic energy  EATOM  =      8369.52358910
  ---------------------------------------------------
  free energy    TOTEN  =      -484.76906065 eV

  energy without entropy =     -484.76906065  energy(sigma->0) =     -484.76906065


--------------------------------------------------------------------------------------------------------




--------------------------------------- Iteration      1(  16)  ---------------------------------------


    POTLOK:  cpu time    0.3681: real time    0.3704
    SETDIJ:  cpu time    0.0031: real time    0.0031
    TRIAL :  cpu time    2.6490: real time    2.6734
    CORREC:  cpu time    1.0559: real time    1.0652
    CHARGE:  cpu time    0.3131: real time    0.3158
    --------------------------------------------
      LOOP:  cpu time    4.4211: real time    4.4604

 eigenvalue-minimisations  :     0
 total energy-change (2. order) :-0.2671372E-03  (-0.1049293E-03)
 number of electron     216.0000000 magnetization 
 augmentation part       -0.4365521 magnetization 

 Free energy of the ion-electron system (eV)
  ---------------------------------------------------
  alpha Z        PSCENC =        47.94900195
  Ewald energy   TEWEN  =     41669.36851546
  -Hartree energ DENC   =    -48651.44505300
  -exchange      EXHF   =         0.00000000
  -V(xc)+E(xc)   XCENC  =       451.37230743
  PAW double counting   =    112497.60210351  -112236.83809730
  entropy T*S    EENTRO =        -0.00000000
  eigenvalues    EBANDS =     -2632.30169494
  atomic energy  EATOM  =      8369.52358910
  ---------------------------------------------------
  free energy    TOTEN  =      -484.76932779 eV

  energy without entropy =     -484.76932779  energy(sigma->0) =     -484.76932779


--------------------------------------------------------------------------------------------------------




--------------------------------------- Iteration      1(  17)  ---------------------------------------


    POTLOK:  cpu time    0.3638: real time    0.3662
    SETDIJ:  cpu time    0.0028: real time    0.0029
    TRIAL :  cpu time    2.6488: real time    2.6746
    CORREC:  cpu time    1.0575: real time    1.0666
    CHARGE:  cpu time    0.3133: real time    0.3157
    --------------------------------------------
      LOOP:  cpu time    4.4693: real time    4.5102

 eigenvalue-minimisations  :     0
 total energy-change (2. order) :-0.1055967E-03  (-0.4111656E-04)
 number of electron     216.0000000 magnetization 
 augmentation part       -0.4365521 magnetization 

 Free energy of the ion-electron system (eV)
  ---------------------------------------------------
  alpha Z        PSCENC =        47.94900195
  Ewald energy   TEWEN  =     41669.36851546
  -Hartree energ DENC   =    -48651.54595487
  -exchange      EXHF   =         0.00000000
  -V(xc)+E(xc)   XCENC  =       451.37550165
  PAW double counting   =    112464.73818473  -112203.97454073
  entropy T*S    EENTRO =        -0.00000000
  eigenvalues    EBANDS =     -2632.20373069
  atomic energy  EATOM  =      8369.52358910
  ---------------------------------------------------
  free energy    TOTEN  =      -484.76943339 eV

  energy without entropy =     -484.76943339  energy(sigma->0) =     -484.76943339


--------------------------------------------------------------------------------------------------------




--------------------------------------- Iteration      1(  18)  ---------------------------------------


    POTLOK:  cpu time    0.3664: real time    0.3694
    SETDIJ:  cpu time    0.0030: real time    0.0030
    TRIAL :  cpu time    2.6514: real time    2.6770
    CORREC:  cpu time    1.0561: real time    1.0646
    CHARGE:  cpu time    0.3132: real time    0.3159
    --------------------------------------------
      LOOP:  cpu time    4.4303: real time    4.4730

 eigenvalue-minimisations  :     0
 total energy-change (2. order) :-0.4117374E-04  (-0.1520302E-04)
 number of electron     216.0000000 magnetization 
 augmentation part       -0.4366174 magnetization 

 Free energy of the ion-electron system (eV)
  ---------------------------------------------------
  alpha Z        PSCENC =        47.94900195
  Ewald energy   TEWEN  =     41669.36851546
  -Hartree energ DENC   =    -48651.53961081
  -exchange      EXHF   =         0.00000000
  -V(xc)+E(xc)   XCENC  =       451.37499082
  PAW double counting   =    112453.76785244  -112193.00383369
  entropy T*S    EENTRO =        -0.00000000
  eigenvalues    EBANDS =     -2632.20997984
  atomic energy  EATOM  =      8369.52358910
  ---------------------------------------------------
  free energy    TOTEN  =      -484.76947456 eV

  energy without entropy =     -484.76947456  energy(sigma->0) =     -484.76947456


--------------------------------------------------------------------------------------------------------




--------------------------------------- Iteration      1(  19)  ---------------------------------------


    POTLOK:  cpu time    0.3677: real time    0.3702
    SETDIJ:  cpu time    0.0030: real time    0.0030
    TRIAL :  cpu time    2.6531: real time    2.6791
    CORREC:  cpu time    1.0586: real time    1.0676
    CHARGE:  cpu time    0.3140: real time    0.3167
    --------------------------------------------
      LOOP:  cpu time    4.4166: real time    4.4595

 eigenvalue-minimisations  :     0
 total energy-change (2. order) :-0.1492036E-04  (-0.5077001E-05)
 number of electron     216.0000000 magnetization 
 augmentation part       -0.4366919 magnetization 

 Free energy of the ion-electron system (eV)
  ---------------------------------------------------
  alpha Z        PSCENC =        47.94900195
  Ewald energy   TEWEN  =     41669.36851546
  -Hartree energ DENC   =    -48651.55271083
  -exchange      EXHF   =         0.00000000
  -V(xc)+E(xc)   XCENC  =       451.37567819
  PAW double counting   =    112458.11775998  -112197.35351893
  entropy T*S    EENTRO =        -0.00000000
  eigenvalues    EBANDS =     -2632.19780442
  atomic energy  EATOM  =      8369.52358910
  ---------------------------------------------------
  free energy    TOTEN  =      -484.76948948 eV

  energy without entropy =     -484.76948948  energy(sigma->0) =     -484.76948948


--------------------------------------------------------------------------------------------------------




--------------------------------------- Iteration      1(  20)  ---------------------------------------


    POTLOK:  cpu time    0.3711: real time    0.3739
    SETDIJ:  cpu time    0.0028: real time    0.0028
    TRIAL :  cpu time    2.6722: real time    2.7007
    CORREC:  cpu time    1.0556: real time    1.0643
    CHARGE:  cpu time    0.3129: real time    0.3152
    --------------------------------------------
      LOOP:  cpu time    4.4417: real time    4.4854

 eigenvalue-minimisations  :     0
 total energy-change (2. order) :-0.4799687E-05  (-0.1770016E-05)
 number of electron     216.0000000 magnetization 
 augmentation part       -0.4367075 magnetization 

 Free energy of the ion-electron system (eV)
  ---------------------------------------------------
  alpha Z        PSCENC =        47.94900195
  Ewald energy   TEWEN  =     41669.36851546
  -Hartree energ DENC   =    -48651.54913340
  -exchange      EXHF   =         0.00000000
  -V(xc)+E(xc)   XCENC  =       451.37513192
  PAW double counting   =    112463.99548480  -112203.23094514
  entropy T*S    EENTRO =        -0.00000000
  eigenvalues    EBANDS =     -2632.20113898
  atomic energy  EATOM  =      8369.52358910
  ---------------------------------------------------
  free energy    TOTEN  =      -484.76949428 eV

  energy without entropy =     -484.76949428  energy(sigma->0) =     -484.76949428


--------------------------------------------------------------------------------------------------------




--------------------------------------- Iteration      1(  21)  ---------------------------------------


    POTLOK:  cpu time    0.3660: real time    0.3687
    SETDIJ:  cpu time    0.0029: real time    0.0029
    TRIAL :  cpu time    2.6510: real time    2.6762
    CORREC:  cpu time    1.0574: real time    1.0665
    CHARGE:  cpu time    0.3126: real time    0.3149
    --------------------------------------------
      LOOP:  cpu time    4.4431: real time    4.4865

 eigenvalue-minimisations  :     0
 total energy-change (2. order) :-0.1642431E-05  (-0.7038918E-06)
 number of electron     216.0000000 magnetization 
 augmentation part       -0.4367173 magnetization 

 Free energy of the ion-electron system (eV)
  ---------------------------------------------------
  alpha Z        PSCENC =        47.94900195
  Ewald energy   TEWEN  =     41669.36851546
  -Hartree energ DENC   =    -48651.56485971
  -exchange      EXHF   =         0.00000000
  -V(xc)+E(xc)   XCENC  =       451.37591195
  PAW double counting   =    112466.19369822  -112205.42927536
  entropy T*S    EENTRO =        -0.00000000
  eigenvalues    EBANDS =     -2632.18607755
  atomic energy  EATOM  =      8369.52358910
  ---------------------------------------------------
  free energy    TOTEN  =      -484.76949592 eV

  energy without entropy =     -484.76949592  energy(sigma->0) =     -484.76949592


--------------------------------------------------------------------------------------------------------




--------------------------------------- Iteration      1(  22)  ---------------------------------------


    POTLOK:  cpu time    0.3676: real time    0.3699
    SETDIJ:  cpu time    0.0028: real time    0.0028
    TRIAL :  cpu time    2.6524: real time    2.6784
    CORREC:  cpu time    1.0592: real time    1.0673
    EDDIAG:  cpu time    0.5914: real time    0.5971
    CHARGE:  cpu time    0.3127: real time    0.3150
    --------------------------------------------
      LOOP:  cpu time    5.0170: real time    5.0713

 eigenvalue-minimisations  :     0
 total energy-change (2. order) :-0.6764749E-06  (-0.3327257E-06)
 number of electron     216.0000000 magnetization 
 augmentation part       -0.4367123 magnetization 

 Free energy of the ion-electron system (eV)
  ---------------------------------------------------
  alpha Z        PSCENC =        47.94900195
  Ewald energy   TEWEN  =     41669.36851546
  -Hartree energ DENC   =    -48651.55382124
  -exchange      EXHF   =         0.00000000
  -V(xc)+E(xc)   XCENC  =       451.37536276
  PAW double counting   =    112466.08300721  -112205.31853509
  entropy T*S    EENTRO =        -0.00000000
  eigenvalues    EBANDS =     -2632.19661675
  atomic energy  EATOM  =      8369.52358910
  ---------------------------------------------------
  free energy    TOTEN  =      -484.76949660 eV

  energy without entropy =     -484.76949660  energy(sigma->0) =     -484.76949660


--------------------------------------------------------------------------------------------------------


  average scaling for gradient   0.9224


 average (electrostatic) potential at core
  the test charge radii are     0.5770  0.5955
  (the norm of the test charge is              1.0000)
       1 -85.6355       2 -85.6350       3 -85.6355       4 -85.6361       5 -85.6344
       6 -85.6344       7 -85.6354       8 -85.6343       9 -85.6347      10 -85.6349
      11 -85.6344      12 -85.6344      13 -85.6349      14 -85.6347      15 -85.6343
      16 -85.6345      17 -85.6348      18 -85.6351      19 -85.6354      20 -85.6349
      21 -85.6342      22 -85.6341      23 -85.6365      24 -85.6364      25 -85.6342
      26 -85.6344      27 -85.6347      28 -85.6356      29 -85.6342      30 -85.6343
      31 -85.6358      32 -85.6352      33 -85.6345      34 -85.6344      35 -85.6345
      36 -85.6345      37 -85.6351      38 -85.6352      39 -85.6351      40 -85.6351
      41 -85.6351      42 -85.6352      43 -85.6349      44 -85.6354      45 -85.6343
      46 -85.6344      47 -85.6343      48 -85.6344      49 -85.6352      50 -85.6349
      51 -89.5731      52-120.3525      53-120.3518
 
 
 
 E-fermi :  -4.2228     XC(G=0):  -1.9471     alpha+bet : -1.6890

 Fermi energy:        -4.2227630238

 k-point     1 :       0.0000    0.0000    0.0000
  band No.  band energies     occupation 
      1     -27.6743      2.00000
      2     -26.6690      2.00000
      3     -22.3847      2.00000
      4     -21.4455      2.00000
      5     -21.4441      2.00000
      6     -21.4439      2.00000
      7     -21.4437      2.00000
      8     -21.4436      2.00000
      9     -21.4430      2.00000
     10     -19.6004      2.00000
     11     -19.6003      2.00000
     12     -19.6001      2.00000
     13     -19.5994      2.00000
     14     -19.5989      2.00000
     15     -19.5987      2.00000
     16     -18.7025      2.00000
     17     -18.7023      2.00000
     18     -18.7019      2.00000
     19     -18.7016      2.00000
     20     -18.7009      2.00000
     21     -18.7006      2.00000
     22     -16.5345      2.00000
     23     -16.5341      2.00000
     24     -16.5334      2.00000
     25     -16.5332      2.00000
     26     -16.5327      2.00000
     27     -16.5326      2.00000
     28     -15.5486      2.00000
     29     -15.5486      2.00000
     30     -15.5476      2.00000
     31     -15.5474      2.00000
     32     -15.5471      2.00000
     33     -15.5470      2.00000
     34     -14.1950      2.00000
     35     -14.1949      2.00000
     36     -14.1943      2.00000
     37     -14.1941      2.00000
     38     -14.1941      2.00000
     39     -14.1938      2.00000
     40     -12.4775      2.00000
     41     -11.8060      2.00000
     42     -11.8058      2.00000
     43     -11.8053      2.00000
     44     -11.8053      2.00000
     45     -11.8042      2.00000
     46     -11.8039      2.00000
     47     -11.7091      2.00000
     48     -11.7090      2.00000
     49     -11.7083      2.00000
     50     -11.7082      2.00000
     51     -11.7081      2.00000
     52     -11.7080      2.00000
     53     -11.2880      2.00000
     54     -11.2234      2.00000
     55     -11.2233      2.00000
     56     -10.4766      2.00000
     57     -10.3320      2.00000
     58     -10.3319      2.00000
     59     -10.3303      2.00000
     60     -10.3300      2.00000
     61     -10.3298      2.00000
     62     -10.3297      2.00000
     63      -9.3608      2.00000
     64      -9.3598      2.00000
     65      -9.3596      2.00000
     66      -9.3592      2.00000
     67      -9.3591      2.00000
     68      -9.3590      2.00000
     69      -9.0522      2.00000
     70      -9.0512      2.00000
     71      -9.0508      2.00000
     72      -9.0507      2.00000
     73      -9.0504      2.00000
     74      -9.0501      2.00000
     75      -9.0035      2.00000
     76      -9.0032      2.00000
     77      -9.0024      2.00000
     78      -9.0023      2.00000
     79      -9.0022      2.00000
     80      -9.0014      2.00000
     81      -7.6768      2.00000
     82      -7.6767      2.00000
     83      -7.3959      2.00000
     84      -7.3942      2.00000
     85      -7.3941      2.00000
     86      -7.3937      2.00000
     87      -7.3928      2.00000
     88      -7.3928      2.00000
     89      -7.2309      2.00000
     90      -7.2307      2.00000
     91      -7.2305      2.00000
     92      -7.2301      2.00000
     93      -7.2297      2.00000
     94      -7.2295      2.00000
     95      -6.3343      2.00000
     96      -6.3342      2.00000
     97      -6.3339      2.00000
     98      -6.3338      2.00000
     99      -6.3332      2.00000
    100      -6.3330      2.00000
    101      -5.9064      2.00000
    102      -5.9042      2.00000
    103      -4.3514      2.00000
    104      -4.3510      2.00000
    105      -4.3505      2.00000
    106      -4.3504      2.00000
    107      -4.3499      2.00000
    108      -4.3498      2.00000
    109      -1.5484      0.00000
    110      -1.5481      0.00000
    111      -1.5479      0.00000
    112      -1.5477      0.00000
    113      -1.5470      0.00000
    114      -1.5467      0.00000
    115       0.2803      0.00000
    116       0.3159      0.00000
    117       0.3161      0.00000
    118       0.3165      0.00000
    119       0.3166      0.00000
    120       0.3168      0.00000
    121       0.3181      0.00000
    122       0.4769      0.00000
    123       0.8480      0.00000
    124       0.9151      0.00000
    125       1.2047      0.00000
    126       1.6203      0.00000
    127       1.6575      0.00000
    128       1.6614      0.00000
    129       1.6782      0.00000
    130       1.6811      0.00000
    131       1.6850      0.00000
    132       1.9199      0.00000
    133       2.0612      0.00000
    134       2.0707      0.00000
    135       2.0759      0.00000
    136       2.1320      0.00000
    137       2.3692      0.00000
    138       2.5947      0.00000
    139       2.9336      0.00000
    140       3.0467      0.00000


--------------------------------------------------------------------------------------------------------


 soft charge-density along one line, spin component           1
         0         1         2         3         4         5         6         7         8         9
 total charge-density along one line
 
 pseudopotential strength for first ion, spin component:           1
 12.703  21.376   0.000   0.000   0.000   0.000   0.000   0.000
 21.376  35.970   0.000   0.000   0.000   0.000   0.000   0.000
  0.000   0.000  -3.169  -0.000   0.000  -5.681  -0.000   0.000
  0.000   0.000  -0.000  -3.171  -0.000  -0.000  -5.683  -0.000
  0.000   0.000   0.000  -0.000  -3.169   0.000  -0.000  -5.681
  0.000   0.000  -5.681  -0.000   0.000 -10.161  -0.000   0.000
  0.000   0.000  -0.000  -5.683  -0.000  -0.000 -10.163  -0.000
  0.000   0.000   0.000  -0.000  -5.681   0.000  -0.000 -10.161
 total augmentation occupancy for first ion, spin component:           1
  7.880  -2.765  -0.000  -0.002  -0.000   0.000   0.001   0.000
 -2.765   1.007   0.000   0.001   0.000  -0.000  -0.000  -0.000
 -0.000   0.000   7.264  -0.008   0.000  -2.462   0.003  -0.000
 -0.002   0.001  -0.008   3.235  -0.000   0.003  -0.862   0.000
 -0.000   0.000   0.000  -0.000   7.263  -0.000   0.000  -2.462
  0.000  -0.000  -2.462   0.003  -0.000   0.849  -0.001   0.000
  0.001  -0.000   0.003  -0.862   0.000  -0.001   0.236  -0.000
  0.000  -0.000  -0.000   0.000  -2.462   0.000  -0.000   0.849


------------------------ aborting loop because EDIFF is reached ----------------------------------------


    FORLOC:  cpu time    0.0669: real time    0.0675
    FORNL :  cpu time    1.0744: real time    1.0874
    FORCOR:  cpu time    0.3899: real time    0.3926
    OFIELD:  cpu time    0.0017: real time    0.0017

 ---------------------------------------------------------------------------------------------

         DFTD3 V3.0 Rev 1        
 IVDW         = 11
 DF pbe       
 parameters
 VDW_S6       =    1.0000
 VDW_S8       =    0.7220
 VDW_SR       =    1.2170
 rs18     =    1.0000
 alpha6   =   14.0000
 alpha8   =   16.0000
 k1-k3    =   16.0000    1.3333   -4.0000
 VDW_RADIUS   =   50.2022 A
 VDW_CNRADIUS =   21.1671 A
 Edisp (eV)   -1.72518

 E6    (eV) :    -0.9714
 E8    (eV) :    -0.7537
 % E8        : 43.69
    FORVDW:  cpu time    0.1592: real time    0.1605

 VOLUME and BASIS-vectors are now :
 -----------------------------------------------------------------------------
  energy-cutoff  :     1000.00
  volume of cell :     3288.85
      direct lattice vectors                 reciprocal lattice vectors
    12.325000000  0.000000000  0.000000000     0.081135903  0.046843835  0.000000000
    -6.162500000 10.673763102  0.000000000     0.000000000  0.093687670  0.000000000
     0.000000000  0.000000000 25.000000000     0.000000000  0.000000000  0.040000000

  length of vectors
    12.325000000 12.325000000 25.000000000     0.093687670  0.093687670  0.040000000


 FORCES acting on ions:
    Electron-Ion                     Ewald-Force                    Non-Local-Force
 -----------------------------------------------------------------------------------------------
   0.832E+00 0.735E+00 0.152E+02   -.833E+00 -.736E+00 -.152E+02   0.448E-02 -.642E-03 0.590E-02
   0.114E+01 0.617E+00 0.164E+02   -.115E+01 -.615E+00 -.164E+02   0.300E-02 -.310E-02 -.568E-02
   0.458E+00 0.126E+01 0.165E+02   -.460E+00 -.126E+01 -.165E+02   -.614E-04 0.115E-01 -.143E-02
   0.575E+00 0.841E+00 0.189E+02   -.573E+00 -.840E+00 -.189E+02   0.115E-01 0.755E-03 -.153E-01
   0.922E+00 0.239E+00 0.157E+02   -.921E+00 -.240E+00 -.157E+02   -.595E-03 -.529E-02 0.361E-02
   0.941E+00 -.209E+00 0.158E+02   -.944E+00 0.210E+00 -.158E+02   -.640E-02 0.347E-02 -.235E-02
   0.110E+01 0.471E+00 0.189E+02   -.111E+01 -.472E+00 -.189E+02   0.117E-01 -.190E-01 -.654E-02
   0.112E+01 -.361E+00 0.201E+02   -.113E+01 0.364E+00 -.201E+02   -.723E-02 -.522E-02 -.551E-02
   -.550E+00 0.121E+01 0.169E+02   0.554E+00 -.122E+01 -.169E+02   0.122E-03 -.131E-01 -.485E-02
   -.716E+00 0.625E+00 0.192E+02   0.717E+00 -.625E+00 -.192E+02   -.256E-01 0.147E-01 0.210E-02
   0.245E+00 -.252E+00 0.149E+02   -.242E+00 0.252E+00 -.149E+02   0.384E-02 -.274E-02 0.462E-03
   0.240E+00 -.198E+00 0.146E+02   -.240E+00 0.199E+00 -.146E+02   -.660E-02 0.331E-02 0.637E-02
   0.336E+00 -.883E+00 0.210E+02   -.336E+00 0.885E+00 -.209E+02   0.264E-01 -.746E-02 -.239E-02
   0.214E+00 -.134E+01 0.181E+02   -.218E+00 0.134E+01 -.181E+02   0.357E-02 0.687E-02 -.158E-01
   -.863E+00 0.518E+00 0.152E+02   0.865E+00 -.519E+00 -.152E+02   0.743E-02 -.398E-02 0.778E-02
   -.110E+01 0.304E+00 0.155E+02   0.110E+01 -.304E+00 -.155E+02   -.160E-02 0.513E-02 -.453E-02
   -.155E+00 -.644E-01 0.142E+02   0.158E+00 0.627E-01 -.142E+02   -.128E-07 0.243E-03 0.211E-02
   0.721E-01 0.537E+00 0.143E+02   -.717E-01 -.537E+00 -.143E+02   -.270E-02 0.144E-02 0.917E-02
   -.227E+00 -.128E+01 0.165E+02   0.227E+00 0.128E+01 -.165E+02   0.582E-02 -.152E-02 0.230E-03
   -.135E+00 -.787E+00 0.150E+02   0.132E+00 0.788E+00 -.150E+02   -.231E-03 -.878E-03 -.638E-03
   0.120E+01 -.509E+00 0.173E+02   -.120E+01 0.510E+00 -.173E+02   -.182E-02 -.218E-02 -.159E-01
   0.858E+00 -.687E+00 0.163E+02   -.861E+00 0.689E+00 -.163E+02   -.690E-02 0.533E-02 -.153E-02
   -.201E+00 0.351E+00 0.209E+02   0.198E+00 -.349E+00 -.209E+02   -.101E-01 0.104E-01 0.181E-03
   -.292E+00 -.555E+00 0.209E+02   0.294E+00 0.553E+00 -.209E+02   0.120E-01 -.146E-01 -.112E-01
   0.465E+00 -.170E+00 0.149E+02   -.464E+00 0.169E+00 -.149E+02   0.372E-02 -.266E-02 -.270E-02
   0.137E+00 0.395E+00 0.148E+02   -.137E+00 -.395E+00 -.148E+02   -.499E-02 0.331E-02 0.597E-02
   -.131E+01 0.129E+00 0.173E+02   0.131E+01 -.132E+00 -.173E+02   0.121E-01 0.770E-02 -.229E-02
   -.122E+01 -.503E+00 0.167E+02   0.122E+01 0.503E+00 -.167E+02   -.833E-02 0.892E-02 0.423E-03
   0.467E+00 -.975E+00 0.165E+02   -.467E+00 0.976E+00 -.165E+02   0.422E-02 0.230E-02 -.623E-02
   0.444E-01 -.431E+00 0.152E+02   -.466E-01 0.432E+00 -.152E+02   -.488E-02 0.237E-02 -.175E-02
   -.867E+00 -.866E+00 0.178E+02   0.866E+00 0.867E+00 -.178E+02   -.116E-01 -.803E-02 -.134E-01
   -.640E+00 -.122E+01 0.163E+02   0.642E+00 0.122E+01 -.163E+02   0.569E-03 -.865E-03 0.156E-02
   0.497E-01 0.268E+00 0.145E+02   -.496E-01 -.268E+00 -.145E+02   0.484E-02 -.457E-02 0.738E-02
   0.154E+00 0.236E+00 0.147E+02   -.156E+00 -.235E+00 -.147E+02   -.237E-02 0.465E-02 -.741E-03
   -.579E+00 0.109E+00 0.149E+02   0.582E+00 -.110E+00 -.149E+02   0.418E-02 -.247E-02 0.636E-02
   -.510E+00 -.239E+00 0.148E+02   0.510E+00 0.239E+00 -.148E+02   -.378E-02 0.226E-02 0.410E-02
   -.961E+00 -.526E+00 0.151E+02   0.964E+00 0.524E+00 -.151E+02   -.664E-03 0.920E-03 0.330E-02
   -.642E+00 -.517E+00 0.146E+02   0.643E+00 0.517E+00 -.146E+02   -.363E-02 0.121E-02 0.884E-02
   -.588E+00 -.740E+00 0.149E+02   0.588E+00 0.741E+00 -.149E+02   -.273E-02 0.257E-03 0.443E-02
   -.870E-01 -.209E+00 0.144E+02   0.879E-01 0.209E+00 -.144E+02   0.177E-02 0.676E-03 0.710E-02
   0.224E+00 0.557E+00 0.144E+02   -.225E+00 -.557E+00 -.144E+02   -.386E-02 0.156E-02 0.663E-02
   0.672E+00 0.101E+01 0.152E+02   -.671E+00 -.101E+01 -.152E+02   -.859E-03 -.895E-03 0.719E-02
   0.786E-01 0.913E+00 0.147E+02   -.755E-01 -.915E+00 -.147E+02   0.224E-04 0.548E-03 0.225E-02
   0.733E-03 0.132E+01 0.160E+02   -.545E-05 -.132E+01 -.160E+02   -.775E-02 0.156E-02 0.492E-02
   -.178E+00 0.327E+00 0.150E+02   0.180E+00 -.329E+00 -.150E+02   0.415E-02 -.303E-02 0.192E-02
   -.630E+00 0.803E+00 0.155E+02   0.630E+00 -.803E+00 -.155E+02   -.590E-02 0.131E-03 -.949E-03
   -.188E+00 -.408E+00 0.149E+02   0.188E+00 0.407E+00 -.149E+02   0.600E-02 -.125E-02 0.628E-02
   -.368E+00 0.127E+00 0.145E+02   0.367E+00 -.126E+00 -.145E+02   -.375E-02 0.326E-02 -.254E-02
   0.324E-01 -.247E+00 0.145E+02   -.326E-01 0.247E+00 -.145E+02   0.404E-02 -.305E-02 0.565E-02
   0.396E+00 0.284E+00 0.145E+02   -.398E+00 -.282E+00 -.145E+02   -.495E-03 0.180E-02 0.327E-02
   -.105E-02 0.260E-01 -.200E+03   -.281E-02 -.225E-01 0.200E+03   -.285E-02 0.196E-02 -.286E-02
   -.229E+03 0.156E+03 -.313E+03   0.279E+03 -.190E+03 0.317E+03   -.511E+02 0.348E+02 -.343E+01
   0.229E+03 -.156E+03 -.291E+03   -.279E+03 0.190E+03 0.288E+03   0.511E+02 -.348E+02 0.309E+01
 -----------------------------------------------------------------------------------------------
   -.652E-02 0.131E-01 0.344E+00   0.114E-12 -.114E-12 0.171E-12   0.708E-02 -.137E-01 -.343E+00
 
 
 POSITION                                       TOTAL-FORCE (eV/Angst)
 -----------------------------------------------------------------------------------
     11.98348      0.00342      0.01417         0.003224     -0.001649     -0.000957
     -0.34154      1.42665      0.01100        -0.000628     -0.000097     -0.003368
      2.12355      0.00315      0.01249        -0.001765      0.010925     -0.006337
      2.12326      1.42653      0.00641         0.013505      0.001315     -0.008397
     10.75099      2.13819      0.01213         0.000395     -0.005722     -0.000023
     -1.57382      3.56123      0.01110        -0.008981      0.004743     -0.001377
      0.89078      2.13854      0.00548         0.009740     -0.019243      0.002311
      0.89099      3.56147      0.00181        -0.011828     -0.002521      0.011576
      4.58864      0.00346      0.01135         0.003577     -0.015862     -0.003493
      4.58894      1.42623      0.00646        -0.023839      0.013449      0.013673
      9.51854      4.27281      0.01369         0.006564     -0.003082      0.000224
     -2.80632      5.69591      0.01434        -0.006578      0.003426      0.000803
      2.12300      4.27302      0.00000         0.025314     -0.005137      0.020077
      2.12335      5.69594      0.00581        -0.000492      0.009171     -0.002703
      7.05344      0.00333      0.01399         0.009385     -0.005283     -0.000297
      7.05353      1.42635      0.01368        -0.001708      0.005005     -0.003766
      8.28610      6.40752      0.01601         0.002907     -0.001455     -0.000772
     -4.03885      7.83070      0.01636        -0.002234      0.000874     -0.000046
      3.35586      6.40753      0.01007         0.005555      0.000512     -0.001215
      3.35599      7.83072      0.01320        -0.003181      0.000018     -0.000637
     -0.34146      4.27290      0.00723        -0.001881     -0.001505     -0.004501
     -0.34138      5.69591      0.00946        -0.009226      0.006553     -0.001021
      3.35624      2.13791      0.00222        -0.013765      0.012107      0.015648
      3.35573      3.56155      0.00139         0.013724     -0.016107      0.008155
     -1.57395      6.40758      0.01311         0.005366     -0.003946     -0.000566
     -1.57385      7.83068      0.01438        -0.004889      0.003799      0.000089
      5.82093      2.13784      0.01033         0.016018      0.005274     -0.002903
      5.82114      3.56097      0.01156        -0.006476      0.008640     -0.003597
      0.89092      6.40755      0.00907         0.004608      0.002341     -0.002208
      0.89106      7.83068      0.01235        -0.006853      0.003887      0.000399
      4.58871      4.27293      0.00850        -0.013097     -0.006609     -0.010806
      4.58852      5.69606      0.01149         0.001954     -0.001201     -0.003917
      9.51845      0.00337      0.01490         0.004778     -0.004681      0.000211
      9.51855      1.42644      0.01438        -0.005130      0.005448     -0.000294
      8.28593      2.13803      0.01453         0.006756     -0.003375      0.000664
      8.28613      3.56115      0.01464        -0.004392      0.002240      0.000017
      7.05356      4.27269      0.01457         0.002585     -0.001080     -0.000609
      7.05362      5.69588      0.01553        -0.002508      0.001570     -0.000026
      5.82112      6.40755      0.01489        -0.002987      0.001594     -0.000031
      5.82102      7.83073      0.01579         0.002715      0.000280     -0.000251
      7.05363      8.54227      0.01631        -0.004696      0.001292      0.001091
     -5.27149      9.96549      0.01495         0.000161     -0.001971     -0.002087
     -2.80638      8.54234      0.01558         0.003128     -0.001346     -0.001174
     -2.80627      9.96553      0.01362        -0.006878     -0.000055     -0.003713
     -0.34149      8.54239      0.01378         0.005791     -0.004910      0.000281
     -0.34138      9.96550      0.01354        -0.005936     -0.000067     -0.001218
      2.12343      8.54232      0.01336         0.005895     -0.001536      0.000808
      2.12354      9.96544      0.01469        -0.005173      0.003820     -0.001845
      4.58846      8.54235      0.01505         0.003701     -0.002804      0.001029
      4.58853      9.96550      0.01517        -0.002763      0.003366      0.000156
      3.04930      2.68154      7.93701        -0.006553      0.005366      0.033040
      4.02070      2.02068      8.00143        -0.520938      0.354014     -0.051452
      2.07767      3.34267      7.87755         0.528030     -0.359783      0.015355
 -----------------------------------------------------------------------------------
    total drift:                                0.000559     -0.000514      0.000413


--------------------------------------------------------------------------------------------------------



  FREE ENERGIE OF THE ION-ELECTRON SYSTEM (eV)
  ---------------------------------------------------
  free  energy   TOTEN  =      -486.49467686 eV

  energy  without entropy=     -486.49467686  energy(sigma->0) =     -486.49467686
 


--------------------------------------------------------------------------------------------------------


    POTLOK:  cpu time    0.3723: real time    0.3749


--------------------------------------------------------------------------------------------------------


     LOOP+:  cpu time  141.3439: real time  142.8398
    4ORBIT:  cpu time    0.0000: real time    0.0000

 total amount of memory used by VASP MPI-rank0   215378. kBytes
=======================================================================

   base      :      30000. kBytes
   nonl-proj :      57634. kBytes
   fftplans  :      45914. kBytes
   grid      :      67588. kBytes
   one-center:         43. kBytes
   wavefun   :      14199. kBytes
 
  
  
 General timing and accounting informations for this job:
 ========================================================
  
                  Total CPU time used (sec):      183.069
                            User time (sec):      169.334
                          System time (sec):       13.735
                         Elapsed time (sec):      185.964
  
                   Maximum memory used (kb):      590664.
                   Average memory used (kb):          N/A
  
                          Minor page faults:        56472
                          Major page faults:          152
                 Voluntary context switches:         3718
