 vasp.6.2.1 16May21 (build Nov 06 2021 14:46:37) complex                        
  
 executed on             LinuxIFC date 2025.04.16  22:55:40
 running on  112 total cores
 distrk:  each k-point on  112 cores,    1 groups
 distr:  one band on NCORE=   4 cores,   28 groups


--------------------------------------------------------------------------------------------------------


 INCAR:
   ALGO = Conjugate
   NCORE = 4
   ISMEAR = 0
   SIGMA = 0.01
   PREC = Accurate
   EDIFF = 1E-6
   ENCUT = 1000
   ISIF = 0
   IVDW = 11
   LWAVE = .FALSE.
   LCHARGE = .FALSE.
   SYMPREC = 1E-6

 POTCAR:    PAW_PBE C_h 06Feb2004                 
 POTCAR:    PAW_PBE O_h 06Feb2004                 
 -----------------------------------------------------------------------------
|                                                                             |
|           W    W    AA    RRRRR   N    N  II  N    N   GGGG   !!!           |
|           W    W   A  A   R    R  NN   N  II  NN   N  G    G  !!!           |
|           W    W  A    A  R    R  N N  N  II  N N  N  G       !!!           |
|           W WW W  AAAAAA  RRRRR   N  N N  II  N  N N  G  GGG   !            |
|           WW  WW  A    A  R   R   N   NN  II  N   NN  G    G                |
|           W    W  A    A  R    R  N    N  II  N    N   GGGG   !!!           |
|                                                                             |
|     For optimal performance we recommend to set                             |
|       NCORE = 2 up to number-of-cores-per-socket                            |
|     NCORE specifies how many cores store one orbital (NPAR=cpu/NCORE).      |
|     This setting can greatly improve the performance of VASP for DFT.       |
|     The default, NCORE=1 might be grossly inefficient on modern             |
|     multi-core architectures or massively parallel machines. Do your        |
|     own testing! More info at https://www.vasp.at/wiki/index.php/NCORE      |
|     Unfortunately you need to use the default for GW and RPA                |
|     calculations (for HF NCORE is supported but not extensively tested      |
|     yet).                                                                   |
|                                                                             |
 -----------------------------------------------------------------------------

 POTCAR:    PAW_PBE C_h 06Feb2004                 
   VRHFIN =C: s2p2                                                                                  
   LEXCH  = PE                                                                                      
   EATOM  =   147.1560 eV,   10.8157 Ry                                                             
                                                                                                    
   TITEL  = PAW_PBE C_h 06Feb2004                                                                   
   LULTRA =        F    use ultrasoft PP ?                                                          
   IUNSCR =        1    unscreen: 0-lin 1-nonlin 2-no                                               
   RPACOR =    0.800    partial core radius                                                         
   POMASS =   12.011; ZVAL   =    4.000    mass and valenz                                          
   RCORE  =    1.100    outmost cutoff radius                                                       
   RWIGS  =    1.630; RWIGS  =    0.863    wigner-seitz radius (au A)                               
   ENMAX  =  700.000; ENMIN  =  500.000 eV                                                          
   ICORE  =        2    local potential                                                             
   LCOR   =        T    correct aug charges                                                         
   LPAW   =        T    paw PP                                                                      
   EAUG   =  946.768                                                                                
   DEXC   =    0.000                                                                                
   RMAX   =    1.128    core radius for proj-oper                                                   
   RAUG   =    1.300    factor for augmentation sphere                                              
   RDEP   =    1.162    radius for radial grids                                                     
   RDEPT  =    1.088    core radius for aug-charge                                                  
                                                                                                    
   Atomic configuration                                                                             
    4 entries                                                                                       
     n  l   j            E        occ.                                                              
     1  0  0.50      -273.3789   2.0000                                                             
     2  0  0.50       -13.7508   2.0000                                                             
     2  1  0.50        -5.2854   2.0000                                                             
     3  2  1.50        -5.4423   0.0000                                                             
   Description                                                                                      
     l       E           TYP  RCUT    TYP  RCUT                                                     
     0    -13.7508458     23  1.100                                                                 
     0     -8.2022199     23  1.100                                                                 
     1     -5.2854383     23  1.100                                                                 
     1      1.1560700     23  1.100                                                                 
     2     -5.4423304      7  1.100                                                                 
  local pseudopotential read in
  partial core-charges read in
  partial kinetic energy density read in
  atomic valenz-charges read in
  non local Contribution for L=           0  read in
    real space projection operators read in
  non local Contribution for L=           0  read in
    real space projection operators read in
  non local Contribution for L=           1  read in
    real space projection operators read in
  non local Contribution for L=           1  read in
    real space projection operators read in
    PAW grid and wavefunctions read in
 
   number of l-projection  operators is LMAX  =           4
   number of lm-projection operators is LMMAX =           8
 
 POTCAR:    PAW_PBE O_h 06Feb2004                 
   VRHFIN =O: s2p4                                                                                  
   LEXCH  = PE                                                                                      
   EATOM  =   432.3788 eV,   31.7789 Ry                                                             
                                                                                                    
   TITEL  = PAW_PBE O_h 06Feb2004                                                                   
   LULTRA =        F    use ultrasoft PP ?                                                          
   IUNSCR =        1    unscreen: 0-lin 1-nonlin 2-no                                               
   RPACOR =    0.800    partial core radius                                                         
   POMASS =   16.000; ZVAL   =    6.000    mass and valenz                                          
   RCORE  =    1.100    outmost cutoff radius                                                       
   RWIGS  =    1.400; RWIGS  =    0.741    wigner-seitz radius (au A)                               
   ENMAX  =  700.000; ENMIN  =  500.000 eV                                                          
   ICORE  =        2    local potential                                                             
   LCOR   =        T    correct aug charges                                                         
   LPAW   =        T    paw PP                                                                      
   EAUG   =  888.804                                                                                
   DEXC   =    0.000                                                                                
   RMAX   =    1.128    core radius for proj-oper                                                   
   RAUG   =    1.300    factor for augmentation sphere                                              
   RDEP   =    1.125    radius for radial grids                                                     
   RDEPT  =    1.088    core radius for aug-charge                                                  
                                                                                                    
   Atomic configuration                                                                             
    4 entries                                                                                       
     n  l   j            E        occ.                                                              
     1  0  0.50      -514.6923   2.0000                                                             
     2  0  0.50       -23.9615   2.0000                                                             
     2  1  0.50        -9.0305   4.0000                                                             
     3  2  1.50        -9.5241   0.0000                                                             
   Description                                                                                      
     l       E           TYP  RCUT    TYP  RCUT                                                     
     0    -23.9615319     23  1.100                                                                 
     0    -25.3221145     23  1.100                                                                 
     1     -9.0304911     23  1.100                                                                 
     1     -5.4802209     23  1.100                                                                 
     2     -9.5240782      7  1.100                                                                 
  local pseudopotential read in
  partial core-charges read in
  partial kinetic energy density read in
  atomic valenz-charges read in
  non local Contribution for L=           0  read in
    real space projection operators read in
  non local Contribution for L=           0  read in
    real space projection operators read in
  non local Contribution for L=           1  read in
    real space projection operators read in
  non local Contribution for L=           1  read in
    real space projection operators read in
    PAW grid and wavefunctions read in
 
   number of l-projection  operators is LMAX  =           4
   number of lm-projection operators is LMMAX =           8
 
 -----------------------------------------------------------------------------
|                                                                             |
|               ----> ADVICE to this user running VASP <----                  |
|                                                                             |
|     You have a (more or less) 'large supercell' and for larger cells it     |
|     might be more efficient to use real-space projection operators.         |
|     Therefore, try LREAL= Auto in the INCAR file.                           |
|     Mind: For very accurate calculation, you might also keep the            |
|     reciprocal projection scheme (i.e. LREAL=.FALSE.).                      |
|                                                                             |
 -----------------------------------------------------------------------------

  PAW_PBE C_h 06Feb2004                 :
 energy of atom  1       EATOM= -147.1560
 kinetic energy error for atom=    0.0031 (will be added to EATOM!!)
  PAW_PBE O_h 06Feb2004                 :
 energy of atom  2       EATOM= -432.3788
 kinetic energy error for atom=    0.0171 (will be added to EATOM!!)
 
 
 POSCAR:  C  O
  positions in cartesian coordinates
  No initial velocities read in
 exchange correlation table for  LEXCH =        8
   RHO(1)=    0.500       N(1)  =     2000
   RHO(2)=  100.500       N(2)  =     4000
 


--------------------------------------------------------------------------------------------------------


 ion  position               nearest neighbor table
   1  0.972  0.000  0.001-  50 1.42   2 1.42  42 1.42
   2  0.039  0.134  0.000-   5 1.42   7 1.42   1 1.42
   3  0.172  0.000  0.000-  42 1.42  44 1.42   4 1.42
   4  0.239  0.134  0.000-   7 1.42   3 1.42  23 1.42
   5  0.972  0.200  0.000-   6 1.42   2 1.42  34 1.42
   6  0.039  0.334  0.000-   5 1.42  21 1.42  11 1.42
   7  0.172  0.200  0.000-   8 1.42   2 1.42   4 1.42
   8  0.239  0.334  0.000-  13 1.42   7 1.42  21 1.42
   9  0.372  0.000  0.000-  10 1.42  44 1.42  46 1.42
  10  0.439  0.134  0.000-  27 1.42   9 1.42  23 1.42
  11  0.972  0.400  0.001-  12 1.42  36 1.42   6 1.42
  12  0.039  0.534  0.001-  25 1.42  11 1.42  17 1.42
  13  0.372  0.400  0.000-   8 1.42  14 1.42  24 1.42
  14  0.439  0.534  0.000-  13 1.42  29 1.42  19 1.42
  15  0.572  0.000  0.001-  46 1.42  16 1.42  48 1.42
  16  0.639  0.134  0.001-  15 1.42  35 1.42  27 1.42
  17  0.972  0.600  0.001-  38 1.42  18 1.42  12 1.42
  18  0.039  0.734  0.001-  43 1.42  41 1.42  17 1.42
  19  0.572  0.600  0.000-  14 1.42  20 1.42  32 1.42
  20  0.639  0.734  0.001-  49 1.42  19 1.42  47 1.42
  21  0.172  0.400  0.000-  22 1.42   8 1.42   6 1.42
  22  0.239  0.534  0.000-  21 1.42  29 1.42  25 1.42
  23  0.372  0.200  0.000-  10 1.42   4 1.42  24 1.42
  24  0.439  0.334  0.000-  13 1.42  31 1.42  23 1.42
  25  0.172  0.600  0.001-  26 1.42  12 1.42  22 1.42
  26  0.239  0.734  0.001-  25 1.42  45 1.42  43 1.42
  27  0.572  0.200  0.000-  10 1.42  28 1.42  16 1.42
  28  0.639  0.334  0.000-  27 1.42  37 1.42  31 1.42
  29  0.372  0.600  0.000-  22 1.42  14 1.42  30 1.42
  30  0.439  0.734  0.000-  47 1.42  29 1.42  45 1.42
  31  0.572  0.400  0.000-  32 1.42  28 1.42  24 1.42
  32  0.639  0.534  0.000-  31 1.42  39 1.42  19 1.42
  33  0.772  0.000  0.001-  34 1.42  48 1.42  50 1.42
  34  0.839  0.134  0.001-  33 1.42   5 1.42  35 1.42
  35  0.772  0.200  0.001-  36 1.42  16 1.42  34 1.42
  36  0.839  0.334  0.001-  35 1.42  11 1.42  37 1.42
  37  0.772  0.400  0.001-  28 1.42  38 1.42  36 1.42
  38  0.839  0.534  0.001-  17 1.42  37 1.42  39 1.42
  39  0.772  0.600  0.001-  40 1.42  38 1.42  32 1.42
  40  0.839  0.734  0.001-  39 1.42  49 1.42  41 1.42
  41  0.972  0.800  0.001-  18 1.42  42 1.42  40 1.42
  42  0.039  0.934  0.001-   3 1.42  41 1.42   1 1.42
  43  0.172  0.800  0.001-  18 1.42  44 1.42  26 1.42
  44  0.239  0.934  0.001-   9 1.42  43 1.42   3 1.42
  45  0.372  0.800  0.001-  26 1.42  46 1.42  30 1.42
  46  0.439  0.934  0.001-  15 1.42  45 1.42   9 1.42
  47  0.572  0.800  0.001-  30 1.42  48 1.42  20 1.42
  48  0.639  0.934  0.001-  47 1.42  33 1.42  15 1.42
  49  0.772  0.800  0.001-  50 1.42  20 1.42  40 1.42
  50  0.839  0.934  0.001-  49 1.42   1 1.42  33 1.42
  51  0.373  0.251  0.283-  52 1.18  53 1.18
  52  0.421  0.189  0.285-  51 1.18
  53  0.325  0.313  0.280-  51 1.18
 
  LATTYP: Found a hexagonal cell.
 ALAT       =    12.3250000000
 C/A-ratio  =     2.0283975659
  
  Lattice vectors:
  
 A1 = (  12.3250000000,   0.0000000000,   0.0000000000)
 A2 = (  -6.1625000000,  10.6737631016,   0.0000000000)
 A3 = (   0.0000000000,   0.0000000000,  25.0000000000)


Analysis of symmetry for initial positions (statically):
=====================================================================
 Subroutine PRICEL returns:
 Original cell was already a primitive cell.
 

 Routine SETGRP: Setting up the symmetry group for a 
 hexagonal supercell.


 Subroutine GETGRP returns: Found  1 space group operations
 (whereof  1 operations were pure point group operations)
 out of a pool of 24 trial point group operations.


The static configuration has the point symmetry C_1 .


Analysis of symmetry for dynamics (positions and initial velocities):
=====================================================================
 Subroutine PRICEL returns:
 Original cell was already a primitive cell.
 

 Routine SETGRP: Setting up the symmetry group for a 
 hexagonal supercell.


 Subroutine GETGRP returns: Found  1 space group operations
 (whereof  1 operations were pure point group operations)
 out of a pool of 24 trial point group operations.


The dynamic configuration has the point symmetry C_1 .


 Subroutine INISYM returns: Found  1 space group operations
 (whereof  1 operations are pure point group operations),
 and found     1 'primitive' translations


----------------------------------------------------------------------------------------

                                     Primitive cell                                     

  volume of cell :    3288.8533

  direct lattice vectors                    reciprocal lattice vectors
    12.325000000  0.000000000  0.000000000     0.081135903  0.046843835  0.000000000
    -6.162500000 10.673763102  0.000000000     0.000000000  0.093687670  0.000000000
     0.000000000  0.000000000 25.000000000     0.000000000  0.000000000  0.040000000

  length of vectors
    12.325000000 12.325000000 25.000000000     0.093687670  0.093687670  0.040000000

  position of ions in fractional coordinates (direct lattice)
     0.972450841  0.000320818  0.000566711
     0.039118382  0.133659505  0.000440173
     0.172443627  0.000295449  0.000499628
     0.239096278  0.133647917  0.000256468
     0.972452058  0.200322012  0.000485219
     0.039128360  0.333643771  0.000444150
     0.172451764  0.200354552  0.000219167
     0.239124359  0.333665720  0.000072260
     0.372465565  0.000324403  0.000453913
     0.439137473  0.133619939  0.000258338
     0.972449824  0.400309362  0.000547611
     0.039124981  0.533636789  0.000573410
     0.372416176  0.400329481  0.000000000
     0.439099602  0.533638981  0.000232414
     0.572443676  0.000312125  0.000559580
     0.639110207  0.133631751  0.000547275
     0.972452703  0.600305653  0.000640289
     0.039124495  0.733640359  0.000654513
     0.572433471  0.600306242  0.000402895
     0.639111888  0.733641879  0.000527905
     0.172454630  0.400318228  0.000289045
     0.239120185  0.533636548  0.000378509
     0.372459750  0.200295993  0.000088997
     0.439107096  0.333673419  0.000055762
     0.172452155  0.600311506  0.000524340
     0.239123371  0.733638574  0.000575129
     0.572431082  0.200289171  0.000413296
     0.639112773  0.333618630  0.000462376
     0.372439808  0.600308022  0.000362844
     0.439116090  0.733637858  0.000494190
     0.572469358  0.400320504  0.000339918
     0.639119408  0.533650873  0.000459610
     0.772445723  0.000315427  0.000596161
     0.839116277  0.133640203  0.000575306
     0.772440513  0.200307432  0.000581033
     0.839120241  0.333635728  0.000585467
     0.772446320  0.400298367  0.000582978
     0.839118980  0.533633964  0.000621100
     0.772456143  0.600308173  0.000595712
     0.839115033  0.733643180  0.000631512
     0.972455313  0.800305582  0.000652233
     0.039114714  0.933643289  0.000598051
     0.172457971  0.800312211  0.000623372
     0.239134551  0.933647193  0.000544850
     0.372451396  0.800316674  0.000551399
     0.439124489  0.933644769  0.000541430
     0.572441101  0.800310054  0.000534535
     0.639115067  0.933638985  0.000587644
     0.772445098  0.800313187  0.000602062
     0.839116614  0.933644338  0.000606830
     0.373021009  0.251226878  0.282842712
     0.420879805  0.189313152  0.285419587
     0.325156981  0.313167186  0.280464518

  ion indices of the primitive-cell ions
   primitive index   ion index
                 1           1
                 2           2
                 3           3
                 4           4
                 5           5
                 6           6
                 7           7
                 8           8
                 9           9
                10          10
                11          11
                12          12
                13          13
                14          14
                15          15
                16          16
                17          17
                18          18
                19          19
                20          20
                21          21
                22          22
                23          23
                24          24
                25          25
                26          26
                27          27
                28          28
                29          29
                30          30
                31          31
                32          32
                33          33
                34          34
                35          35
                36          36
                37          37
                38          38
                39          39
                40          40
                41          41
                42          42
                43          43
                44          44
                45          45
                46          46
                47          47
                48          48
                49          49
                50          50
                51          51
                52          52
                53          53

----------------------------------------------------------------------------------------

 
 
 KPOINTS: auto                                    

Automatic generation of k-mesh.
 Grid dimensions read from file:
 generate k-points for:    1    1    1

 Generating k-lattice:

  Cartesian coordinates                     Fractional coordinates (reciprocal lattice)
     0.081135903  0.046843835  0.000000000     1.000000000 -0.000000000  0.000000000
     0.000000000  0.093687670  0.000000000     0.000000000  1.000000000  0.000000000
     0.000000000  0.000000000  0.040000000     0.000000000  0.000000000  1.000000000

  Length of vectors
     0.093687670  0.093687670  0.040000000

  Shift w.r.t. Gamma in fractional coordinates (k-lattice)
     0.000000000  0.000000000  0.000000000

 
 Subroutine IBZKPT returns following result:
 ===========================================
 
 Found      1 irreducible k-points:
 
 Following reciprocal coordinates:
            Coordinates               Weight
  0.000000  0.000000  0.000000      1.000000
 
 Following cartesian coordinates:
            Coordinates               Weight
  0.000000  0.000000  0.000000      1.000000
 


--------------------------------------------------------------------------------------------------------




 Dimension of arrays:
   k-points           NKPTS =      1   k-points in BZ     NKDIM =      1   number of bands    NBANDS=    140
   number of dos      NEDOS =    301   number of ions     NIONS =     53
   non local maximal  LDIM  =      4   non local SUM 2l+1 LMDIM =      8
   total plane-waves  NPLWV = ******
   max r-space proj   IRMAX =      1   max aug-charges    IRDMAX=  10008
   dimension x,y,z NGX =   128 NGY =  128 NGZ =  270
   dimension x,y,z NGXF=   256 NGYF=  256 NGZF=  540
   support grid    NGXF=   256 NGYF=  256 NGZF=  540
   ions per type =              51   2
   NGX,Y,Z   is equivalent  to a cutoff of  17.27, 17.27, 17.95 a.u.
   NGXF,Y,Z  is equivalent  to a cutoff of  34.53, 34.53, 35.91 a.u.

 SYSTEM =  unknown system                          
 POSCAR =   C  O                                   

 Startparameter for this run:
   NWRITE =      2    write-flag & timer
   PREC   = accura    normal or accurate (medium, high low for compatibility)
   ISTART =      0    job   : 0-new  1-cont  2-samecut
   ICHARG =      2    charge: 1-file 2-atom 10-const
   ISPIN  =      1    spin polarized calculation?
   LNONCOLLINEAR =      F non collinear calculations
   LSORBIT =      F    spin-orbit coupling
   INIWAV =      1    electr: 0-lowe 1-rand  2-diag
   LASPH  =      F    aspherical Exc in radial PAW
 Electronic Relaxation 1
   ENCUT  = 1000.0 eV  73.50 Ry    8.57 a.u.  31.78 31.78 64.46*2*pi/ulx,y,z
   ENINI  = 1000.0     initial cutoff
   ENAUG  =  946.8 eV  augmentation charge cutoff
   NELM   =     60;   NELMIN=  2; NELMDL= -5     # of ELM steps 
   EDIFF  = 0.1E-05   stopping-criterion for ELM
   LREAL  =      F    real-space projection
   NLSPLINE    = F    spline interpolate recip. space projectors
   LCOMPAT=      F    compatible to vasp.4.4
   GGA_COMPAT  = T    GGA compatible to vasp.4.4-vasp.4.6
   LMAXPAW     = -100 max onsite density
   LMAXMIX     =    2 max onsite mixed and CHGCAR
   VOSKOWN=      0    Vosko Wilk Nusair interpolation
   ROPT   =    0.00000   0.00000
 Ionic relaxation
   EDIFFG = 0.1E-04   stopping-criterion for IOM
   NSW    =      0    number of steps for IOM
   NBLOCK =      1;   KBLOCK =      1    inner block; outer block 
   IBRION =     -1    ionic relax: 0-MD 1-quasi-New 2-CG
   NFREE  =      0    steps in history (QN), initial steepest desc. (CG)
   ISIF   =      0    stress and relaxation
   IWAVPR =     10    prediction:  0-non 1-charg 2-wave 3-comb
   ISYM   =      2    0-nonsym 1-usesym 2-fastsym
   LCORR  =      T    Harris-Foulkes like correction to forces

   POTIM  = 0.5000    time-step for ionic-motion
   TEIN   =    0.0    initial temperature
   TEBEG  =    0.0;   TEEND  =   0.0 temperature during run
   SMASS  =  -3.00    Nose mass-parameter (am)
   estimated Nose-frequenzy (Omega)   =  0.10E-29 period in steps = 0.13E+47 mass=  -0.347E-26a.u.
   SCALEE = 1.0000    scale energy and forces
   NPACO  =    256;   APACO  = 16.0  distance and # of slots for P.C.
   PSTRESS=    0.0 pullay stress

  Mass of Ions in am
   POMASS =  12.01 16.00
  Ionic Valenz
   ZVAL   =   4.00  6.00
  Atomic Wigner-Seitz radii
   RWIGS  =  -1.00 -1.00
  virtual crystal weights 
   VCA    =   1.00  1.00
   NELECT =     216.0000    total number of electrons
   NUPDOWN=      -1.0000    fix difference up-down

 DOS related values:
   EMIN   =  10.00;   EMAX   =-10.00  energy-range for DOS
   EFERMI =   0.00
   ISMEAR =     0;   SIGMA  =   0.01  broadening in eV -4-tet -1-fermi 0-gaus

 Electronic relaxation 2 (details)
   IALGO  =     58    algorithm
   LDIAG  =      T    sub-space diagonalisation (order eigenvalues)
   LSUBROT=      F    optimize rotation matrix (better conditioning)
   TURBO    =      0    0=normal 1=particle mesh
   IRESTART =      0    0=no restart 2=restart with 2 vectors
   NREBOOT  =      0    no. of reboots
   NMIN     =      0    reboot dimension
   EREF     =   0.00    reference energy to select bands
   IMIX   =      4    mixing-type and parameters
     AMIX     =   0.40;   BMIX     =  1.00
     AMIX_MAG =   1.60;   BMIX_MAG =  1.00
     AMIN     =   0.10
     WC   =   100.;   INIMIX=   1;  MIXPRE=   1;  MAXMIX= -45

 Intra band minimization:
   WEIMIN = 0.0000     energy-eigenvalue tresh-hold
   EBREAK =  0.18E-08  absolut break condition
   DEPER  =   0.30     relativ break condition  

   TIME   =   0.40     timestep for ELM

  volume/ion in A,a.u.               =      62.05       418.76
  Fermi-wavevector in a.u.,A,eV,Ry     =   0.660508  1.248179  5.935820  0.436270
  Thomas-Fermi vector in A             =   1.732977
 
 Write flags
   LWAVE        =      F    write WAVECAR
   LDOWNSAMPLE  =      F    k-point downsampling of WAVECAR
   LCHARG       =      T    write CHGCAR
   LVTOT        =      F    write LOCPOT, total local potential
   LVHAR        =      F    write LOCPOT, Hartree potential only
   LELF         =      F    write electronic localiz. function (ELF)
   LORBIT       =      0    0 simple, 1 ext, 2 COOP (PROOUT), +10 PAW based schemes


 Dipole corrections
   LMONO  =      F    monopole corrections only (constant potential shift)
   LDIPOL =      F    correct potential (dipole corrections)
   IDIPOL =      0    1-x, 2-y, 3-z, 4-all directions 
   EPSILON=  1.0000000 bulk dielectric constant

 Exchange correlation treatment:
   GGA     =    --    GGA type
   LEXCH   =     8    internal setting for exchange type
   VOSKOWN=      0    Vosko Wilk Nusair interpolation
   LHFCALC =     F    Hartree Fock is set to
   LHFONE  =     F    Hartree Fock one center treatment
   AEXX    =    0.0000 exact exchange contribution

 Linear response parameters
   LEPSILON=     F    determine dielectric tensor
   LRPA    =     F    only Hartree local field effects (RPA)
   LNABLA  =     F    use nabla operator in PAW spheres
   LVEL    =     F    velocity operator in full k-point grid
   LINTERFAST=   F  fast interpolation
   KINTER  =     0    interpolate to denser k-point grid
   CSHIFT  =0.1000    complex shift for real part using Kramers Kronig
   OMEGAMAX=  -1.0    maximum frequency
   DEG_THRESHOLD= 0.2000000E-02 threshold for treating states as degnerate
   RTIME   =   -0.100 relaxation time in fs
  (WPLASMAI=    0.000 imaginary part of plasma frequency in eV, 0.658/RTIME)
   DFIELD  = 0.0000000 0.0000000 0.0000000 field for delta impulse in time
 
 Orbital magnetization related:
   ORBITALMAG=     F  switch on orbital magnetization
   LCHIMAG   =     F  perturbation theory with respect to B field
   DQ        =  0.001000  dq finite difference perturbation B field
   LLRAUG    =     F  two centre corrections for induced B field



--------------------------------------------------------------------------------------------------------


 Static calculation
 charge density and potential will be updated during run
 non-spin polarized calculation
 Conjugate gradient for all bands (Freysoldt, et al. PRB 79, 241103 (2009))
 preconditioned conjugated gradient                                        
 perform sub-space diagonalisation
    before iterative eigenvector-optimisation
 modified Broyden-mixing scheme, WC =      100.0
 initial mixing is a Kerker type mixing with AMIX =  0.4000 and BMIX =      1.0000
 Hartree-type preconditioning will be used
 using additional bands           32
 reciprocal scheme for non local part
 use partial core corrections
 no Harris-corrections to forces 
 use gradient corrections 
 use of overlap-Matrix (Vanderbilt PP)
 Gauss-broadening in eV      SIGMA  =   0.01


--------------------------------------------------------------------------------------------------------


  energy-cutoff  :     1000.00
  volume of cell :     3288.85
      direct lattice vectors                 reciprocal lattice vectors
    12.325000000  0.000000000  0.000000000     0.081135903  0.046843835  0.000000000
    -6.162500000 10.673763102  0.000000000     0.000000000  0.093687670  0.000000000
     0.000000000  0.000000000 25.000000000     0.000000000  0.000000000  0.040000000

  length of vectors
    12.325000000 12.325000000 25.000000000     0.093687670  0.093687670  0.040000000


 
 k-points in units of 2pi/SCALE and weight: auto                                    
   0.00000000  0.00000000  0.00000000       1.000
 
 k-points in reciprocal lattice and weights: auto                                    
   0.00000000  0.00000000  0.00000000       1.000
 
 position of ions in fractional coordinates (direct lattice) 
   0.97245084  0.00032082  0.00056671
   0.03911838  0.13365950  0.00044017
   0.17244363  0.00029545  0.00049963
   0.23909628  0.13364792  0.00025647
   0.97245206  0.20032201  0.00048522
   0.03912836  0.33364377  0.00044415
   0.17245176  0.20035455  0.00021917
   0.23912436  0.33366572  0.00007226
   0.37246557  0.00032440  0.00045391
   0.43913747  0.13361994  0.00025834
   0.97244982  0.40030936  0.00054761
   0.03912498  0.53363679  0.00057341
   0.37241618  0.40032948  0.00000000
   0.43909960  0.53363898  0.00023241
   0.57244368  0.00031213  0.00055958
   0.63911021  0.13363175  0.00054727
   0.97245270  0.60030565  0.00064029
   0.03912449  0.73364036  0.00065451
   0.57243347  0.60030624  0.00040289
   0.63911189  0.73364188  0.00052791
   0.17245463  0.40031823  0.00028904
   0.23912018  0.53363655  0.00037851
   0.37245975  0.20029599  0.00008900
   0.43910710  0.33367342  0.00005576
   0.17245216  0.60031151  0.00052434
   0.23912337  0.73363857  0.00057513
   0.57243108  0.20028917  0.00041330
   0.63911277  0.33361863  0.00046238
   0.37243981  0.60030802  0.00036284
   0.43911609  0.73363786  0.00049419
   0.57246936  0.40032050  0.00033992
   0.63911941  0.53365087  0.00045961
   0.77244572  0.00031543  0.00059616
   0.83911628  0.13364020  0.00057531
   0.77244051  0.20030743  0.00058103
   0.83912024  0.33363573  0.00058547
   0.77244632  0.40029837  0.00058298
   0.83911898  0.53363396  0.00062110
   0.77245614  0.60030817  0.00059571
   0.83911503  0.73364318  0.00063151
   0.97245531  0.80030558  0.00065223
   0.03911471  0.93364329  0.00059805
   0.17245797  0.80031221  0.00062337
   0.23913455  0.93364719  0.00054485
   0.37245140  0.80031667  0.00055140
   0.43912449  0.93364477  0.00054143
   0.57244110  0.80031005  0.00053453
   0.63911507  0.93363899  0.00058764
   0.77244510  0.80031319  0.00060206
   0.83911661  0.93364434  0.00060683
   0.37302101  0.25122688  0.28284271
   0.42087980  0.18931315  0.28541959
   0.32515698  0.31316719  0.28046452
 
 position of ions in cartesian coordinates  (Angst):
  11.98347958  0.00342433  0.01416777
  -0.34154264  1.42664989  0.01100432
   2.12354700  0.00315355  0.01249070
   2.12325634  1.42652621  0.00641170
  10.75098721  2.13818970  0.01213047
  -1.57382270  3.56123457  0.01110375
   0.89078307  2.13853702  0.00547917
   0.89099273  3.56146885  0.00180651
   4.58863896  0.00346260  0.01134782
   4.58893648  1.42622757  0.00645846
   9.51853763  4.27280730  0.01369027
  -2.80632132  5.69591267  0.01433526
   2.12299894  4.27302204  0.00000000
   2.12335237  5.69593607  0.00581036
   7.05344483  0.00333155  0.01398950
   7.05352764  1.42635365  0.01368187
   8.28609598  6.40752033  0.01600723
  -4.03884931  7.83070339  0.01636283
   3.35585531  6.40752662  0.01007237
   3.35598594  7.83071962  0.01319763
  -0.34145776  4.27290193  0.00722612
  -0.34137895  5.69591010  0.00946273
   3.35624236  2.13791198  0.00222492
   3.35573251  3.56155103  0.00139405
  -1.57394684  6.40758280  0.01310850
  -1.57385216  7.83068434  0.01437823
   5.82093107  2.13783916  0.01033241
   5.82114012  3.56096622  0.01155939
   0.89092245  6.40754561  0.00907111
   0.89106251  7.83067670  0.01235474
   4.58870974  4.27292622  0.00849795
   4.58852320  5.69606300  0.01149026
   9.51844972  0.00336679  0.01490402
   9.51855036  1.42644387  0.01438264
   8.28593477  2.13803408  0.01452582
   8.28612680  3.56114872  0.01463668
   7.05356221  4.27268994  0.01457444
   7.05362213  5.69588251  0.01552751
   5.82112285  6.40754723  0.01489279
   5.82101669  7.83073350  0.01578780
   7.05362858  8.54227219  0.01630582
  -5.27148792  9.96548729  0.01495127
  -2.80637951  8.54234295  0.01558431
  -2.80626749  9.96552896  0.01362126
  -0.34148805  8.54239058  0.01378498
  -0.34137657  9.96550309  0.01353576
   2.12342586  8.54231992  0.01336337
   2.12354296  9.96544135  0.01469111
   4.58845581  8.54235337  0.01505154
   4.58852904  9.96549848  0.01517076
   3.04929830  2.68153618  7.07106781
   4.02070129  2.02068374  7.13548967
   2.07766701  3.34267235  7.01161294
 


--------------------------------------------------------------------------------------------------------


 k-point   1 :   0.0000 0.0000 0.0000  plane waves:  236157

 maximum and minimum number of plane-waves per node :     59046    59034

 maximum number of plane-waves:    236157
 maximum index in each direction: 
   IXMAX=   31   IYMAX=   31   IZMAX=   64
   IXMIN=  -31   IYMIN=  -31   IZMIN=  -64


 parallel 3D FFT for wavefunctions:
    minimum data exchange during FFTs selected (reduces bandwidth)
 parallel 3D FFT for charge:
    minimum data exchange during FFTs selected (reduces bandwidth)


 total amount of memory used by VASP MPI-rank0   215378. kBytes
=======================================================================

   base      :      30000. kBytes
   nonl-proj :      57634. kBytes
   fftplans  :      45914. kBytes
   grid      :      67588. kBytes
   one-center:         43. kBytes
   wavefun   :      14199. kBytes
 
     INWAV:  cpu time    0.0000: real time    0.0000
 Broyden mixing: mesh for mixing (old mesh)
   NGX = 63   NGY = 63   NGZ =129
  (NGX  =256   NGY  =256   NGZ  =540)
  gives a total of 512001 points

 initial charge density was supplied:
 charge density of overlapping atoms calculated
 number of electron     216.0000000 magnetization 
 keeping initial charge density in first step


--------------------------------------------------------------------------------------------------------


 Maximum index for augmentation-charges          471 (set IRDMAX)


--------------------------------------------------------------------------------------------------------


 First call to EWALD:  gamma=   0.119
 Maximum number of real-space cells 4x 4x 2
 Maximum number of reciprocal cells 2x 2x 4

    FEWALD:  cpu time    0.0023: real time    0.0023


--------------------------------------- Iteration      1(   1)  ---------------------------------------


    POTLOK:  cpu time    0.3844: real time    0.3881
    SETDIJ:  cpu time    0.0047: real time    0.0049
    TRIAL :  cpu time    5.6083: real time    5.6647
    CORREC:  cpu time    0.0005: real time    0.0007
    --------------------------------------------
      LOOP:  cpu time    6.0012: real time    6.0792

 eigenvalue-minimisations  :   280
 total energy-change (2. order) : 0.2767117E+04  (-0.1022921E+05)
 number of electron     216.0000000 magnetization 
 augmentation part      216.0000000 magnetization 

 Free energy of the ion-electron system (eV)
  ---------------------------------------------------
  alpha Z        PSCENC =        47.94900195
  Ewald energy   TEWEN  =     42432.44515335
  -Hartree energ DENC   =    -48501.64799612
  -exchange      EXHF   =         0.00000000
  -V(xc)+E(xc)   XCENC  =       420.79776867
  PAW double counting   =      6525.96553977    -6260.36035765
  entropy T*S    EENTRO =        -0.00000001
  eigenvalues    EBANDS =      -267.55525921
  atomic energy  EATOM  =      8369.52358910
  ---------------------------------------------------
  free energy    TOTEN  =      2767.11743986 eV

  energy without entropy =     2767.11743987  energy(sigma->0) =     2767.11743987


--------------------------------------------------------------------------------------------------------




--------------------------------------- Iteration      1(   2)  ---------------------------------------


    TRIAL :  cpu time    8.0921: real time    8.1647
    CORREC:  cpu time    0.0001: real time    0.0001
    --------------------------------------------
      LOOP:  cpu time    8.1600: real time    8.2369

 eigenvalue-minimisations  :   448
 total energy-change (2. order) :-0.2436381E+04  (-0.2271130E+04)
 number of electron     216.0000000 magnetization 
 augmentation part      216.0000000 magnetization 

 Free energy of the ion-electron system (eV)
  ---------------------------------------------------
  alpha Z        PSCENC =        47.94900195
  Ewald energy   TEWEN  =     42432.44515335
  -Hartree energ DENC   =    -48501.64799612
  -exchange      EXHF   =         0.00000000
  -V(xc)+E(xc)   XCENC  =       420.79776867
  PAW double counting   =      6525.96553977    -6260.36035765
  entropy T*S    EENTRO =        -0.00000000
  eigenvalues    EBANDS =     -2703.93620405
  atomic energy  EATOM  =      8369.52358910
  ---------------------------------------------------
  free energy    TOTEN  =       330.73649503 eV

  energy without entropy =      330.73649503  energy(sigma->0) =      330.73649503


--------------------------------------------------------------------------------------------------------




--------------------------------------- Iteration      1(   3)  ---------------------------------------


    TRIAL :  cpu time    6.8300: real time    6.8883
    CORREC:  cpu time    0.0001: real time    0.0001
    --------------------------------------------
      LOOP:  cpu time    6.8664: real time    6.9391

 eigenvalue-minimisations  :   364
 total energy-change (2. order) :-0.7934343E+03  (-0.7848377E+03)
 number of electron     216.0000000 magnetization 
 augmentation part      216.0000000 magnetization 

 Free energy of the ion-electron system (eV)
  ---------------------------------------------------
  alpha Z        PSCENC =        47.94900195
  Ewald energy   TEWEN  =     42432.44515335
  -Hartree energ DENC   =    -48501.64799612
  -exchange      EXHF   =         0.00000000
  -V(xc)+E(xc)   XCENC  =       420.79776867
  PAW double counting   =      6525.96553977    -6260.36035765
  entropy T*S    EENTRO =        -0.00000000
  eigenvalues    EBANDS =     -3497.37053785
  atomic energy  EATOM  =      8369.52358910
  ---------------------------------------------------
  free energy    TOTEN  =      -462.69783877 eV

  energy without entropy =     -462.69783877  energy(sigma->0) =     -462.69783877


--------------------------------------------------------------------------------------------------------




--------------------------------------- Iteration      1(   4)  ---------------------------------------


    TRIAL :  cpu time    6.4105: real time    6.4643
    CORREC:  cpu time    0.0001: real time    0.0001
    --------------------------------------------
      LOOP:  cpu time    6.4672: real time    6.5242

 eigenvalue-minimisations  :   336
 total energy-change (2. order) :-0.5384188E+02  (-0.5353189E+02)
 number of electron     216.0000000 magnetization 
 augmentation part      216.0000000 magnetization 

 Free energy of the ion-electron system (eV)
  ---------------------------------------------------
  alpha Z        PSCENC =        47.94900195
  Ewald energy   TEWEN  =     42432.44515335
  -Hartree energ DENC   =    -48501.64799612
  -exchange      EXHF   =         0.00000000
  -V(xc)+E(xc)   XCENC  =       420.79776867
  PAW double counting   =      6525.96553977    -6260.36035765
  entropy T*S    EENTRO =        -0.00000000
  eigenvalues    EBANDS =     -3551.21241364
  atomic energy  EATOM  =      8369.52358910
  ---------------------------------------------------
  free energy    TOTEN  =      -516.53971456 eV

  energy without entropy =     -516.53971456  energy(sigma->0) =     -516.53971456


--------------------------------------------------------------------------------------------------------




--------------------------------------- Iteration      1(   5)  ---------------------------------------


    TRIAL :  cpu time    8.0907: real time    8.1651
    CORREC:  cpu time    0.0001: real time    0.0001
    CHARGE:  cpu time    0.3105: real time    0.3140
    --------------------------------------------
      LOOP:  cpu time    8.4191: real time    8.5246

 eigenvalue-minimisations  :   448
 total energy-change (2. order) :-0.1503269E+01  (-0.1500586E+01)
 number of electron     216.0000000 magnetization 
 augmentation part       -0.2647248 magnetization 

 Free energy of the ion-electron system (eV)
  ---------------------------------------------------
  alpha Z        PSCENC =        47.94900195
  Ewald energy   TEWEN  =     42432.44515335
  -Hartree energ DENC   =    -48501.64799612
  -exchange      EXHF   =         0.00000000
  -V(xc)+E(xc)   XCENC  =       420.79776867
  PAW double counting   =      6525.96553977    -6260.36035765
  entropy T*S    EENTRO =        -0.00000000
  eigenvalues    EBANDS =     -3552.71568234
  atomic energy  EATOM  =      8369.52358910
  ---------------------------------------------------
  free energy    TOTEN  =      -518.04298326 eV

  energy without entropy =     -518.04298326  energy(sigma->0) =     -518.04298326


--------------------------------------------------------------------------------------------------------




--------------------------------------- Iteration      1(   6)  ---------------------------------------


    POTLOK:  cpu time    0.3675: real time    0.3716
    SETDIJ:  cpu time    0.0027: real time    0.0027
    TRIAL :  cpu time    2.6633: real time    2.6902
    CORREC:  cpu time    1.0485: real time    1.0616
    CHARGE:  cpu time    0.3109: real time    0.3147
    --------------------------------------------
      LOOP:  cpu time    4.4628: real time    4.5247

 eigenvalue-minimisations  :     0
 total energy-change (2. order) : 0.5139706E+02  (-0.1554383E+02)
 number of electron     216.0000000 magnetization 
 augmentation part       -0.3644433 magnetization 

 Free energy of the ion-electron system (eV)
  ---------------------------------------------------
  alpha Z        PSCENC =        47.94900195
  Ewald energy   TEWEN  =     42432.44515335
  -Hartree energ DENC   =    -49941.58125454
  -exchange      EXHF   =         0.00000000
  -V(xc)+E(xc)   XCENC  =       469.03303468
  PAW double counting   =     89650.27788175   -89392.96327186
  entropy T*S    EENTRO =        -0.00000000
  eigenvalues    EBANDS =     -2101.33005830
  atomic energy  EATOM  =      8369.52358910
  ---------------------------------------------------
  free energy    TOTEN  =      -466.64592386 eV

  energy without entropy =     -466.64592386  energy(sigma->0) =     -466.64592386


--------------------------------------------------------------------------------------------------------




--------------------------------------- Iteration      1(   7)  ---------------------------------------


    POTLOK:  cpu time    0.3710: real time    0.3737
    SETDIJ:  cpu time    0.0029: real time    0.0029
    TRIAL :  cpu time    2.6762: real time    2.6991
    CORREC:  cpu time    1.0507: real time    1.0588
    CHARGE:  cpu time    0.3118: real time    0.3140
    --------------------------------------------
      LOOP:  cpu time    4.4403: real time    4.4794

 eigenvalue-minimisations  :     0
 total energy-change (2. order) :-0.1558652E+02  (-0.1817064E+01)
 number of electron     216.0000000 magnetization 
 augmentation part       -0.4124530 magnetization 

 Free energy of the ion-electron system (eV)
  ---------------------------------------------------
  alpha Z        PSCENC =        47.94900195
  Ewald energy   TEWEN  =     42432.44515335
  -Hartree energ DENC   =    -49431.22763853
  -exchange      EXHF   =         0.00000000
  -V(xc)+E(xc)   XCENC  =       451.94386347
  PAW double counting   =    105806.72321215  -105546.57800177
  entropy T*S    EENTRO =        -0.00000000
  eigenvalues    EBANDS =     -2613.01162159
  atomic energy  EATOM  =      8369.52358910
  ---------------------------------------------------
  free energy    TOTEN  =      -482.23244186 eV

  energy without entropy =     -482.23244186  energy(sigma->0) =     -482.23244186


--------------------------------------------------------------------------------------------------------




--------------------------------------- Iteration      1(   8)  ---------------------------------------


    POTLOK:  cpu time    0.3712: real time    0.3739
    SETDIJ:  cpu time    0.0029: real time    0.0030
    TRIAL :  cpu time    2.6680: real time    2.6916
    CORREC:  cpu time    1.0500: real time    1.0587
    CHARGE:  cpu time    0.3127: real time    0.3149
    --------------------------------------------
      LOOP:  cpu time    4.4363: real time    4.4939

 eigenvalue-minimisations  :     0
 total energy-change (2. order) :-0.1815500E+01  (-0.4745738E+00)
 number of electron     216.0000000 magnetization 
 augmentation part       -0.4299281 magnetization 

 Free energy of the ion-electron system (eV)
  ---------------------------------------------------
  alpha Z        PSCENC =        47.94900195
  Ewald energy   TEWEN  =     42432.44515335
  -Hartree energ DENC   =    -49402.08435786
  -exchange      EXHF   =         0.00000000
  -V(xc)+E(xc)   XCENC  =       451.34935721
  PAW double counting   =    110150.57777203  -109890.01805867
  entropy T*S    EENTRO =        -0.00000000
  eigenvalues    EBANDS =     -2643.79039904
  atomic energy  EATOM  =      8369.52358910
  ---------------------------------------------------
  free energy    TOTEN  =      -484.04794192 eV

  energy without entropy =     -484.04794192  energy(sigma->0) =     -484.04794192


--------------------------------------------------------------------------------------------------------




--------------------------------------- Iteration      1(   9)  ---------------------------------------


    POTLOK:  cpu time    0.3712: real time    0.3736
    SETDIJ:  cpu time    0.0027: real time    0.0027
    TRIAL :  cpu time    2.6670: real time    2.6912
    CORREC:  cpu time    1.0539: real time    1.0627
    CHARGE:  cpu time    0.3130: real time    0.3152
    --------------------------------------------
      LOOP:  cpu time    4.4638: real time    4.5025

 eigenvalue-minimisations  :     0
 total energy-change (2. order) :-0.4744833E+00  (-0.1514634E+00)
 number of electron     216.0000000 magnetization 
 augmentation part       -0.4375607 magnetization 

 Free energy of the ion-electron system (eV)
  ---------------------------------------------------
  alpha Z        PSCENC =        47.94900195
  Ewald energy   TEWEN  =     42432.44515335
  -Hartree energ DENC   =    -49419.14599958
  -exchange      EXHF   =         0.00000000
  -V(xc)+E(xc)   XCENC  =       451.55335284
  PAW double counting   =    112935.39351001  -112674.68067053
  entropy T*S    EENTRO =        -0.00000000
  eigenvalues    EBANDS =     -2627.56036239
  atomic energy  EATOM  =      8369.52358910
  ---------------------------------------------------
  free energy    TOTEN  =      -484.52242525 eV

  energy without entropy =     -484.52242525  energy(sigma->0) =     -484.52242525


--------------------------------------------------------------------------------------------------------




--------------------------------------- Iteration      1(  10)  ---------------------------------------


    POTLOK:  cpu time    0.3706: real time    0.3730
    SETDIJ:  cpu time    0.0030: real time    0.0030
    TRIAL :  cpu time    2.6675: real time    2.6904
    CORREC:  cpu time    1.0533: real time    1.0620
    CHARGE:  cpu time    0.3121: real time    0.3144
    --------------------------------------------
      LOOP:  cpu time    4.4401: real time    4.4771

 eigenvalue-minimisations  :     0
 total energy-change (2. order) :-0.1512578E+00  (-0.6000705E-01)
 number of electron     216.0000000 magnetization 
 augmentation part       -0.4381562 magnetization 

 Free energy of the ion-electron system (eV)
  ---------------------------------------------------
  alpha Z        PSCENC =        47.94900195
  Ewald energy   TEWEN  =     42432.44515335
  -Hartree energ DENC   =    -49420.63603649
  -exchange      EXHF   =         0.00000000
  -V(xc)+E(xc)   XCENC  =       451.48288207
  PAW double counting   =    113414.70145535  -113153.90425233
  entropy T*S    EENTRO =        -0.00000000
  eigenvalues    EBANDS =     -2626.23547605
  atomic energy  EATOM  =      8369.52358910
  ---------------------------------------------------
  free energy    TOTEN  =      -484.67368305 eV

  energy without entropy =     -484.67368305  energy(sigma->0) =     -484.67368305


--------------------------------------------------------------------------------------------------------




--------------------------------------- Iteration      1(  11)  ---------------------------------------


    POTLOK:  cpu time    0.3714: real time    0.3740
    SETDIJ:  cpu time    0.0029: real time    0.0029
    TRIAL :  cpu time    2.6670: real time    2.6925
    CORREC:  cpu time    1.0540: real time    1.0652
    CHARGE:  cpu time    0.3121: real time    0.3155
    --------------------------------------------
      LOOP:  cpu time    4.4421: real time    4.4873

 eigenvalue-minimisations  :     0
 total energy-change (2. order) :-0.5986533E-01  (-0.2423444E-01)
 number of electron     216.0000000 magnetization 
 augmentation part       -0.4375545 magnetization 

 Free energy of the ion-electron system (eV)
  ---------------------------------------------------
  alpha Z        PSCENC =        47.94900195
  Ewald energy   TEWEN  =     42432.44515335
  -Hartree energ DENC   =    -49416.62905121
  -exchange      EXHF   =         0.00000000
  -V(xc)+E(xc)   XCENC  =       451.42786748
  PAW double counting   =    112941.77184220  -112680.97436661
  entropy T*S    EENTRO =        -0.00000000
  eigenvalues    EBANDS =     -2630.24758464
  atomic energy  EATOM  =      8369.52358910
  ---------------------------------------------------
  free energy    TOTEN  =      -484.73354838 eV

  energy without entropy =     -484.73354838  energy(sigma->0) =     -484.73354838


--------------------------------------------------------------------------------------------------------




--------------------------------------- Iteration      1(  12)  ---------------------------------------


    POTLOK:  cpu time    0.3670: real time    0.3718
    SETDIJ:  cpu time    0.0030: real time    0.0030
    TRIAL :  cpu time    2.6673: real time    2.7016
    CORREC:  cpu time    1.0473: real time    1.0559
    CHARGE:  cpu time    0.3123: real time    0.3146
    --------------------------------------------
      LOOP:  cpu time    4.4431: real time    4.4948

 eigenvalue-minimisations  :     0
 total energy-change (2. order) :-0.2414218E-01  (-0.8330506E-02)
 number of electron     216.0000000 magnetization 
 augmentation part       -0.4375723 magnetization 

 Free energy of the ion-electron system (eV)
  ---------------------------------------------------
  alpha Z        PSCENC =        47.94900195
  Ewald energy   TEWEN  =     42432.44515335
  -Hartree energ DENC   =    -49414.74431708
  -exchange      EXHF   =         0.00000000
  -V(xc)+E(xc)   XCENC  =       451.39272162
  PAW double counting   =    112561.56111914  -112300.78548937
  entropy T*S    EENTRO =        -0.00000000
  eigenvalues    EBANDS =     -2632.09946927
  atomic energy  EATOM  =      8369.52358910
  ---------------------------------------------------
  free energy    TOTEN  =      -484.75769056 eV

  energy without entropy =     -484.75769056  energy(sigma->0) =     -484.75769056


--------------------------------------------------------------------------------------------------------




--------------------------------------- Iteration      1(  13)  ---------------------------------------


    POTLOK:  cpu time    0.3690: real time    0.3713
    SETDIJ:  cpu time    0.0029: real time    0.0030
    TRIAL :  cpu time    2.7017: real time    2.7256
    CORREC:  cpu time    1.0392: real time    1.0554
    CHARGE:  cpu time    0.3074: real time    0.3137
    --------------------------------------------
      LOOP:  cpu time    4.4684: real time    4.5192

 eigenvalue-minimisations  :     0
 total energy-change (2. order) :-0.8315931E-02  (-0.2485669E-02)
 number of electron     216.0000000 magnetization 
 augmentation part       -0.4372329 magnetization 

 Free energy of the ion-electron system (eV)
  ---------------------------------------------------
  alpha Z        PSCENC =        47.94900195
  Ewald energy   TEWEN  =     42432.44515335
  -Hartree energ DENC   =    -49414.71779930
  -exchange      EXHF   =         0.00000000
  -V(xc)+E(xc)   XCENC  =       451.38285891
  PAW double counting   =    112446.04041762  -112185.27501589
  entropy T*S    EENTRO =        -0.00000000
  eigenvalues    EBANDS =     -2632.11421224
  atomic energy  EATOM  =      8369.52358910
  ---------------------------------------------------
  free energy    TOTEN  =      -484.76600649 eV

  energy without entropy =     -484.76600649  energy(sigma->0) =     -484.76600649


--------------------------------------------------------------------------------------------------------




--------------------------------------- Iteration      1(  14)  ---------------------------------------


    POTLOK:  cpu time    0.3658: real time    0.3681
    SETDIJ:  cpu time    0.0029: real time    0.0030
    TRIAL :  cpu time    2.6687: real time    2.6919
    CORREC:  cpu time    1.0440: real time    1.0528
    CHARGE:  cpu time    0.3116: real time    0.3138
    --------------------------------------------
      LOOP:  cpu time    4.4900: real time    4.5304

 eigenvalue-minimisations  :     0
 total energy-change (2. order) :-0.2487025E-02  (-0.7062981E-03)
 number of electron     216.0000000 magnetization 
 augmentation part       -0.4370015 magnetization 

 Free energy of the ion-electron system (eV)
  ---------------------------------------------------
  alpha Z        PSCENC =        47.94900195
  Ewald energy   TEWEN  =     42432.44515335
  -Hartree energ DENC   =    -49414.74714997
  -exchange      EXHF   =         0.00000000
  -V(xc)+E(xc)   XCENC  =       451.38209190
  PAW double counting   =    112482.29495940  -112221.53210413
  entropy T*S    EENTRO =        -0.00000000
  eigenvalues    EBANDS =     -2632.08403512
  atomic energy  EATOM  =      8369.52358910
  ---------------------------------------------------
  free energy    TOTEN  =      -484.76849351 eV

  energy without entropy =     -484.76849351  energy(sigma->0) =     -484.76849351


--------------------------------------------------------------------------------------------------------




--------------------------------------- Iteration      1(  15)  ---------------------------------------


    POTLOK:  cpu time    0.3641: real time    0.3664
    SETDIJ:  cpu time    0.0028: real time    0.0028
    TRIAL :  cpu time    2.6679: real time    2.6914
    CORREC:  cpu time    1.0438: real time    1.0524
    CHARGE:  cpu time    0.3122: real time    0.3144
    --------------------------------------------
      LOOP:  cpu time    4.4242: real time    4.4629

 eigenvalue-minimisations  :     0
 total energy-change (2. order) :-0.7082781E-03  (-0.2357306E-03)
 number of electron     216.0000000 magnetization 
 augmentation part       -0.4367297 magnetization 

 Free energy of the ion-electron system (eV)
  ---------------------------------------------------
  alpha Z        PSCENC =        47.94900195
  Ewald energy   TEWEN  =     42432.44515335
  -Hartree energ DENC   =    -49414.42127244
  -exchange      EXHF   =         0.00000000
  -V(xc)+E(xc)   XCENC  =       451.36832066
  PAW double counting   =    112514.46876936  -112253.70404876
  entropy T*S    EENTRO =        -0.00000000
  eigenvalues    EBANDS =     -2632.39871501
  atomic energy  EATOM  =      8369.52358910
  ---------------------------------------------------
  free energy    TOTEN  =      -484.76920179 eV

  energy without entropy =     -484.76920179  energy(sigma->0) =     -484.76920179


--------------------------------------------------------------------------------------------------------




--------------------------------------- Iteration      1(  16)  ---------------------------------------


    POTLOK:  cpu time    0.3645: real time    0.3669
    SETDIJ:  cpu time    0.0028: real time    0.0028
    TRIAL :  cpu time    2.6684: real time    2.6918
    CORREC:  cpu time    1.0429: real time    1.0515
    CHARGE:  cpu time    0.3132: real time    0.3154
    --------------------------------------------
      LOOP:  cpu time    4.4289: real time    4.5061

 eigenvalue-minimisations  :     0
 total energy-change (2. order) :-0.2369605E-03  (-0.9173387E-04)
 number of electron     216.0000000 magnetization 
 augmentation part       -0.4365746 magnetization 

 Free energy of the ion-electron system (eV)
  ---------------------------------------------------
  alpha Z        PSCENC =        47.94900195
  Ewald energy   TEWEN  =     42432.44515335
  -Hartree energ DENC   =    -49414.51745254
  -exchange      EXHF   =         0.00000000
  -V(xc)+E(xc)   XCENC  =       451.37244499
  PAW double counting   =    112493.95573464  -112233.19167520
  entropy T*S    EENTRO =        -0.00000000
  eigenvalues    EBANDS =     -2632.30623506
  atomic energy  EATOM  =      8369.52358910
  ---------------------------------------------------
  free energy    TOTEN  =      -484.76943875 eV

  energy without entropy =     -484.76943875  energy(sigma->0) =     -484.76943875


--------------------------------------------------------------------------------------------------------




--------------------------------------- Iteration      1(  17)  ---------------------------------------


    POTLOK:  cpu time    0.3641: real time    0.3665
    SETDIJ:  cpu time    0.0028: real time    0.0028
    TRIAL :  cpu time    2.6682: real time    2.6920
    CORREC:  cpu time    1.0446: real time    1.0540
    CHARGE:  cpu time    0.3112: real time    0.3135
    --------------------------------------------
      LOOP:  cpu time    4.4286: real time    4.4924

 eigenvalue-minimisations  :     0
 total energy-change (2. order) :-0.9235446E-04  (-0.3525239E-04)
 number of electron     216.0000000 magnetization 
 augmentation part       -0.4365707 magnetization 

 Free energy of the ion-electron system (eV)
  ---------------------------------------------------
  alpha Z        PSCENC =        47.94900195
  Ewald energy   TEWEN  =     42432.44515335
  -Hartree energ DENC   =    -49414.61265781
  -exchange      EXHF   =         0.00000000
  -V(xc)+E(xc)   XCENC  =       451.37541525
  PAW double counting   =    112464.30012855  -112203.53642587
  entropy T*S    EENTRO =        -0.00000000
  eigenvalues    EBANDS =     -2632.21373563
  atomic energy  EATOM  =      8369.52358910
  ---------------------------------------------------
  free energy    TOTEN  =      -484.76953111 eV

  energy without entropy =     -484.76953111  energy(sigma->0) =     -484.76953111


--------------------------------------------------------------------------------------------------------




--------------------------------------- Iteration      1(  18)  ---------------------------------------


    POTLOK:  cpu time    0.3643: real time    0.3667
    SETDIJ:  cpu time    0.0030: real time    0.0030
    TRIAL :  cpu time    2.6712: real time    2.6957
    CORREC:  cpu time    1.0442: real time    1.0530
    CHARGE:  cpu time    0.3126: real time    0.3149
    --------------------------------------------
      LOOP:  cpu time    4.4184: real time    4.4642

 eigenvalue-minimisations  :     0
 total energy-change (2. order) :-0.3540482E-04  (-0.1312391E-04)
 number of electron     216.0000000 magnetization 
 augmentation part       -0.4366260 magnetization 

 Free energy of the ion-electron system (eV)
  ---------------------------------------------------
  alpha Z        PSCENC =        47.94900195
  Ewald energy   TEWEN  =     42432.44515335
  -Hartree energ DENC   =    -49414.60523935
  -exchange      EXHF   =         0.00000000
  -V(xc)+E(xc)   XCENC  =       451.37488444
  PAW double counting   =    112454.92581406  -112194.16176484
  entropy T*S    EENTRO =        -0.00000000
  eigenvalues    EBANDS =     -2632.22100522
  atomic energy  EATOM  =      8369.52358910
  ---------------------------------------------------
  free energy    TOTEN  =      -484.76956651 eV

  energy without entropy =     -484.76956651  energy(sigma->0) =     -484.76956651


--------------------------------------------------------------------------------------------------------




--------------------------------------- Iteration      1(  19)  ---------------------------------------


    POTLOK:  cpu time    0.3632: real time    0.3662
    SETDIJ:  cpu time    0.0030: real time    0.0030
    TRIAL :  cpu time    2.6473: real time    2.6883
    CORREC:  cpu time    1.0411: real time    1.0496
    CHARGE:  cpu time    0.3125: real time    0.3147
    --------------------------------------------
      LOOP:  cpu time    4.4098: real time    4.4656

 eigenvalue-minimisations  :     0
 total energy-change (2. order) :-0.1291197E-04  (-0.4679102E-05)
 number of electron     216.0000000 magnetization 
 augmentation part       -0.4366939 magnetization 

 Free energy of the ion-electron system (eV)
  ---------------------------------------------------
  alpha Z        PSCENC =        47.94900195
  Ewald energy   TEWEN  =     42432.44515335
  -Hartree energ DENC   =    -49414.61751238
  -exchange      EXHF   =         0.00000000
  -V(xc)+E(xc)   XCENC  =       451.37550832
  PAW double counting   =    112458.94000905  -112198.17575316
  entropy T*S    EENTRO =        -0.00000000
  eigenvalues    EBANDS =     -2632.20957567
  atomic energy  EATOM  =      8369.52358910
  ---------------------------------------------------
  free energy    TOTEN  =      -484.76957942 eV

  energy without entropy =     -484.76957942  energy(sigma->0) =     -484.76957942


--------------------------------------------------------------------------------------------------------




--------------------------------------- Iteration      1(  20)  ---------------------------------------


    POTLOK:  cpu time    0.3650: real time    0.3674
    SETDIJ:  cpu time    0.0031: real time    0.0031
    TRIAL :  cpu time    2.6666: real time    2.6904
    CORREC:  cpu time    1.0433: real time    1.0519
    CHARGE:  cpu time    0.3113: real time    0.3136
    --------------------------------------------
      LOOP:  cpu time    4.4290: real time    4.4887

 eigenvalue-minimisations  :     0
 total energy-change (2. order) :-0.4412577E-05  (-0.1615630E-05)
 number of electron     216.0000000 magnetization 
 augmentation part       -0.4367073 magnetization 

 Free energy of the ion-electron system (eV)
  ---------------------------------------------------
  alpha Z        PSCENC =        47.94900195
  Ewald energy   TEWEN  =     42432.44515335
  -Hartree energ DENC   =    -49414.61740417
  -exchange      EXHF   =         0.00000000
  -V(xc)+E(xc)   XCENC  =       451.37512651
  PAW double counting   =    112464.50335480  -112203.73882212
  entropy T*S    EENTRO =        -0.00000000
  eigenvalues    EBANDS =     -2632.20958327
  atomic energy  EATOM  =      8369.52358910
  ---------------------------------------------------
  free energy    TOTEN  =      -484.76958384 eV

  energy without entropy =     -484.76958384  energy(sigma->0) =     -484.76958384


--------------------------------------------------------------------------------------------------------




--------------------------------------- Iteration      1(  21)  ---------------------------------------


    POTLOK:  cpu time    0.3625: real time    0.3648
    SETDIJ:  cpu time    0.0030: real time    0.0031
    TRIAL :  cpu time    2.6656: real time    2.6908
    CORREC:  cpu time    1.0417: real time    1.0509
    CHARGE:  cpu time    0.3111: real time    0.3137
    --------------------------------------------
      LOOP:  cpu time    4.4770: real time    4.5169

 eigenvalue-minimisations  :     0
 total energy-change (2. order) :-0.1499793E-05  (-0.6388848E-06)
 number of electron     216.0000000 magnetization 
 augmentation part       -0.4367159 magnetization 

 Free energy of the ion-electron system (eV)
  ---------------------------------------------------
  alpha Z        PSCENC =        47.94900195
  Ewald energy   TEWEN  =     42432.44515335
  -Hartree energ DENC   =    -49414.63218045
  -exchange      EXHF   =         0.00000000
  -V(xc)+E(xc)   XCENC  =       451.37583577
  PAW double counting   =    112466.41488474  -112205.65045689
  entropy T*S    EENTRO =        -0.00000000
  eigenvalues    EBANDS =     -2632.19541291
  atomic energy  EATOM  =      8369.52358910
  ---------------------------------------------------
  free energy    TOTEN  =      -484.76958534 eV

  energy without entropy =     -484.76958534  energy(sigma->0) =     -484.76958534


--------------------------------------------------------------------------------------------------------




--------------------------------------- Iteration      1(  22)  ---------------------------------------


    POTLOK:  cpu time    0.3645: real time    0.3668
    SETDIJ:  cpu time    0.0028: real time    0.0028
    TRIAL :  cpu time    2.6694: real time    2.6923
    CORREC:  cpu time    1.0454: real time    1.0537
    EDDIAG:  cpu time    0.5965: real time    0.6022
    CHARGE:  cpu time    0.3130: real time    0.3152
    --------------------------------------------
      LOOP:  cpu time    5.0372: real time    5.1028

 eigenvalue-minimisations  :     0
 total energy-change (2. order) :-0.6161426E-06  (-0.2990815E-06)
 number of electron     216.0000000 magnetization 
 augmentation part       -0.4367103 magnetization 

 Free energy of the ion-electron system (eV)
  ---------------------------------------------------
  alpha Z        PSCENC =        47.94900195
  Ewald energy   TEWEN  =     42432.44515335
  -Hartree energ DENC   =    -49414.62119981
  -exchange      EXHF   =         0.00000000
  -V(xc)+E(xc)   XCENC  =       451.37529547
  PAW double counting   =    112466.09112104  -112205.32664578
  entropy T*S    EENTRO =        -0.00000000
  eigenvalues    EBANDS =     -2632.20590129
  atomic energy  EATOM  =      8369.52358910
  ---------------------------------------------------
  free energy    TOTEN  =      -484.76958595 eV

  energy without entropy =     -484.76958595  energy(sigma->0) =     -484.76958595


--------------------------------------------------------------------------------------------------------


  average scaling for gradient   0.9152


 average (electrostatic) potential at core
  the test charge radii are     0.5770  0.5955
  (the norm of the test charge is              1.0000)
       1 -85.6357       2 -85.6351       3 -85.6359       4 -85.6367       5 -85.6343
       6 -85.6342       7 -85.6357       8 -85.6345       9 -85.6348      10 -85.6353
      11 -85.6342      12 -85.6342      13 -85.6352      14 -85.6347      15 -85.6340
      16 -85.6343      17 -85.6348      18 -85.6352      19 -85.6356      20 -85.6349
      21 -85.6340      22 -85.6339      23 -85.6371      24 -85.6370      25 -85.6339
      26 -85.6342      27 -85.6349      28 -85.6359      29 -85.6340      30 -85.6340
      31 -85.6363      32 -85.6356      33 -85.6344      34 -85.6342      35 -85.6343
      36 -85.6345      37 -85.6351      38 -85.6354      39 -85.6353      40 -85.6353
      41 -85.6353      42 -85.6354      43 -85.6349      44 -85.6356      45 -85.6340
      46 -85.6342      47 -85.6342      48 -85.6341      49 -85.6353      50 -85.6349
      51 -89.5729      52-120.3522      53-120.3517
 
 
 
 E-fermi :  -4.2774     XC(G=0):  -1.9434     alpha+bet : -1.6890

 Fermi energy:        -4.2774296159

 k-point     1 :       0.0000    0.0000    0.0000
  band No.  band energies     occupation 
      1     -27.6741      2.00000
      2     -26.6688      2.00000
      3     -22.3848      2.00000
      4     -21.4455      2.00000
      5     -21.4442      2.00000
      6     -21.4440      2.00000
      7     -21.4437      2.00000
      8     -21.4435      2.00000
      9     -21.4433      2.00000
     10     -19.6004      2.00000
     11     -19.6004      2.00000
     12     -19.6001      2.00000
     13     -19.5995      2.00000
     14     -19.5990      2.00000
     15     -19.5988      2.00000
     16     -18.7025      2.00000
     17     -18.7023      2.00000
     18     -18.7020      2.00000
     19     -18.7017      2.00000
     20     -18.7010      2.00000
     21     -18.7007      2.00000
     22     -16.5346      2.00000
     23     -16.5342      2.00000
     24     -16.5334      2.00000
     25     -16.5332      2.00000
     26     -16.5328      2.00000
     27     -16.5327      2.00000
     28     -15.5487      2.00000
     29     -15.5486      2.00000
     30     -15.5477      2.00000
     31     -15.5475      2.00000
     32     -15.5471      2.00000
     33     -15.5470      2.00000
     34     -14.1951      2.00000
     35     -14.1950      2.00000
     36     -14.1943      2.00000
     37     -14.1942      2.00000
     38     -14.1941      2.00000
     39     -14.1939      2.00000
     40     -12.4774      2.00000
     41     -11.8061      2.00000
     42     -11.8058      2.00000
     43     -11.8054      2.00000
     44     -11.8053      2.00000
     45     -11.8042      2.00000
     46     -11.8040      2.00000
     47     -11.7091      2.00000
     48     -11.7090      2.00000
     49     -11.7084      2.00000
     50     -11.7083      2.00000
     51     -11.7081      2.00000
     52     -11.7080      2.00000
     53     -11.2878      2.00000
     54     -11.2232      2.00000
     55     -11.2231      2.00000
     56     -10.4767      2.00000
     57     -10.3321      2.00000
     58     -10.3319      2.00000
     59     -10.3304      2.00000
     60     -10.3300      2.00000
     61     -10.3298      2.00000
     62     -10.3297      2.00000
     63      -9.3607      2.00000
     64      -9.3601      2.00000
     65      -9.3600      2.00000
     66      -9.3592      2.00000
     67      -9.3590      2.00000
     68      -9.3589      2.00000
     69      -9.0521      2.00000
     70      -9.0513      2.00000
     71      -9.0509      2.00000
     72      -9.0508      2.00000
     73      -9.0504      2.00000
     74      -9.0502      2.00000
     75      -9.0035      2.00000
     76      -9.0032      2.00000
     77      -9.0026      2.00000
     78      -9.0025      2.00000
     79      -9.0023      2.00000
     80      -9.0014      2.00000
     81      -7.6766      2.00000
     82      -7.6765      2.00000
     83      -7.3960      2.00000
     84      -7.3944      2.00000
     85      -7.3942      2.00000
     86      -7.3938      2.00000
     87      -7.3928      2.00000
     88      -7.3928      2.00000
     89      -7.2310      2.00000
     90      -7.2306      2.00000
     91      -7.2305      2.00000
     92      -7.2301      2.00000
     93      -7.2299      2.00000
     94      -7.2296      2.00000
     95      -6.3344      2.00000
     96      -6.3343      2.00000
     97      -6.3339      2.00000
     98      -6.3337      2.00000
     99      -6.3333      2.00000
    100      -6.3331      2.00000
    101      -5.9064      2.00000
    102      -5.9043      2.00000
    103      -4.3514      2.00000
    104      -4.3511      2.00000
    105      -4.3506      2.00000
    106      -4.3505      2.00000
    107      -4.3498      2.00000
    108      -4.3497      2.00000
    109      -1.5485      0.00000
    110      -1.5483      0.00000
    111      -1.5479      0.00000
    112      -1.5476      0.00000
    113      -1.5471      0.00000
    114      -1.5468      0.00000
    115       0.2338      0.00000
    116       0.3157      0.00000
    117       0.3160      0.00000
    118       0.3165      0.00000
    119       0.3166      0.00000
    120       0.3167      0.00000
    121       0.3183      0.00000
    122       0.5196      0.00000
    123       0.8423      0.00000
    124       1.0095      0.00000
    125       1.2296      0.00000
    126       1.5715      0.00000
    127       1.6362      0.00000
    128       1.6446      0.00000
    129       1.6758      0.00000
    130       1.6793      0.00000
    131       1.6839      0.00000
    132       1.9437      0.00000
    133       2.0587      0.00000
    134       2.0640      0.00000
    135       2.0765      0.00000
    136       2.0871      0.00000
    137       2.1988      0.00000
    138       2.6633      0.00000
    139       2.9060      0.00000
    140       3.0842      0.00000


--------------------------------------------------------------------------------------------------------


 soft charge-density along one line, spin component           1
         0         1         2         3         4         5         6         7         8         9
 total charge-density along one line
 
 pseudopotential strength for first ion, spin component:           1
 12.703  21.376   0.000   0.000   0.000   0.000   0.000   0.000
 21.376  35.970   0.000   0.000   0.000   0.000   0.000   0.000
  0.000   0.000  -3.169  -0.000   0.000  -5.681  -0.000   0.000
  0.000   0.000  -0.000  -3.171  -0.000  -0.000  -5.683  -0.000
  0.000   0.000   0.000  -0.000  -3.169   0.000  -0.000  -5.681
  0.000   0.000  -5.681  -0.000   0.000 -10.161  -0.000   0.000
  0.000   0.000  -0.000  -5.683  -0.000  -0.000 -10.163  -0.000
  0.000   0.000   0.000  -0.000  -5.681   0.000  -0.000 -10.161
 total augmentation occupancy for first ion, spin component:           1
  7.880  -2.765  -0.000  -0.002  -0.000   0.000   0.001   0.000
 -2.765   1.007   0.000   0.001   0.000  -0.000  -0.000  -0.000
 -0.000   0.000   7.264  -0.008   0.000  -2.462   0.003  -0.000
 -0.002   0.001  -0.008   3.235  -0.000   0.003  -0.862   0.000
 -0.000   0.000   0.000  -0.000   7.263  -0.000   0.000  -2.462
  0.000  -0.000  -2.462   0.003  -0.000   0.849  -0.001   0.000
  0.001  -0.000   0.003  -0.862   0.000  -0.001   0.236  -0.000
  0.000  -0.000  -0.000   0.000  -2.462   0.000  -0.000   0.849


------------------------ aborting loop because EDIFF is reached ----------------------------------------


    FORLOC:  cpu time    0.0658: real time    0.0664
    FORNL :  cpu time    1.0774: real time    1.0903
    FORCOR:  cpu time    0.3853: real time    0.3878
    OFIELD:  cpu time    0.0018: real time    0.0019

 ---------------------------------------------------------------------------------------------

         DFTD3 V3.0 Rev 1        
 IVDW         = 11
 DF pbe       
 parameters
 VDW_S6       =    1.0000
 VDW_S8       =    0.7220
 VDW_SR       =    1.2170
 rs18     =    1.0000
 alpha6   =   14.0000
 alpha8   =   16.0000
 k1-k3    =   16.0000    1.3333   -4.0000
 VDW_RADIUS   =   50.2022 A
 VDW_CNRADIUS =   21.1671 A
 Edisp (eV)   -1.72870

 E6    (eV) :    -0.9746
 E8    (eV) :    -0.7541
 % E8        : 43.62
    FORVDW:  cpu time    0.1615: real time    0.1634

 VOLUME and BASIS-vectors are now :
 -----------------------------------------------------------------------------
  energy-cutoff  :     1000.00
  volume of cell :     3288.85
      direct lattice vectors                 reciprocal lattice vectors
    12.325000000  0.000000000  0.000000000     0.081135903  0.046843835  0.000000000
    -6.162500000 10.673763102  0.000000000     0.000000000  0.093687670  0.000000000
     0.000000000  0.000000000 25.000000000     0.000000000  0.000000000  0.040000000

  length of vectors
    12.325000000 12.325000000 25.000000000     0.093687670  0.093687670  0.040000000


 FORCES acting on ions:
    Electron-Ion                     Ewald-Force                    Non-Local-Force
 -----------------------------------------------------------------------------------------------
   0.138E+01 0.121E+01 0.181E+02   -.138E+01 -.121E+01 -.181E+02   0.509E-02 -.713E-03 0.622E-02
   0.192E+01 0.982E+00 0.196E+02   -.193E+01 -.979E+00 -.196E+02   0.389E-02 -.331E-02 -.556E-02
   0.782E+00 0.213E+01 0.201E+02   -.783E+00 -.213E+01 -.201E+02   -.158E-03 0.123E-01 -.333E-03
   0.989E+00 0.143E+01 0.232E+02   -.987E+00 -.143E+01 -.232E+02   0.121E-01 0.969E-03 -.136E-01
   0.149E+01 0.371E+00 0.185E+02   -.149E+01 -.371E+00 -.185E+02   -.705E-04 -.574E-02 0.304E-02
   0.153E+01 -.327E+00 0.187E+02   -.153E+01 0.329E+00 -.187E+02   -.630E-02 0.320E-02 -.324E-02
   0.191E+01 0.742E+00 0.229E+02   -.191E+01 -.742E+00 -.229E+02   0.127E-01 -.195E-01 -.569E-02
   0.189E+01 -.649E+00 0.241E+02   -.190E+01 0.652E+00 -.240E+02   -.610E-02 -.594E-02 -.545E-02
   -.950E+00 0.199E+01 0.204E+02   0.954E+00 -.199E+01 -.204E+02   -.740E-03 -.122E-01 -.490E-02
   -.131E+01 0.111E+01 0.233E+02   0.131E+01 -.112E+01 -.233E+02   -.267E-01 0.154E-01 0.297E-02
   0.396E+00 -.409E+00 0.174E+02   -.393E+00 0.409E+00 -.174E+02   0.356E-02 -.276E-02 -.284E-03
   0.369E+00 -.309E+00 0.170E+02   -.368E+00 0.309E+00 -.170E+02   -.709E-02 0.346E-02 0.575E-02
   0.664E+00 -.154E+01 0.252E+02   -.665E+00 0.154E+01 -.251E+02   0.274E-01 -.827E-02 -.163E-02
   0.406E+00 -.220E+01 0.216E+02   -.411E+00 0.220E+01 -.216E+02   0.440E-02 0.606E-02 -.159E-01
   -.138E+01 0.835E+00 0.180E+02   0.138E+01 -.837E+00 -.180E+02   0.730E-02 -.378E-02 0.685E-02
   -.180E+01 0.522E+00 0.185E+02   0.180E+01 -.523E+00 -.185E+02   -.221E-02 0.559E-02 -.522E-02
   -.254E+00 -.101E+00 0.166E+02   0.258E+00 0.994E-01 -.166E+02   -.668E-03 0.458E-03 0.188E-02
   0.113E+00 0.870E+00 0.168E+02   -.112E+00 -.870E+00 -.168E+02   -.314E-02 0.178E-02 0.921E-02
   -.355E+00 -.212E+01 0.197E+02   0.355E+00 0.212E+01 -.197E+02   0.641E-02 -.210E-02 0.500E-03
   -.206E+00 -.128E+01 0.176E+02   0.202E+00 0.128E+01 -.176E+02   0.344E-03 -.130E-02 -.754E-03
   0.196E+01 -.852E+00 0.206E+02   -.196E+01 0.853E+00 -.205E+02   -.112E-02 -.267E-02 -.169E-01
   0.137E+01 -.111E+01 0.192E+02   -.138E+01 0.111E+01 -.192E+02   -.673E-02 0.522E-02 -.262E-02
   -.347E+00 0.626E+00 0.255E+02   0.344E+00 -.624E+00 -.255E+02   -.105E-01 0.107E-01 0.231E-02
   -.476E+00 -.984E+00 0.254E+02   0.477E+00 0.983E+00 -.254E+02   0.123E-01 -.152E-01 -.918E-02
   0.750E+00 -.279E+00 0.174E+02   -.748E+00 0.278E+00 -.174E+02   0.348E-02 -.256E-02 -.355E-02
   0.200E+00 0.646E+00 0.173E+02   -.200E+00 -.645E+00 -.173E+02   -.551E-02 0.364E-02 0.529E-02
   -.218E+01 0.266E+00 0.210E+02   0.218E+01 -.269E+00 -.210E+02   0.110E-01 0.821E-02 -.214E-02
   -.206E+01 -.828E+00 0.203E+02   0.207E+01 0.828E+00 -.203E+02   -.931E-02 0.923E-02 0.110E-02
   0.778E+00 -.158E+01 0.195E+02   -.779E+00 0.158E+01 -.195E+02   0.488E-02 0.195E-02 -.709E-02
   0.683E-01 -.697E+00 0.179E+02   -.707E-01 0.699E+00 -.179E+02   -.465E-02 0.233E-02 -.261E-02
   -.148E+01 -.151E+01 0.218E+02   0.148E+01 0.151E+01 -.218E+02   -.122E-01 -.831E-02 -.119E-01
   -.107E+01 -.201E+01 0.196E+02   0.107E+01 0.201E+01 -.196E+02   0.626E-03 -.154E-02 0.244E-02
   0.923E-01 0.416E+00 0.169E+02   -.927E-01 -.416E+00 -.169E+02   0.533E-02 -.477E-02 0.689E-02
   0.252E+00 0.386E+00 0.172E+02   -.255E+00 -.385E+00 -.172E+02   -.217E-02 0.459E-02 -.137E-02
   -.944E+00 0.170E+00 0.176E+02   0.947E+00 -.171E+00 -.176E+02   0.397E-02 -.235E-02 0.567E-02
   -.838E+00 -.377E+00 0.175E+02   0.838E+00 0.377E+00 -.175E+02   -.436E-02 0.253E-02 0.359E-02
   -.159E+01 -.849E+00 0.180E+02   0.160E+01 0.847E+00 -.180E+02   -.154E-02 0.106E-02 0.334E-02
   -.105E+01 -.841E+00 0.172E+02   0.105E+01 0.841E+00 -.173E+02   -.422E-02 0.123E-02 0.900E-02
   -.957E+00 -.121E+01 0.176E+02   0.957E+00 0.122E+01 -.176E+02   -.311E-02 0.451E-04 0.489E-02
   -.144E+00 -.331E+00 0.169E+02   0.145E+00 0.331E+00 -.169E+02   0.192E-02 0.523E-03 0.740E-02
   0.361E+00 0.906E+00 0.170E+02   -.361E+00 -.906E+00 -.170E+02   -.404E-02 0.190E-02 0.692E-02
   0.109E+01 0.167E+01 0.182E+02   -.109E+01 -.168E+01 -.182E+02   -.411E-03 -.632E-03 0.781E-02
   0.115E+00 0.150E+01 0.174E+02   -.111E+00 -.150E+01 -.174E+02   -.552E-03 0.116E-02 0.209E-02
   -.180E-01 0.220E+01 0.193E+02   0.195E-01 -.220E+01 -.193E+02   -.842E-02 0.227E-02 0.528E-02
   -.286E+00 0.535E+00 0.176E+02   0.288E+00 -.537E+00 -.176E+02   0.397E-02 -.288E-02 0.109E-02
   -.105E+01 0.131E+01 0.184E+02   0.106E+01 -.131E+01 -.184E+02   -.655E-02 0.570E-03 -.175E-02
   -.281E+00 -.657E+00 0.174E+02   0.280E+00 0.657E+00 -.174E+02   0.653E-02 -.144E-02 0.569E-02
   -.591E+00 0.211E+00 0.169E+02   0.589E+00 -.210E+00 -.169E+02   -.350E-02 0.325E-02 -.327E-02
   0.609E-01 -.405E+00 0.169E+02   -.616E-01 0.406E+00 -.169E+02   0.445E-02 -.324E-02 0.569E-02
   0.645E+00 0.460E+00 0.169E+02   -.648E+00 -.458E+00 -.169E+02   0.135E-03 0.161E-02 0.318E-02
   0.281E-02 0.216E-01 -.238E+03   -.657E-02 -.182E-01 0.238E+03   -.293E-02 0.185E-02 -.277E-02
   -.229E+03 0.156E+03 -.370E+03   0.279E+03 -.190E+03 0.374E+03   -.511E+02 0.348E+02 -.343E+01
   0.229E+03 -.156E+03 -.348E+03   -.279E+03 0.190E+03 0.345E+03   0.511E+02 -.348E+02 0.309E+01
 -----------------------------------------------------------------------------------------------
   -.628E-02 0.131E-01 0.343E+00   0.114E-12 -.114E-12 0.114E-12   0.679E-02 -.136E-01 -.343E+00
 
 
 POSITION                                       TOTAL-FORCE (eV/Angst)
 -----------------------------------------------------------------------------------
     11.98348      0.00342      0.01417         0.003178     -0.001615     -0.000932
     -0.34154      1.42665      0.01100        -0.000787     -0.000055     -0.003316
      2.12355      0.00315      0.01249        -0.001707      0.010740     -0.006253
      2.12326      1.42653      0.00641         0.013344      0.001281     -0.008235
     10.75099      2.13819      0.01213         0.000305     -0.005629     -0.000001
     -1.57382      3.56123      0.01110        -0.008938      0.004783     -0.001357
      0.89078      2.13854      0.00548         0.009545     -0.019100      0.002408
      0.89099      3.56147      0.00181        -0.012007     -0.002394      0.011662
      4.58864      0.00346      0.01135         0.003713     -0.015984     -0.003433
      4.58894      1.42623      0.00646        -0.023625      0.013297      0.013788
      9.51854      4.27281      0.01369         0.006622     -0.003096      0.000236
     -2.80632      5.69591      0.01434        -0.006481      0.003364      0.000807
      2.12300      4.27302      0.00000         0.025073     -0.005000      0.020201
      2.12335      5.69594      0.00581        -0.000603      0.009298     -0.002637
      7.05344      0.00333      0.01399         0.009360     -0.005265     -0.000285
      7.05353      1.42635      0.01368        -0.001586      0.004912     -0.003732
      8.28610      6.40752      0.01601         0.002982     -0.001492     -0.000776
     -4.03885      7.83070      0.01636        -0.002165      0.000875     -0.000033
      3.35586      6.40753      0.01007         0.005426      0.000538     -0.001171
      3.35599      7.83072      0.01320        -0.003247      0.000109     -0.000605
     -0.34146      4.27290      0.00723        -0.001976     -0.001386     -0.004465
     -0.34138      5.69591      0.00946        -0.009194      0.006517     -0.001000
      3.35624      2.13791      0.00222        -0.013610      0.011993      0.015864
      3.35573      3.56155      0.00139         0.013607     -0.015957      0.008366
     -1.57395      6.40758      0.01311         0.005445     -0.003976     -0.000549
     -1.57385      7.83068      0.01438        -0.004832      0.003752      0.000119
      5.82093      2.13784      0.01033         0.016204      0.005200     -0.002834
      5.82114      3.56097      0.01156        -0.006343      0.008535     -0.003519
      0.89092      6.40755      0.00907         0.004477      0.002340     -0.002180
      0.89106      7.83068      0.01235        -0.006883      0.003862      0.000414
      4.58871      4.27293      0.00850        -0.012926     -0.006527     -0.010671
      4.58852      5.69606      0.01149         0.001908     -0.001042     -0.003835
      9.51845      0.00337      0.01490         0.004700     -0.004644      0.000206
      9.51855      1.42644      0.01438        -0.005133      0.005484     -0.000278
      8.28593      2.13803      0.01453         0.006691     -0.003413      0.000691
      8.28613      3.56115      0.01464        -0.004303      0.002203      0.000034
      7.05356      4.27269      0.01457         0.002738     -0.001069     -0.000558
      7.05362      5.69588      0.01553        -0.002474      0.001530     -0.000014
      5.82112      6.40755      0.01489        -0.002884      0.001611      0.000016
      5.82102      7.83073      0.01579         0.002682      0.000318     -0.000244
      7.05363      8.54227      0.01631        -0.004663      0.001219      0.001108
     -5.27149      9.96549      0.01495         0.000058     -0.002028     -0.002044
     -2.80638      8.54234      0.01558         0.003200     -0.001451     -0.001131
     -2.80627      9.96553      0.01362        -0.006741     -0.000123     -0.003673
     -0.34149      8.54239      0.01378         0.005818     -0.004872      0.000305
     -0.34138      9.96550      0.01354        -0.005850     -0.000119     -0.001202
      2.12343      8.54232      0.01336         0.005823     -0.001524      0.000833
      2.12354      9.96544      0.01469        -0.005235      0.003858     -0.001830
      4.58846      8.54235      0.01505         0.003666     -0.002796      0.001023
      4.58853      9.96550      0.01517        -0.002851      0.003364      0.000173
      3.04930      2.68154      7.07107        -0.006544      0.005289      0.031838
      4.02070      2.02068      7.13549        -0.521151      0.354126     -0.051949
      2.07767      3.34267      7.01161         0.528176     -0.359844      0.014650
 -----------------------------------------------------------------------------------
    total drift:                                0.000510     -0.000462      0.000501


--------------------------------------------------------------------------------------------------------



  FREE ENERGIE OF THE ION-ELECTRON SYSTEM (eV)
  ---------------------------------------------------
  free  energy   TOTEN  =      -486.49828205 eV

  energy  without entropy=     -486.49828205  energy(sigma->0) =     -486.49828205
 


--------------------------------------------------------------------------------------------------------


    POTLOK:  cpu time    0.3696: real time    0.3723


--------------------------------------------------------------------------------------------------------


     LOOP+:  cpu time  141.2385: real time  142.9060
    4ORBIT:  cpu time    0.0000: real time    0.0000

 total amount of memory used by VASP MPI-rank0   215378. kBytes
=======================================================================

   base      :      30000. kBytes
   nonl-proj :      57634. kBytes
   fftplans  :      45914. kBytes
   grid      :      67588. kBytes
   one-center:         43. kBytes
   wavefun   :      14199. kBytes
 
  
  
 General timing and accounting informations for this job:
 ========================================================
  
                  Total CPU time used (sec):      185.965
                            User time (sec):      171.743
                          System time (sec):       14.222
                         Elapsed time (sec):      189.024
  
                   Maximum memory used (kb):      590004.
                   Average memory used (kb):          N/A
  
                          Minor page faults:       221038
                          Major page faults:          109
                 Voluntary context switches:         3770
