 vasp.6.2.1 16May21 (build Nov 06 2021 14:46:37) complex                        
  
 executed on             LinuxIFC date 2025.03.03  17:56:01
 running on  112 total cores
 distrk:  each k-point on  112 cores,    1 groups
 distr:  one band on NCORE=   4 cores,   28 groups


--------------------------------------------------------------------------------------------------------


 INCAR:
   ALGO = Conjugate
   NCORE = 4
   ISMEAR = 0
   SIGMA = 0.01
   PREC = Accurate
   EDIFF = 1E-6
   ENCUT = 1000
   ISIF = 0
   GGA = RE
   IVDW = 11
   LWAVE = .FALSE.
   LCHARGE = .FALSE.
   SYMPREC = 1E-6

 POTCAR:    PAW_PBE C_h 06Feb2004                 
 POTCAR:    PAW_PBE O_h 06Feb2004                 
 -----------------------------------------------------------------------------
|                                                                             |
|           W    W    AA    RRRRR   N    N  II  N    N   GGGG   !!!           |
|           W    W   A  A   R    R  NN   N  II  NN   N  G    G  !!!           |
|           W    W  A    A  R    R  N N  N  II  N N  N  G       !!!           |
|           W WW W  AAAAAA  RRRRR   N  N N  II  N  N N  G  GGG   !            |
|           WW  WW  A    A  R   R   N   NN  II  N   NN  G    G                |
|           W    W  A    A  R    R  N    N  II  N    N   GGGG   !!!           |
|                                                                             |
|     For optimal performance we recommend to set                             |
|       NCORE = 2 up to number-of-cores-per-socket                            |
|     NCORE specifies how many cores store one orbital (NPAR=cpu/NCORE).      |
|     This setting can greatly improve the performance of VASP for DFT.       |
|     The default, NCORE=1 might be grossly inefficient on modern             |
|     multi-core architectures or massively parallel machines. Do your        |
|     own testing! More info at https://www.vasp.at/wiki/index.php/NCORE      |
|     Unfortunately you need to use the default for GW and RPA                |
|     calculations (for HF NCORE is supported but not extensively tested      |
|     yet).                                                                   |
|                                                                             |
 -----------------------------------------------------------------------------

 POTCAR:    PAW_PBE C_h 06Feb2004                 
   VRHFIN =C: s2p2                                                                                  
   LEXCH  = PE                                                                                      
   EATOM  =   147.1560 eV,   10.8157 Ry                                                             
                                                                                                    
   TITEL  = PAW_PBE C_h 06Feb2004                                                                   
   LULTRA =        F    use ultrasoft PP ?                                                          
   IUNSCR =        1    unscreen: 0-lin 1-nonlin 2-no                                               
   RPACOR =    0.800    partial core radius                                                         
   POMASS =   12.011; ZVAL   =    4.000    mass and valenz                                          
   RCORE  =    1.100    outmost cutoff radius                                                       
   RWIGS  =    1.630; RWIGS  =    0.863    wigner-seitz radius (au A)                               
   ENMAX  =  700.000; ENMIN  =  500.000 eV                                                          
   ICORE  =        2    local potential                                                             
   LCOR   =        T    correct aug charges                                                         
   LPAW   =        T    paw PP                                                                      
   EAUG   =  946.768                                                                                
   DEXC   =    0.000                                                                                
   RMAX   =    1.128    core radius for proj-oper                                                   
   RAUG   =    1.300    factor for augmentation sphere                                              
   RDEP   =    1.162    radius for radial grids                                                     
   RDEPT  =    1.088    core radius for aug-charge                                                  
                                                                                                    
   Atomic configuration                                                                             
    4 entries                                                                                       
     n  l   j            E        occ.                                                              
     1  0  0.50      -273.3789   2.0000                                                             
     2  0  0.50       -13.7508   2.0000                                                             
     2  1  0.50        -5.2854   2.0000                                                             
     3  2  1.50        -5.4423   0.0000                                                             
   Description                                                                                      
     l       E           TYP  RCUT    TYP  RCUT                                                     
     0    -13.7508458     23  1.100                                                                 
     0     -8.2022199     23  1.100                                                                 
     1     -5.2854383     23  1.100                                                                 
     1      1.1560700     23  1.100                                                                 
     2     -5.4423304      7  1.100                                                                 
  local pseudopotential read in
  partial core-charges read in
  partial kinetic energy density read in
  atomic valenz-charges read in
  non local Contribution for L=           0  read in
    real space projection operators read in
  non local Contribution for L=           0  read in
    real space projection operators read in
  non local Contribution for L=           1  read in
    real space projection operators read in
  non local Contribution for L=           1  read in
    real space projection operators read in
    PAW grid and wavefunctions read in
 
   number of l-projection  operators is LMAX  =           4
   number of lm-projection operators is LMMAX =           8
 
 POTCAR:    PAW_PBE O_h 06Feb2004                 
   VRHFIN =O: s2p4                                                                                  
   LEXCH  = PE                                                                                      
   EATOM  =   432.3788 eV,   31.7789 Ry                                                             
                                                                                                    
   TITEL  = PAW_PBE O_h 06Feb2004                                                                   
   LULTRA =        F    use ultrasoft PP ?                                                          
   IUNSCR =        1    unscreen: 0-lin 1-nonlin 2-no                                               
   RPACOR =    0.800    partial core radius                                                         
   POMASS =   16.000; ZVAL   =    6.000    mass and valenz                                          
   RCORE  =    1.100    outmost cutoff radius                                                       
   RWIGS  =    1.400; RWIGS  =    0.741    wigner-seitz radius (au A)                               
   ENMAX  =  700.000; ENMIN  =  500.000 eV                                                          
   ICORE  =        2    local potential                                                             
   LCOR   =        T    correct aug charges                                                         
   LPAW   =        T    paw PP                                                                      
   EAUG   =  888.804                                                                                
   DEXC   =    0.000                                                                                
   RMAX   =    1.128    core radius for proj-oper                                                   
   RAUG   =    1.300    factor for augmentation sphere                                              
   RDEP   =    1.125    radius for radial grids                                                     
   RDEPT  =    1.088    core radius for aug-charge                                                  
                                                                                                    
   Atomic configuration                                                                             
    4 entries                                                                                       
     n  l   j            E        occ.                                                              
     1  0  0.50      -514.6923   2.0000                                                             
     2  0  0.50       -23.9615   2.0000                                                             
     2  1  0.50        -9.0305   4.0000                                                             
     3  2  1.50        -9.5241   0.0000                                                             
   Description                                                                                      
     l       E           TYP  RCUT    TYP  RCUT                                                     
     0    -23.9615319     23  1.100                                                                 
     0    -25.3221145     23  1.100                                                                 
     1     -9.0304911     23  1.100                                                                 
     1     -5.4802209     23  1.100                                                                 
     2     -9.5240782      7  1.100                                                                 
  local pseudopotential read in
  partial core-charges read in
  partial kinetic energy density read in
  atomic valenz-charges read in
  non local Contribution for L=           0  read in
    real space projection operators read in
  non local Contribution for L=           0  read in
    real space projection operators read in
  non local Contribution for L=           1  read in
    real space projection operators read in
  non local Contribution for L=           1  read in
    real space projection operators read in
    PAW grid and wavefunctions read in
 
   number of l-projection  operators is LMAX  =           4
   number of lm-projection operators is LMMAX =           8
 
 -----------------------------------------------------------------------------
|                                                                             |
|               ----> ADVICE to this user running VASP <----                  |
|                                                                             |
|     You have a (more or less) 'large supercell' and for larger cells it     |
|     might be more efficient to use real-space projection operators.         |
|     Therefore, try LREAL= Auto in the INCAR file.                           |
|     Mind: For very accurate calculation, you might also keep the            |
|     reciprocal projection scheme (i.e. LREAL=.FALSE.).                      |
|                                                                             |
 -----------------------------------------------------------------------------

 -----------------------------------------------------------------------------
|                                                                             |
|               ----> ADVICE to this user running VASP <----                  |
|                                                                             |
|     You enforced a specific xc type in the INCAR file but a different       |
|     type was found in the POTCAR file.                                      |
|     I HOPE YOU KNOW WHAT YOU ARE DOING!                                     |
|                                                                             |
 -----------------------------------------------------------------------------

  PAW_PBE C_h 06Feb2004                 :
 energy of atom  1       EATOM= -147.1560
 kinetic energy error for atom=    0.0031 (will be added to EATOM!!)
  PAW_PBE O_h 06Feb2004                 :
 energy of atom  2       EATOM= -432.3788
 kinetic energy error for atom=    0.0171 (will be added to EATOM!!)
 
 
 POSCAR:  C  O
  positions in cartesian coordinates
  No initial velocities read in
 exchange correlation table for  LEXCH =       40
   RHO(1)=    0.500       N(1)  =     2000
   RHO(2)=  100.500       N(2)  =     4000
 


--------------------------------------------------------------------------------------------------------


 ion  position               nearest neighbor table
   1  0.972  0.000  0.001-  50 1.42   2 1.42  42 1.42
   2  0.039  0.134  0.001-   5 1.42   7 1.42   1 1.42
   3  0.172  0.000  0.001-  42 1.42  44 1.42   4 1.42
   4  0.239  0.134  0.000-   7 1.42   3 1.42  23 1.42
   5  0.972  0.200  0.001-   6 1.42   2 1.42  34 1.42
   6  0.039  0.334  0.001-   5 1.42  21 1.42  11 1.42
   7  0.172  0.200  0.000-   8 1.42   2 1.42   4 1.42
   8  0.239  0.334  0.000-  13 1.42   7 1.42  21 1.42
   9  0.372  0.000  0.001-  10 1.42  44 1.42  46 1.42
  10  0.439  0.134  0.000-  27 1.42   9 1.42  23 1.42
  11  0.972  0.400  0.001-  12 1.42  36 1.42   6 1.42
  12  0.039  0.534  0.001-  25 1.42  11 1.42  17 1.42
  13  0.372  0.400  0.000-   8 1.42  14 1.42  24 1.42
  14  0.439  0.534  0.000-  13 1.42  29 1.42  19 1.42
  15  0.572  0.000  0.001-  46 1.42  16 1.42  48 1.42
  16  0.639  0.134  0.001-  15 1.42  35 1.42  27 1.42
  17  0.972  0.600  0.001-  38 1.42  18 1.42  12 1.42
  18  0.039  0.734  0.001-  43 1.42  41 1.42  17 1.42
  19  0.572  0.600  0.001-  14 1.42  20 1.42  32 1.42
  20  0.639  0.734  0.001-  49 1.42  19 1.42  47 1.42
  21  0.172  0.400  0.000-  22 1.42   8 1.42   6 1.42
  22  0.239  0.534  0.000-  21 1.42  29 1.42  25 1.42
  23  0.372  0.200  0.000-  10 1.42   4 1.42  24 1.42
  24  0.439  0.334  0.000-  13 1.42  31 1.42  23 1.42
  25  0.172  0.600  0.001-  26 1.42  12 1.42  22 1.42
  26  0.239  0.734  0.001-  25 1.42  45 1.42  43 1.42
  27  0.572  0.200  0.001-  10 1.42  28 1.42  16 1.42
  28  0.639  0.334  0.001-  27 1.42  37 1.42  31 1.42
  29  0.372  0.600  0.000-  22 1.42  14 1.42  30 1.42
  30  0.439  0.734  0.001-  47 1.42  29 1.42  45 1.42
  31  0.572  0.400  0.000-  32 1.42  28 1.42  24 1.42
  32  0.639  0.534  0.001-  31 1.42  39 1.42  19 1.42
  33  0.772  0.000  0.001-  34 1.42  48 1.42  50 1.42
  34  0.839  0.134  0.001-  33 1.42   5 1.42  35 1.42
  35  0.772  0.200  0.001-  36 1.42  16 1.42  34 1.42
  36  0.839  0.334  0.001-  35 1.42  11 1.42  37 1.42
  37  0.772  0.400  0.001-  28 1.42  38 1.42  36 1.42
  38  0.839  0.534  0.001-  17 1.42  37 1.42  39 1.42
  39  0.772  0.600  0.001-  40 1.42  38 1.42  32 1.42
  40  0.839  0.734  0.001-  39 1.42  49 1.42  41 1.42
  41  0.972  0.800  0.001-  18 1.42  42 1.42  40 1.42
  42  0.039  0.934  0.001-   3 1.42  41 1.42   1 1.42
  43  0.172  0.800  0.001-  18 1.42  44 1.42  26 1.42
  44  0.239  0.934  0.001-   9 1.42  43 1.42   3 1.42
  45  0.372  0.800  0.001-  26 1.42  46 1.42  30 1.42
  46  0.439  0.934  0.001-  15 1.42  45 1.42   9 1.42
  47  0.572  0.800  0.001-  30 1.42  48 1.42  20 1.42
  48  0.639  0.934  0.001-  47 1.42  33 1.42  15 1.42
  49  0.772  0.800  0.001-  50 1.42  20 1.42  40 1.42
  50  0.839  0.934  0.001-  49 1.42   1 1.42  33 1.42
  51  0.373  0.251  0.375-  52 1.18  53 1.18
  52  0.421  0.189  0.378-  51 1.18
  53  0.325  0.313  0.372-  51 1.18
 
  LATTYP: Found a hexagonal cell.
 ALAT       =    12.3250000000
 C/A-ratio  =     1.6227180527
  
  Lattice vectors:
  
 A1 = (  12.3250000000,   0.0000000000,   0.0000000000)
 A2 = (  -6.1625000000,  10.6737631016,   0.0000000000)
 A3 = (   0.0000000000,   0.0000000000,  20.0000000000)


Analysis of symmetry for initial positions (statically):
=====================================================================
 Subroutine PRICEL returns:
 Original cell was already a primitive cell.
 

 Routine SETGRP: Setting up the symmetry group for a 
 hexagonal supercell.


 Subroutine GETGRP returns: Found  1 space group operations
 (whereof  1 operations were pure point group operations)
 out of a pool of 24 trial point group operations.


The static configuration has the point symmetry C_1 .


Analysis of symmetry for dynamics (positions and initial velocities):
=====================================================================
 Subroutine PRICEL returns:
 Original cell was already a primitive cell.
 

 Routine SETGRP: Setting up the symmetry group for a 
 hexagonal supercell.


 Subroutine GETGRP returns: Found  1 space group operations
 (whereof  1 operations were pure point group operations)
 out of a pool of 24 trial point group operations.


The dynamic configuration has the point symmetry C_1 .


 Subroutine INISYM returns: Found  1 space group operations
 (whereof  1 operations are pure point group operations),
 and found     1 'primitive' translations


----------------------------------------------------------------------------------------

                                     Primitive cell                                     

  volume of cell :    2631.0826

  direct lattice vectors                    reciprocal lattice vectors
    12.325000000  0.000000000  0.000000000     0.081135903  0.046843835  0.000000000
    -6.162500000 10.673763102  0.000000000     0.000000000  0.093687670  0.000000000
     0.000000000  0.000000000 20.000000000     0.000000000  0.000000000  0.050000000

  length of vectors
    12.325000000 12.325000000 20.000000000     0.093687670  0.093687670  0.050000000

  position of ions in fractional coordinates (direct lattice)
     0.972450841  0.000320818  0.000708389
     0.039118382  0.133659505  0.000550216
     0.172443627  0.000295449  0.000624535
     0.239096278  0.133647917  0.000320585
     0.972452058  0.200322012  0.000606523
     0.039128360  0.333643771  0.000555187
     0.172451764  0.200354552  0.000273959
     0.239124359  0.333665720  0.000090325
     0.372465565  0.000324403  0.000567391
     0.439137473  0.133619939  0.000322923
     0.972449824  0.400309362  0.000684513
     0.039124981  0.533636789  0.000716763
     0.372416176  0.400329481  0.000000000
     0.439099602  0.533638981  0.000290518
     0.572443676  0.000312125  0.000699475
     0.639110207  0.133631751  0.000684093
     0.972452703  0.600305653  0.000800361
     0.039124495  0.733640359  0.000818141
     0.572433471  0.600306242  0.000503618
     0.639111888  0.733641879  0.000659881
     0.172454630  0.400318228  0.000361306
     0.239120185  0.533636548  0.000473136
     0.372459750  0.200295993  0.000111246
     0.439107096  0.333673419  0.000069702
     0.172452155  0.600311506  0.000655425
     0.239123371  0.733638574  0.000718912
     0.572431082  0.200289171  0.000516621
     0.639112773  0.333618630  0.000577970
     0.372439808  0.600308022  0.000453556
     0.439116090  0.733637858  0.000617737
     0.572469358  0.400320504  0.000424897
     0.639119408  0.533650873  0.000574513
     0.772445723  0.000315427  0.000745201
     0.839116277  0.133640203  0.000719132
     0.772440513  0.200307432  0.000726291
     0.839120241  0.333635728  0.000731834
     0.772446320  0.400298367  0.000728722
     0.839118980  0.533633964  0.000776376
     0.772456143  0.600308173  0.000744639
     0.839115033  0.733643180  0.000789390
     0.972455313  0.800305582  0.000815291
     0.039114714  0.933643289  0.000747563
     0.172457971  0.800312211  0.000779216
     0.239134551  0.933647193  0.000681063
     0.372451396  0.800316674  0.000689249
     0.439124489  0.933644769  0.000676788
     0.572441101  0.800310054  0.000668168
     0.639115067  0.933638985  0.000734556
     0.772445098  0.800313187  0.000752577
     0.839116614  0.933644338  0.000758538
     0.373021009  0.251226878  0.374576769
     0.420879805  0.189313152  0.377797862
     0.325156981  0.313167186  0.371604025

  ion indices of the primitive-cell ions
   primitive index   ion index
                 1           1
                 2           2
                 3           3
                 4           4
                 5           5
                 6           6
                 7           7
                 8           8
                 9           9
                10          10
                11          11
                12          12
                13          13
                14          14
                15          15
                16          16
                17          17
                18          18
                19          19
                20          20
                21          21
                22          22
                23          23
                24          24
                25          25
                26          26
                27          27
                28          28
                29          29
                30          30
                31          31
                32          32
                33          33
                34          34
                35          35
                36          36
                37          37
                38          38
                39          39
                40          40
                41          41
                42          42
                43          43
                44          44
                45          45
                46          46
                47          47
                48          48
                49          49
                50          50
                51          51
                52          52
                53          53

----------------------------------------------------------------------------------------

 
 
 KPOINTS: auto                                    

Automatic generation of k-mesh.
 Grid dimensions read from file:
 generate k-points for:    1    1    1

 Generating k-lattice:

  Cartesian coordinates                     Fractional coordinates (reciprocal lattice)
     0.081135903  0.046843835  0.000000000     1.000000000 -0.000000000  0.000000000
     0.000000000  0.093687670  0.000000000     0.000000000  1.000000000  0.000000000
     0.000000000  0.000000000  0.050000000     0.000000000  0.000000000  1.000000000

  Length of vectors
     0.093687670  0.093687670  0.050000000

  Shift w.r.t. Gamma in fractional coordinates (k-lattice)
     0.000000000  0.000000000  0.000000000

 
 Subroutine IBZKPT returns following result:
 ===========================================
 
 Found      1 irreducible k-points:
 
 Following reciprocal coordinates:
            Coordinates               Weight
  0.000000  0.000000  0.000000      1.000000
 
 Following cartesian coordinates:
            Coordinates               Weight
  0.000000  0.000000  0.000000      1.000000
 


--------------------------------------------------------------------------------------------------------




 Dimension of arrays:
   k-points           NKPTS =      1   k-points in BZ     NKDIM =      1   number of bands    NBANDS=    140
   number of dos      NEDOS =    301   number of ions     NIONS =     53
   non local maximal  LDIM  =      4   non local SUM 2l+1 LMDIM =      8
   total plane-waves  NPLWV = ******
   max r-space proj   IRMAX =      1   max aug-charges    IRDMAX=   9736
   dimension x,y,z NGX =   128 NGY =  128 NGZ =  210
   dimension x,y,z NGXF=   256 NGYF=  256 NGZF=  420
   support grid    NGXF=   256 NGYF=  256 NGZF=  420
   ions per type =              51   2
   NGX,Y,Z   is equivalent  to a cutoff of  17.27, 17.27, 17.46 a.u.
   NGXF,Y,Z  is equivalent  to a cutoff of  34.53, 34.53, 34.91 a.u.

 SYSTEM =  unknown system                          
 POSCAR =   C  O                                   

 Startparameter for this run:
   NWRITE =      2    write-flag & timer
   PREC   = accura    normal or accurate (medium, high low for compatibility)
   ISTART =      0    job   : 0-new  1-cont  2-samecut
   ICHARG =      2    charge: 1-file 2-atom 10-const
   ISPIN  =      1    spin polarized calculation?
   LNONCOLLINEAR =      F non collinear calculations
   LSORBIT =      F    spin-orbit coupling
   INIWAV =      1    electr: 0-lowe 1-rand  2-diag
   LASPH  =      F    aspherical Exc in radial PAW
 Electronic Relaxation 1
   ENCUT  = 1000.0 eV  73.50 Ry    8.57 a.u.  31.78 31.78 51.57*2*pi/ulx,y,z
   ENINI  = 1000.0     initial cutoff
   ENAUG  =  946.8 eV  augmentation charge cutoff
   NELM   =     60;   NELMIN=  2; NELMDL= -5     # of ELM steps 
   EDIFF  = 0.1E-05   stopping-criterion for ELM
   LREAL  =      F    real-space projection
   NLSPLINE    = F    spline interpolate recip. space projectors
   LCOMPAT=      F    compatible to vasp.4.4
   GGA_COMPAT  = T    GGA compatible to vasp.4.4-vasp.4.6
   LMAXPAW     = -100 max onsite density
   LMAXMIX     =    2 max onsite mixed and CHGCAR
   VOSKOWN=      0    Vosko Wilk Nusair interpolation
   ROPT   =    0.00000   0.00000
 Ionic relaxation
   EDIFFG = 0.1E-04   stopping-criterion for IOM
   NSW    =      0    number of steps for IOM
   NBLOCK =      1;   KBLOCK =      1    inner block; outer block 
   IBRION =     -1    ionic relax: 0-MD 1-quasi-New 2-CG
   NFREE  =      0    steps in history (QN), initial steepest desc. (CG)
   ISIF   =      0    stress and relaxation
   IWAVPR =     10    prediction:  0-non 1-charg 2-wave 3-comb
   ISYM   =      2    0-nonsym 1-usesym 2-fastsym
   LCORR  =      T    Harris-Foulkes like correction to forces

   POTIM  = 0.5000    time-step for ionic-motion
   TEIN   =    0.0    initial temperature
   TEBEG  =    0.0;   TEEND  =   0.0 temperature during run
   SMASS  =  -3.00    Nose mass-parameter (am)
   estimated Nose-frequenzy (Omega)   =  0.10E-29 period in steps = 0.13E+47 mass=  -0.347E-26a.u.
   SCALEE = 1.0000    scale energy and forces
   NPACO  =    256;   APACO  = 16.0  distance and # of slots for P.C.
   PSTRESS=    0.0 pullay stress

  Mass of Ions in am
   POMASS =  12.01 16.00
  Ionic Valenz
   ZVAL   =   4.00  6.00
  Atomic Wigner-Seitz radii
   RWIGS  =  -1.00 -1.00
  virtual crystal weights 
   VCA    =   1.00  1.00
   NELECT =     216.0000    total number of electrons
   NUPDOWN=      -1.0000    fix difference up-down

 DOS related values:
   EMIN   =  10.00;   EMAX   =-10.00  energy-range for DOS
   EFERMI =   0.00
   ISMEAR =     0;   SIGMA  =   0.01  broadening in eV -4-tet -1-fermi 0-gaus

 Electronic relaxation 2 (details)
   IALGO  =     58    algorithm
   LDIAG  =      T    sub-space diagonalisation (order eigenvalues)
   LSUBROT=      F    optimize rotation matrix (better conditioning)
   TURBO    =      0    0=normal 1=particle mesh
   IRESTART =      0    0=no restart 2=restart with 2 vectors
   NREBOOT  =      0    no. of reboots
   NMIN     =      0    reboot dimension
   EREF     =   0.00    reference energy to select bands
   IMIX   =      4    mixing-type and parameters
     AMIX     =   0.40;   BMIX     =  1.00
     AMIX_MAG =   1.60;   BMIX_MAG =  1.00
     AMIN     =   0.10
     WC   =   100.;   INIMIX=   1;  MIXPRE=   1;  MAXMIX= -45

 Intra band minimization:
   WEIMIN = 0.0000     energy-eigenvalue tresh-hold
   EBREAK =  0.18E-08  absolut break condition
   DEPER  =   0.30     relativ break condition  

   TIME   =   0.40     timestep for ELM

  volume/ion in A,a.u.               =      49.64       335.01
  Fermi-wavevector in a.u.,A,eV,Ry     =   0.711510  1.344560  6.887909  0.506247
  Thomas-Fermi vector in A             =   1.798641
 
 Write flags
   LWAVE        =      F    write WAVECAR
   LDOWNSAMPLE  =      F    k-point downsampling of WAVECAR
   LCHARG       =      T    write CHGCAR
   LVTOT        =      F    write LOCPOT, total local potential
   LVHAR        =      F    write LOCPOT, Hartree potential only
   LELF         =      F    write electronic localiz. function (ELF)
   LORBIT       =      0    0 simple, 1 ext, 2 COOP (PROOUT), +10 PAW based schemes


 Dipole corrections
   LMONO  =      F    monopole corrections only (constant potential shift)
   LDIPOL =      F    correct potential (dipole corrections)
   IDIPOL =      0    1-x, 2-y, 3-z, 4-all directions 
   EPSILON=  1.0000000 bulk dielectric constant

 Exchange correlation treatment:
   GGA     =    RE    GGA type
   LEXCH   =    40    internal setting for exchange type
   VOSKOWN=      0    Vosko Wilk Nusair interpolation
   LHFCALC =     F    Hartree Fock is set to
   LHFONE  =     F    Hartree Fock one center treatment
   AEXX    =    0.0000 exact exchange contribution

 Linear response parameters
   LEPSILON=     F    determine dielectric tensor
   LRPA    =     F    only Hartree local field effects (RPA)
   LNABLA  =     F    use nabla operator in PAW spheres
   LVEL    =     F    velocity operator in full k-point grid
   LINTERFAST=   F  fast interpolation
   KINTER  =     0    interpolate to denser k-point grid
   CSHIFT  =0.1000    complex shift for real part using Kramers Kronig
   OMEGAMAX=  -1.0    maximum frequency
   DEG_THRESHOLD= 0.2000000E-02 threshold for treating states as degnerate
   RTIME   =   -0.100 relaxation time in fs
  (WPLASMAI=    0.000 imaginary part of plasma frequency in eV, 0.658/RTIME)
   DFIELD  = 0.0000000 0.0000000 0.0000000 field for delta impulse in time
 
 Orbital magnetization related:
   ORBITALMAG=     F  switch on orbital magnetization
   LCHIMAG   =     F  perturbation theory with respect to B field
   DQ        =  0.001000  dq finite difference perturbation B field
   LLRAUG    =     F  two centre corrections for induced B field



--------------------------------------------------------------------------------------------------------


 Static calculation
 charge density and potential will be updated during run
 non-spin polarized calculation
 Conjugate gradient for all bands (Freysoldt, et al. PRB 79, 241103 (2009))
 preconditioned conjugated gradient                                        
 perform sub-space diagonalisation
    before iterative eigenvector-optimisation
 modified Broyden-mixing scheme, WC =      100.0
 initial mixing is a Kerker type mixing with AMIX =  0.4000 and BMIX =      1.0000
 Hartree-type preconditioning will be used
 using additional bands           32
 reciprocal scheme for non local part
 use partial core corrections
 no Harris-corrections to forces 
 use gradient corrections 
 use of overlap-Matrix (Vanderbilt PP)
 Gauss-broadening in eV      SIGMA  =   0.01


--------------------------------------------------------------------------------------------------------


  energy-cutoff  :     1000.00
  volume of cell :     2631.08
      direct lattice vectors                 reciprocal lattice vectors
    12.325000000  0.000000000  0.000000000     0.081135903  0.046843835  0.000000000
    -6.162500000 10.673763102  0.000000000     0.000000000  0.093687670  0.000000000
     0.000000000  0.000000000 20.000000000     0.000000000  0.000000000  0.050000000

  length of vectors
    12.325000000 12.325000000 20.000000000     0.093687670  0.093687670  0.050000000


 
 k-points in units of 2pi/SCALE and weight: auto                                    
   0.00000000  0.00000000  0.00000000       1.000
 
 k-points in reciprocal lattice and weights: auto                                    
   0.00000000  0.00000000  0.00000000       1.000
 
 position of ions in fractional coordinates (direct lattice) 
   0.97245084  0.00032082  0.00070839
   0.03911838  0.13365950  0.00055022
   0.17244363  0.00029545  0.00062454
   0.23909628  0.13364792  0.00032058
   0.97245206  0.20032201  0.00060652
   0.03912836  0.33364377  0.00055519
   0.17245176  0.20035455  0.00027396
   0.23912436  0.33366572  0.00009033
   0.37246557  0.00032440  0.00056739
   0.43913747  0.13361994  0.00032292
   0.97244982  0.40030936  0.00068451
   0.03912498  0.53363679  0.00071676
   0.37241618  0.40032948  0.00000000
   0.43909960  0.53363898  0.00029052
   0.57244368  0.00031213  0.00069947
   0.63911021  0.13363175  0.00068409
   0.97245270  0.60030565  0.00080036
   0.03912449  0.73364036  0.00081814
   0.57243347  0.60030624  0.00050362
   0.63911189  0.73364188  0.00065988
   0.17245463  0.40031823  0.00036131
   0.23912018  0.53363655  0.00047314
   0.37245975  0.20029599  0.00011125
   0.43910710  0.33367342  0.00006970
   0.17245216  0.60031151  0.00065542
   0.23912337  0.73363857  0.00071891
   0.57243108  0.20028917  0.00051662
   0.63911277  0.33361863  0.00057797
   0.37243981  0.60030802  0.00045356
   0.43911609  0.73363786  0.00061774
   0.57246936  0.40032050  0.00042490
   0.63911941  0.53365087  0.00057451
   0.77244572  0.00031543  0.00074520
   0.83911628  0.13364020  0.00071913
   0.77244051  0.20030743  0.00072629
   0.83912024  0.33363573  0.00073183
   0.77244632  0.40029837  0.00072872
   0.83911898  0.53363396  0.00077638
   0.77245614  0.60030817  0.00074464
   0.83911503  0.73364318  0.00078939
   0.97245531  0.80030558  0.00081529
   0.03911471  0.93364329  0.00074756
   0.17245797  0.80031221  0.00077922
   0.23913455  0.93364719  0.00068106
   0.37245140  0.80031667  0.00068925
   0.43912449  0.93364477  0.00067679
   0.57244110  0.80031005  0.00066817
   0.63911507  0.93363899  0.00073456
   0.77244510  0.80031319  0.00075258
   0.83911661  0.93364434  0.00075854
   0.37302101  0.25122688  0.37457677
   0.42087980  0.18931315  0.37779786
   0.32515698  0.31316719  0.37160403
 
 position of ions in cartesian coordinates  (Angst):
  11.98347958  0.00342433  0.01416777
  -0.34154264  1.42664989  0.01100432
   2.12354700  0.00315355  0.01249070
   2.12325634  1.42652621  0.00641170
  10.75098721  2.13818970  0.01213047
  -1.57382270  3.56123457  0.01110375
   0.89078307  2.13853702  0.00547917
   0.89099273  3.56146885  0.00180651
   4.58863896  0.00346260  0.01134782
   4.58893648  1.42622757  0.00645846
   9.51853763  4.27280730  0.01369027
  -2.80632132  5.69591267  0.01433526
   2.12299894  4.27302204  0.00000000
   2.12335237  5.69593607  0.00581036
   7.05344483  0.00333155  0.01398950
   7.05352764  1.42635365  0.01368187
   8.28609598  6.40752033  0.01600723
  -4.03884931  7.83070339  0.01636283
   3.35585531  6.40752662  0.01007237
   3.35598594  7.83071962  0.01319763
  -0.34145776  4.27290193  0.00722612
  -0.34137895  5.69591010  0.00946273
   3.35624236  2.13791198  0.00222492
   3.35573251  3.56155103  0.00139405
  -1.57394684  6.40758280  0.01310850
  -1.57385216  7.83068434  0.01437823
   5.82093107  2.13783916  0.01033241
   5.82114012  3.56096622  0.01155939
   0.89092245  6.40754561  0.00907111
   0.89106251  7.83067670  0.01235474
   4.58870974  4.27292622  0.00849795
   4.58852320  5.69606300  0.01149026
   9.51844972  0.00336679  0.01490402
   9.51855036  1.42644387  0.01438264
   8.28593477  2.13803408  0.01452582
   8.28612680  3.56114872  0.01463668
   7.05356221  4.27268994  0.01457444
   7.05362213  5.69588251  0.01552751
   5.82112285  6.40754723  0.01489279
   5.82101669  7.83073350  0.01578780
   7.05362858  8.54227219  0.01630582
  -5.27148792  9.96548729  0.01495127
  -2.80637951  8.54234295  0.01558431
  -2.80626749  9.96552896  0.01362126
  -0.34148805  8.54239058  0.01378498
  -0.34137657  9.96550309  0.01353576
   2.12342586  8.54231992  0.01336337
   2.12354296  9.96544135  0.01469111
   4.58845581  8.54235337  0.01505154
   4.58852904  9.96549848  0.01517076
   3.04929830  2.68153618  7.49153538
   4.02070129  2.02068374  7.55595724
   2.07766701  3.34267235  7.43208051
 


--------------------------------------------------------------------------------------------------------


 k-point   1 :   0.0000 0.0000 0.0000  plane waves:  189031

 maximum and minimum number of plane-waves per node :     47262    47254

 maximum number of plane-waves:    189031
 maximum index in each direction: 
   IXMAX=   31   IYMAX=   31   IZMAX=   51
   IXMIN=  -31   IYMIN=  -31   IZMIN=  -51


 parallel 3D FFT for wavefunctions:
    minimum data exchange during FFTs selected (reduces bandwidth)
 parallel 3D FFT for charge:
    minimum data exchange during FFTs selected (reduces bandwidth)


 total amount of memory used by VASP MPI-rank0   175916. kBytes
=======================================================================

   base      :      30000. kBytes
   nonl-proj :      46129. kBytes
   fftplans  :      35778. kBytes
   grid      :      52596. kBytes
   one-center:         43. kBytes
   wavefun   :      11370. kBytes
 
     INWAV:  cpu time    0.0000: real time    0.0000
 Broyden mixing: mesh for mixing (old mesh)
   NGX = 63   NGY = 63   NGZ =103
  (NGX  =256   NGY  =256   NGZ  =420)
  gives a total of 408807 points

 initial charge density was supplied:
 charge density of overlapping atoms calculated
 number of electron     216.0000000 magnetization 
 keeping initial charge density in first step


--------------------------------------------------------------------------------------------------------


 Maximum index for augmentation-charges          459 (set IRDMAX)


--------------------------------------------------------------------------------------------------------


 First call to EWALD:  gamma=   0.128
 Maximum number of real-space cells 3x 3x 2
 Maximum number of reciprocal cells 3x 3x 4

    FEWALD:  cpu time    0.0022: real time    0.0023


--------------------------------------- Iteration      1(   1)  ---------------------------------------


    POTLOK:  cpu time    0.2935: real time    0.2967
    SETDIJ:  cpu time    0.0053: real time    0.0054
    TRIAL :  cpu time    4.1786: real time    4.2275
    CORREC:  cpu time    0.0008: real time    0.0008
    --------------------------------------------
      LOOP:  cpu time    4.4819: real time    4.5526

 eigenvalue-minimisations  :   280
 total energy-change (2. order) : 0.2657725E+04  (-0.1114260E+05)
 number of electron     216.0000000 magnetization 
 augmentation part      216.0000000 magnetization 

 Free energy of the ion-electron system (eV)
  ---------------------------------------------------
  alpha Z        PSCENC =        59.93625244
  Ewald energy   TEWEN  =     29907.56189182
  -Hartree energ DENC   =    -36083.01706340
  -exchange      EXHF   =         0.00000000
  -V(xc)+E(xc)   XCENC  =       415.89502508
  PAW double counting   =      6538.03749920    -6258.26020123
  entropy T*S    EENTRO =        -0.00000000
  eigenvalues    EBANDS =      -286.73787851
  atomic energy  EATOM  =      8364.30921166
  ---------------------------------------------------
  free energy    TOTEN  =      2657.72473708 eV

  energy without entropy =     2657.72473708  energy(sigma->0) =     2657.72473708


--------------------------------------------------------------------------------------------------------




--------------------------------------- Iteration      1(   2)  ---------------------------------------


    TRIAL :  cpu time    6.6899: real time    6.7598
    CORREC:  cpu time    0.0001: real time    0.0001
    --------------------------------------------
      LOOP:  cpu time    6.7406: real time    6.8119

 eigenvalue-minimisations  :   504
 total energy-change (2. order) :-0.2464810E+04  (-0.2340091E+04)
 number of electron     216.0000000 magnetization 
 augmentation part      216.0000000 magnetization 

 Free energy of the ion-electron system (eV)
  ---------------------------------------------------
  alpha Z        PSCENC =        59.93625244
  Ewald energy   TEWEN  =     29907.56189182
  -Hartree energ DENC   =    -36083.01706340
  -exchange      EXHF   =         0.00000000
  -V(xc)+E(xc)   XCENC  =       415.89502508
  PAW double counting   =      6538.03749920    -6258.26020123
  entropy T*S    EENTRO =        -0.00000000
  eigenvalues    EBANDS =     -2751.54790997
  atomic energy  EATOM  =      8364.30921166
  ---------------------------------------------------
  free energy    TOTEN  =       192.91470561 eV

  energy without entropy =      192.91470561  energy(sigma->0) =      192.91470561


--------------------------------------------------------------------------------------------------------




--------------------------------------- Iteration      1(   3)  ---------------------------------------


    TRIAL :  cpu time    5.1060: real time    5.1679
    CORREC:  cpu time    0.0001: real time    0.0001
    --------------------------------------------
      LOOP:  cpu time    5.1628: real time    5.2252

 eigenvalue-minimisations  :   364
 total energy-change (2. order) :-0.6581560E+03  (-0.6547002E+03)
 number of electron     216.0000000 magnetization 
 augmentation part      216.0000000 magnetization 

 Free energy of the ion-electron system (eV)
  ---------------------------------------------------
  alpha Z        PSCENC =        59.93625244
  Ewald energy   TEWEN  =     29907.56189182
  -Hartree energ DENC   =    -36083.01706340
  -exchange      EXHF   =         0.00000000
  -V(xc)+E(xc)   XCENC  =       415.89502508
  PAW double counting   =      6538.03749920    -6258.26020123
  entropy T*S    EENTRO =        -0.00000000
  eigenvalues    EBANDS =     -3409.70393521
  atomic energy  EATOM  =      8364.30921166
  ---------------------------------------------------
  free energy    TOTEN  =      -465.24131963 eV

  energy without entropy =     -465.24131963  energy(sigma->0) =     -465.24131963


--------------------------------------------------------------------------------------------------------




--------------------------------------- Iteration      1(   4)  ---------------------------------------


    TRIAL :  cpu time    5.4198: real time    5.4767
    CORREC:  cpu time    0.0001: real time    0.0001
    --------------------------------------------
      LOOP:  cpu time    5.5047: real time    5.5658

 eigenvalue-minimisations  :   392
 total energy-change (2. order) :-0.3269340E+02  (-0.3256597E+02)
 number of electron     216.0000000 magnetization 
 augmentation part      216.0000000 magnetization 

 Free energy of the ion-electron system (eV)
  ---------------------------------------------------
  alpha Z        PSCENC =        59.93625244
  Ewald energy   TEWEN  =     29907.56189182
  -Hartree energ DENC   =    -36083.01706340
  -exchange      EXHF   =         0.00000000
  -V(xc)+E(xc)   XCENC  =       415.89502508
  PAW double counting   =      6538.03749920    -6258.26020123
  entropy T*S    EENTRO =        -0.00000000
  eigenvalues    EBANDS =     -3442.39733588
  atomic energy  EATOM  =      8364.30921166
  ---------------------------------------------------
  free energy    TOTEN  =      -497.93472029 eV

  energy without entropy =     -497.93472029  energy(sigma->0) =     -497.93472029


--------------------------------------------------------------------------------------------------------




--------------------------------------- Iteration      1(   5)  ---------------------------------------


    TRIAL :  cpu time    5.7306: real time    5.7932
    CORREC:  cpu time    0.0001: real time    0.0001
    CHARGE:  cpu time    0.2416: real time    0.2535
    --------------------------------------------
      LOOP:  cpu time    6.0710: real time    6.1481

 eigenvalue-minimisations  :   420
 total energy-change (2. order) :-0.6902868E+00  (-0.6887482E+00)
 number of electron     216.0000000 magnetization 
 augmentation part       -0.3108257 magnetization 

 Free energy of the ion-electron system (eV)
  ---------------------------------------------------
  alpha Z        PSCENC =        59.93625244
  Ewald energy   TEWEN  =     29907.56189182
  -Hartree energ DENC   =    -36083.01706340
  -exchange      EXHF   =         0.00000000
  -V(xc)+E(xc)   XCENC  =       415.89502508
  PAW double counting   =      6538.03749920    -6258.26020123
  entropy T*S    EENTRO =        -0.00000000
  eigenvalues    EBANDS =     -3443.08762272
  atomic energy  EATOM  =      8364.30921166
  ---------------------------------------------------
  free energy    TOTEN  =      -498.62500714 eV

  energy without entropy =     -498.62500714  energy(sigma->0) =     -498.62500714


--------------------------------------------------------------------------------------------------------




--------------------------------------- Iteration      1(   6)  ---------------------------------------


    POTLOK:  cpu time    0.2757: real time    0.2786
    SETDIJ:  cpu time    0.0028: real time    0.0028
    TRIAL :  cpu time    2.0125: real time    2.0348
    CORREC:  cpu time    0.8045: real time    0.8121
    CHARGE:  cpu time    0.2345: real time    0.2364
    --------------------------------------------
      LOOP:  cpu time    3.3849: real time    3.4204

 eigenvalue-minimisations  :     0
 total energy-change (2. order) : 0.4868610E+02  (-0.1445500E+02)
 number of electron     216.0000000 magnetization 
 augmentation part       -0.4039866 magnetization 

 Free energy of the ion-electron system (eV)
  ---------------------------------------------------
  alpha Z        PSCENC =        59.93625244
  Ewald energy   TEWEN  =     29907.56189182
  -Hartree energ DENC   =    -37481.06185344
  -exchange      EXHF   =         0.00000000
  -V(xc)+E(xc)   XCENC  =       462.94828816
  PAW double counting   =    104146.62776298  -103872.21130448
  entropy T*S    EENTRO =        -0.00000000
  eigenvalues    EBANDS =     -2038.04915916
  atomic energy  EATOM  =      8364.30921166
  ---------------------------------------------------
  free energy    TOTEN  =      -449.93891000 eV

  energy without entropy =     -449.93891000  energy(sigma->0) =     -449.93891000


--------------------------------------------------------------------------------------------------------




--------------------------------------- Iteration      1(   7)  ---------------------------------------


    POTLOK:  cpu time    0.2758: real time    0.2780
    SETDIJ:  cpu time    0.0031: real time    0.0031
    TRIAL :  cpu time    2.0018: real time    2.0235
    CORREC:  cpu time    0.8030: real time    0.8103
    CHARGE:  cpu time    0.2338: real time    0.2358
    --------------------------------------------
      LOOP:  cpu time    3.3616: real time    3.3956

 eigenvalue-minimisations  :     0
 total energy-change (2. order) :-0.1449382E+02  (-0.1766958E+01)
 number of electron     216.0000000 magnetization 
 augmentation part       -0.4499954 magnetization 

 Free energy of the ion-electron system (eV)
  ---------------------------------------------------
  alpha Z        PSCENC =        59.93625244
  Ewald energy   TEWEN  =     29907.56189182
  -Hartree energ DENC   =    -37000.60556377
  -exchange      EXHF   =         0.00000000
  -V(xc)+E(xc)   XCENC  =       446.78349560
  PAW double counting   =    120352.46756330  -120075.98316560
  entropy T*S    EENTRO =        -0.00000000
  eigenvalues    EBANDS =     -2518.90241664
  atomic energy  EATOM  =      8364.30921166
  ---------------------------------------------------
  free energy    TOTEN  =      -464.43273117 eV

  energy without entropy =     -464.43273117  energy(sigma->0) =     -464.43273117


--------------------------------------------------------------------------------------------------------




--------------------------------------- Iteration      1(   8)  ---------------------------------------


    POTLOK:  cpu time    0.2794: real time    0.2830
    SETDIJ:  cpu time    0.0035: real time    0.0035
    TRIAL :  cpu time    1.9967: real time    2.0235
    CORREC:  cpu time    0.8061: real time    0.8134
    CHARGE:  cpu time    0.2342: real time    0.2363
    --------------------------------------------
      LOOP:  cpu time    3.4156: real time    3.4700

 eigenvalue-minimisations  :     0
 total energy-change (2. order) :-0.1765715E+01  (-0.4565994E+00)
 number of electron     216.0000000 magnetization 
 augmentation part       -0.4660125 magnetization 

 Free energy of the ion-electron system (eV)
  ---------------------------------------------------
  alpha Z        PSCENC =        59.93625244
  Ewald energy   TEWEN  =     29907.56189182
  -Hartree energ DENC   =    -36969.14786724
  -exchange      EXHF   =         0.00000000
  -V(xc)+E(xc)   XCENC  =       446.15759687
  PAW double counting   =    124612.67664480  -124335.89620853
  entropy T*S    EENTRO =        -0.00000000
  eigenvalues    EBANDS =     -2551.79596840
  atomic energy  EATOM  =      8364.30921166
  ---------------------------------------------------
  free energy    TOTEN  =      -466.19844657 eV

  energy without entropy =     -466.19844657  energy(sigma->0) =     -466.19844657


--------------------------------------------------------------------------------------------------------




--------------------------------------- Iteration      1(   9)  ---------------------------------------


    POTLOK:  cpu time    0.2738: real time    0.2758
    SETDIJ:  cpu time    0.0030: real time    0.0030
    TRIAL :  cpu time    2.0014: real time    2.0217
    CORREC:  cpu time    0.8041: real time    0.8117
    CHARGE:  cpu time    0.2347: real time    0.2366
    --------------------------------------------
      LOOP:  cpu time    3.3925: real time    3.4262

 eigenvalue-minimisations  :     0
 total energy-change (2. order) :-0.4564781E+00  (-0.1412445E+00)
 number of electron     216.0000000 magnetization 
 augmentation part       -0.4733269 magnetization 

 Free energy of the ion-electron system (eV)
  ---------------------------------------------------
  alpha Z        PSCENC =        59.93625244
  Ewald energy   TEWEN  =     29907.56189182
  -Hartree energ DENC   =    -36985.01742906
  -exchange      EXHF   =         0.00000000
  -V(xc)+E(xc)   XCENC  =       446.35618553
  PAW double counting   =    127153.04550258  -126876.16386517
  entropy T*S    EENTRO =        -0.00000000
  eigenvalues    EBANDS =     -2536.68267443
  atomic energy  EATOM  =      8364.30921166
  ---------------------------------------------------
  free energy    TOTEN  =      -466.65492462 eV

  energy without entropy =     -466.65492462  energy(sigma->0) =     -466.65492462


--------------------------------------------------------------------------------------------------------




--------------------------------------- Iteration      1(  10)  ---------------------------------------


    POTLOK:  cpu time    0.2744: real time    0.2770
    SETDIJ:  cpu time    0.0029: real time    0.0029
    TRIAL :  cpu time    1.9961: real time    2.0242
    CORREC:  cpu time    0.8047: real time    0.8122
    CHARGE:  cpu time    0.2398: real time    0.2420
    --------------------------------------------
      LOOP:  cpu time    3.3513: real time    3.3924

 eigenvalue-minimisations  :     0
 total energy-change (2. order) :-0.1410802E+00  (-0.5458140E-01)
 number of electron     216.0000000 magnetization 
 augmentation part       -0.4744209 magnetization 

 Free energy of the ion-electron system (eV)
  ---------------------------------------------------
  alpha Z        PSCENC =        59.93625244
  Ewald energy   TEWEN  =     29907.56189182
  -Hartree energ DENC   =    -36986.76130787
  -exchange      EXHF   =         0.00000000
  -V(xc)+E(xc)   XCENC  =       446.29057113
  PAW double counting   =    127420.19982978  -127143.25829055
  entropy T*S    EENTRO =        -0.00000000
  eigenvalues    EBANDS =     -2535.07416329
  atomic energy  EATOM  =      8364.30921166
  ---------------------------------------------------
  free energy    TOTEN  =      -466.79600487 eV

  energy without entropy =     -466.79600487  energy(sigma->0) =     -466.79600487


--------------------------------------------------------------------------------------------------------




--------------------------------------- Iteration      1(  11)  ---------------------------------------


    POTLOK:  cpu time    0.2756: real time    0.2776
    SETDIJ:  cpu time    0.0030: real time    0.0030
    TRIAL :  cpu time    2.0017: real time    2.0221
    CORREC:  cpu time    0.8025: real time    0.8098
    CHARGE:  cpu time    0.2334: real time    0.2355
    --------------------------------------------
      LOOP:  cpu time    3.3546: real time    3.4097

 eigenvalue-minimisations  :     0
 total energy-change (2. order) :-0.5446454E-01  (-0.2189621E-01)
 number of electron     216.0000000 magnetization 
 augmentation part       -0.4744114 magnetization 

 Free energy of the ion-electron system (eV)
  ---------------------------------------------------
  alpha Z        PSCENC =        59.93625244
  Ewald energy   TEWEN  =     29907.56189182
  -Hartree energ DENC   =    -36983.43614417
  -exchange      EXHF   =         0.00000000
  -V(xc)+E(xc)   XCENC  =       446.23646781
  PAW double counting   =    126843.99281790  -126567.05227747
  entropy T*S    EENTRO =        -0.00000000
  eigenvalues    EBANDS =     -2538.39868941
  atomic energy  EATOM  =      8364.30921166
  ---------------------------------------------------
  free energy    TOTEN  =      -466.85046941 eV

  energy without entropy =     -466.85046941  energy(sigma->0) =     -466.85046941


--------------------------------------------------------------------------------------------------------




--------------------------------------- Iteration      1(  12)  ---------------------------------------


    POTLOK:  cpu time    0.2737: real time    0.2758
    SETDIJ:  cpu time    0.0028: real time    0.0028
    TRIAL :  cpu time    2.0019: real time    2.0223
    CORREC:  cpu time    0.8017: real time    0.8094
    CHARGE:  cpu time    0.2339: real time    0.2360
    --------------------------------------------
      LOOP:  cpu time    3.3639: real time    3.3984

 eigenvalue-minimisations  :     0
 total energy-change (2. order) :-0.2180865E-01  (-0.7787596E-02)
 number of electron     216.0000000 magnetization 
 augmentation part       -0.4747566 magnetization 

 Free energy of the ion-electron system (eV)
  ---------------------------------------------------
  alpha Z        PSCENC =        59.93625244
  Ewald energy   TEWEN  =     29907.56189182
  -Hartree energ DENC   =    -36981.96089563
  -exchange      EXHF   =         0.00000000
  -V(xc)+E(xc)   XCENC  =       446.20669489
  PAW double counting   =    126467.38251312  -126190.45736139
  entropy T*S    EENTRO =        -0.00000000
  eigenvalues    EBANDS =     -2539.85058498
  atomic energy  EATOM  =      8364.30921166
  ---------------------------------------------------
  free energy    TOTEN  =      -466.87227807 eV

  energy without entropy =     -466.87227807  energy(sigma->0) =     -466.87227807


--------------------------------------------------------------------------------------------------------




--------------------------------------- Iteration      1(  13)  ---------------------------------------


    POTLOK:  cpu time    0.2729: real time    0.2766
    SETDIJ:  cpu time    0.0030: real time    0.0031
    TRIAL :  cpu time    1.9766: real time    2.0233
    CORREC:  cpu time    0.7981: real time    0.8104
    CHARGE:  cpu time    0.2345: real time    0.2367
    --------------------------------------------
      LOOP:  cpu time    3.3377: real time    3.4029

 eigenvalue-minimisations  :     0
 total energy-change (2. order) :-0.7766265E-02  (-0.2310211E-02)
 number of electron     216.0000000 magnetization 
 augmentation part       -0.4744962 magnetization 

 Free energy of the ion-electron system (eV)
  ---------------------------------------------------
  alpha Z        PSCENC =        59.93625244
  Ewald energy   TEWEN  =     29907.56189182
  -Hartree energ DENC   =    -36981.94071130
  -exchange      EXHF   =         0.00000000
  -V(xc)+E(xc)   XCENC  =       446.19975740
  PAW double counting   =    126388.32647754  -126111.40693618
  entropy T*S    EENTRO =        -0.00000000
  eigenvalues    EBANDS =     -2539.86598772
  atomic energy  EATOM  =      8364.30921166
  ---------------------------------------------------
  free energy    TOTEN  =      -466.88004433 eV

  energy without entropy =     -466.88004433  energy(sigma->0) =     -466.88004433


--------------------------------------------------------------------------------------------------------




--------------------------------------- Iteration      1(  14)  ---------------------------------------


    POTLOK:  cpu time    0.2720: real time    0.2738
    SETDIJ:  cpu time    0.0030: real time    0.0030
    TRIAL :  cpu time    2.0006: real time    2.0221
    CORREC:  cpu time    0.8012: real time    0.8087
    CHARGE:  cpu time    0.2356: real time    0.2377
    --------------------------------------------
      LOOP:  cpu time    3.3659: real time    3.4000

 eigenvalue-minimisations  :     0
 total energy-change (2. order) :-0.2309721E-02  (-0.6510434E-03)
 number of electron     216.0000000 magnetization 
 augmentation part       -0.4742455 magnetization 

 Free energy of the ion-electron system (eV)
  ---------------------------------------------------
  alpha Z        PSCENC =        59.93625244
  Ewald energy   TEWEN  =     29907.56189182
  -Hartree energ DENC   =    -36981.82201896
  -exchange      EXHF   =         0.00000000
  -V(xc)+E(xc)   XCENC  =       446.19821322
  PAW double counting   =    126451.50632003  -126174.58790139
  entropy T*S    EENTRO =        -0.00000000
  eigenvalues    EBANDS =     -2539.98432288
  atomic energy  EATOM  =      8364.30921166
  ---------------------------------------------------
  free energy    TOTEN  =      -466.88235405 eV

  energy without entropy =     -466.88235405  energy(sigma->0) =     -466.88235405


--------------------------------------------------------------------------------------------------------




--------------------------------------- Iteration      1(  15)  ---------------------------------------


    POTLOK:  cpu time    0.2724: real time    0.2743
    SETDIJ:  cpu time    0.0029: real time    0.0029
    TRIAL :  cpu time    2.0024: real time    2.0234
    CORREC:  cpu time    0.8012: real time    0.8087
    CHARGE:  cpu time    0.2345: real time    0.2365
    --------------------------------------------
      LOOP:  cpu time    3.3728: real time    3.4215

 eigenvalue-minimisations  :     0
 total energy-change (2. order) :-0.6528167E-03  (-0.2197442E-03)
 number of electron     216.0000000 magnetization 
 augmentation part       -0.4739654 magnetization 

 Free energy of the ion-electron system (eV)
  ---------------------------------------------------
  alpha Z        PSCENC =        59.93625244
  Ewald energy   TEWEN  =     29907.56189182
  -Hartree energ DENC   =    -36981.50741954
  -exchange      EXHF   =         0.00000000
  -V(xc)+E(xc)   XCENC  =       446.18705335
  PAW double counting   =    126492.37340631  -126215.45388003
  entropy T*S    EENTRO =        -0.00000000
  eigenvalues    EBANDS =     -2540.28952288
  atomic energy  EATOM  =      8364.30921166
  ---------------------------------------------------
  free energy    TOTEN  =      -466.88300687 eV

  energy without entropy =     -466.88300687  energy(sigma->0) =     -466.88300687


--------------------------------------------------------------------------------------------------------




--------------------------------------- Iteration      1(  16)  ---------------------------------------


    POTLOK:  cpu time    0.2740: real time    0.2760
    SETDIJ:  cpu time    0.0031: real time    0.0031
    TRIAL :  cpu time    2.0006: real time    2.0209
    CORREC:  cpu time    0.8213: real time    0.8304
    CHARGE:  cpu time    0.2338: real time    0.2358
    --------------------------------------------
      LOOP:  cpu time    3.3722: real time    3.4173

 eigenvalue-minimisations  :     0
 total energy-change (2. order) :-0.2212067E-03  (-0.7791007E-04)
 number of electron     216.0000000 magnetization 
 augmentation part       -0.4737869 magnetization 

 Free energy of the ion-electron system (eV)
  ---------------------------------------------------
  alpha Z        PSCENC =        59.93625244
  Ewald energy   TEWEN  =     29907.56189182
  -Hartree energ DENC   =    -36981.59785863
  -exchange      EXHF   =         0.00000000
  -V(xc)+E(xc)   XCENC  =       446.19036357
  PAW double counting   =    126474.78906262  -126197.87001904
  entropy T*S    EENTRO =        -0.00000000
  eigenvalues    EBANDS =     -2540.20213252
  atomic energy  EATOM  =      8364.30921166
  ---------------------------------------------------
  free energy    TOTEN  =      -466.88322807 eV

  energy without entropy =     -466.88322807  energy(sigma->0) =     -466.88322807


--------------------------------------------------------------------------------------------------------




--------------------------------------- Iteration      1(  17)  ---------------------------------------


    POTLOK:  cpu time    0.2711: real time    0.2731
    SETDIJ:  cpu time    0.0029: real time    0.0030
    TRIAL :  cpu time    2.0051: real time    2.0260
    CORREC:  cpu time    0.8009: real time    0.8085
    CHARGE:  cpu time    0.2342: real time    0.2363
    --------------------------------------------
      LOOP:  cpu time    3.3621: real time    3.3978

 eigenvalue-minimisations  :     0
 total energy-change (2. order) :-0.7882203E-04  (-0.3050681E-04)
 number of electron     216.0000000 magnetization 
 augmentation part       -0.4737696 magnetization 

 Free energy of the ion-electron system (eV)
  ---------------------------------------------------
  alpha Z        PSCENC =        59.93625244
  Ewald energy   TEWEN  =     29907.56189182
  -Hartree energ DENC   =    -36981.69832571
  -exchange      EXHF   =         0.00000000
  -V(xc)+E(xc)   XCENC  =       446.19344846
  PAW double counting   =    126448.22707051  -126171.30838805
  entropy T*S    EENTRO =        -0.00000000
  eigenvalues    EBANDS =     -2540.10446804
  atomic energy  EATOM  =      8364.30921166
  ---------------------------------------------------
  free energy    TOTEN  =      -466.88330690 eV

  energy without entropy =     -466.88330690  energy(sigma->0) =     -466.88330690


--------------------------------------------------------------------------------------------------------




--------------------------------------- Iteration      1(  18)  ---------------------------------------


    POTLOK:  cpu time    0.2712: real time    0.2731
    SETDIJ:  cpu time    0.0029: real time    0.0030
    TRIAL :  cpu time    2.0007: real time    2.0211
    CORREC:  cpu time    0.8008: real time    0.8083
    CHARGE:  cpu time    0.2342: real time    0.2361
    --------------------------------------------
      LOOP:  cpu time    3.3792: real time    3.4146

 eigenvalue-minimisations  :     0
 total energy-change (2. order) :-0.3086482E-04  (-0.1140826E-04)
 number of electron     216.0000000 magnetization 
 augmentation part       -0.4738126 magnetization 

 Free energy of the ion-electron system (eV)
  ---------------------------------------------------
  alpha Z        PSCENC =        59.93625244
  Ewald energy   TEWEN  =     29907.56189182
  -Hartree energ DENC   =    -36981.68651576
  -exchange      EXHF   =         0.00000000
  -V(xc)+E(xc)   XCENC  =       446.19244891
  PAW double counting   =    126439.01674720  -126162.09776869
  entropy T*S    EENTRO =        -0.00000000
  eigenvalues    EBANDS =     -2540.11560534
  atomic energy  EATOM  =      8364.30921166
  ---------------------------------------------------
  free energy    TOTEN  =      -466.88333776 eV

  energy without entropy =     -466.88333776  energy(sigma->0) =     -466.88333776


--------------------------------------------------------------------------------------------------------




--------------------------------------- Iteration      1(  19)  ---------------------------------------


    POTLOK:  cpu time    0.2704: real time    0.2724
    SETDIJ:  cpu time    0.0031: real time    0.0031
    TRIAL :  cpu time    2.0054: real time    2.0255
    CORREC:  cpu time    0.8020: real time    0.8094
    CHARGE:  cpu time    0.2339: real time    0.2359
    --------------------------------------------
      LOOP:  cpu time    3.3531: real time    3.3855

 eigenvalue-minimisations  :     0
 total energy-change (2. order) :-0.1114291E-04  (-0.4240025E-05)
 number of electron     216.0000000 magnetization 
 augmentation part       -0.4738839 magnetization 

 Free energy of the ion-electron system (eV)
  ---------------------------------------------------
  alpha Z        PSCENC =        59.93625244
  Ewald energy   TEWEN  =     29907.56189182
  -Hartree energ DENC   =    -36981.70703207
  -exchange      EXHF   =         0.00000000
  -V(xc)+E(xc)   XCENC  =       446.19358543
  PAW double counting   =    126442.63949537  -126165.72045440
  entropy T*S    EENTRO =        -0.00000000
  eigenvalues    EBANDS =     -2540.09629915
  atomic energy  EATOM  =      8364.30921166
  ---------------------------------------------------
  free energy    TOTEN  =      -466.88334890 eV

  energy without entropy =     -466.88334890  energy(sigma->0) =     -466.88334890


--------------------------------------------------------------------------------------------------------




--------------------------------------- Iteration      1(  20)  ---------------------------------------


    POTLOK:  cpu time    0.2745: real time    0.2764
    SETDIJ:  cpu time    0.0029: real time    0.0029
    TRIAL :  cpu time    2.0016: real time    2.0224
    CORREC:  cpu time    0.8020: real time    0.8097
    CHARGE:  cpu time    0.2343: real time    0.2363
    --------------------------------------------
      LOOP:  cpu time    3.3545: real time    3.3990

 eigenvalue-minimisations  :     0
 total energy-change (2. order) :-0.3957539E-05  (-0.1669688E-05)
 number of electron     216.0000000 magnetization 
 augmentation part       -0.4739018 magnetization 

 Free energy of the ion-electron system (eV)
  ---------------------------------------------------
  alpha Z        PSCENC =        59.93625244
  Ewald energy   TEWEN  =     29907.56189182
  -Hartree energ DENC   =    -36981.69545076
  -exchange      EXHF   =         0.00000000
  -V(xc)+E(xc)   XCENC  =       446.19272632
  PAW double counting   =    126447.61833304  -126170.69899354
  entropy T*S    EENTRO =        -0.00000000
  eigenvalues    EBANDS =     -2540.10732385
  atomic energy  EATOM  =      8364.30921166
  ---------------------------------------------------
  free energy    TOTEN  =      -466.88335286 eV

  energy without entropy =     -466.88335286  energy(sigma->0) =     -466.88335286


--------------------------------------------------------------------------------------------------------




--------------------------------------- Iteration      1(  21)  ---------------------------------------


    POTLOK:  cpu time    0.2720: real time    0.2741
    SETDIJ:  cpu time    0.0030: real time    0.0030
    TRIAL :  cpu time    2.0017: real time    2.0221
    CORREC:  cpu time    0.8015: real time    0.8088
    CHARGE:  cpu time    0.2342: real time    0.2362
    --------------------------------------------
      LOOP:  cpu time    3.3740: real time    3.4081

 eigenvalue-minimisations  :     0
 total energy-change (2. order) :-0.1437176E-05  (-0.6762952E-06)
 number of electron     216.0000000 magnetization 
 augmentation part       -0.4739155 magnetization 

 Free energy of the ion-electron system (eV)
  ---------------------------------------------------
  alpha Z        PSCENC =        59.93625244
  Ewald energy   TEWEN  =     29907.56189182
  -Hartree energ DENC   =    -36981.71707346
  -exchange      EXHF   =         0.00000000
  -V(xc)+E(xc)   XCENC  =       446.19375247
  PAW double counting   =    126449.17282764  -126172.25359692
  entropy T*S    EENTRO =        -0.00000000
  eigenvalues    EBANDS =     -2540.08661996
  atomic energy  EATOM  =      8364.30921166
  ---------------------------------------------------
  free energy    TOTEN  =      -466.88335430 eV

  energy without entropy =     -466.88335430  energy(sigma->0) =     -466.88335430


--------------------------------------------------------------------------------------------------------




--------------------------------------- Iteration      1(  22)  ---------------------------------------


    POTLOK:  cpu time    0.2711: real time    0.2730
    SETDIJ:  cpu time    0.0030: real time    0.0031
    TRIAL :  cpu time    2.0029: real time    2.0236
    CORREC:  cpu time    0.7981: real time    0.8058
    EDDIAG:  cpu time    0.4580: real time    0.4627
    CHARGE:  cpu time    0.2345: real time    0.2364
    --------------------------------------------
      LOOP:  cpu time    3.8320: real time    3.8703

 eigenvalue-minimisations  :     0
 total energy-change (2. order) :-0.6385089E-06  (-0.3194608E-06)
 number of electron     216.0000000 magnetization 
 augmentation part       -0.4739118 magnetization 

 Free energy of the ion-electron system (eV)
  ---------------------------------------------------
  alpha Z        PSCENC =        59.93625244
  Ewald energy   TEWEN  =     29907.56189182
  -Hartree energ DENC   =    -36981.70724563
  -exchange      EXHF   =         0.00000000
  -V(xc)+E(xc)   XCENC  =       446.19321144
  PAW double counting   =    126448.73044173  -126171.81115750
  entropy T*S    EENTRO =        -0.00000000
  eigenvalues    EBANDS =     -2540.09596091
  atomic energy  EATOM  =      8364.30921166
  ---------------------------------------------------
  free energy    TOTEN  =      -466.88335494 eV

  energy without entropy =     -466.88335494  energy(sigma->0) =     -466.88335494


--------------------------------------------------------------------------------------------------------


  average scaling for gradient   0.9483


 average (electrostatic) potential at core
  the test charge radii are     0.5770  0.5955
  (the norm of the test charge is              1.0000)
       1 -85.4315       2 -85.4309       3 -85.4316       4 -85.4322       5 -85.4302
       6 -85.4302       7 -85.4315       8 -85.4303       9 -85.4306      10 -85.4310
      11 -85.4301      12 -85.4302      13 -85.4310      14 -85.4306      15 -85.4300
      16 -85.4303      17 -85.4307      18 -85.4310      19 -85.4314      20 -85.4308
      21 -85.4300      22 -85.4299      23 -85.4326      24 -85.4326      25 -85.4299
      26 -85.4301      27 -85.4307      28 -85.4316      29 -85.4300      30 -85.4300
      31 -85.4319      32 -85.4313      33 -85.4303      34 -85.4302      35 -85.4303
      36 -85.4304      37 -85.4310      38 -85.4312      39 -85.4311      40 -85.4311
      41 -85.4311      42 -85.4312      43 -85.4308      44 -85.4314      45 -85.4300
      46 -85.4302      47 -85.4301      48 -85.4301      49 -85.4311      50 -85.4308
      51 -89.3897      52-120.0553      53-120.0546
 
 
 
 E-fermi :  -3.8150     XC(G=0):  -2.4432     alpha+bet : -2.1113

 Fermi energy:        -3.8149855239

 k-point     1 :       0.0000    0.0000    0.0000
  band No.  band energies     occupation 
      1     -27.3297      2.00000
      2     -26.3072      2.00000
      3     -21.9981      2.00000
      4     -21.0568      2.00000
      5     -21.0555      2.00000
      6     -21.0552      2.00000
      7     -21.0550      2.00000
      8     -21.0549      2.00000
      9     -21.0545      2.00000
     10     -19.2079      2.00000
     11     -19.2078      2.00000
     12     -19.2076      2.00000
     13     -19.2069      2.00000
     14     -19.2064      2.00000
     15     -19.2062      2.00000
     16     -18.3090      2.00000
     17     -18.3088      2.00000
     18     -18.3084      2.00000
     19     -18.3081      2.00000
     20     -18.3074      2.00000
     21     -18.3072      2.00000
     22     -16.1465      2.00000
     23     -16.1462      2.00000
     24     -16.1454      2.00000
     25     -16.1452      2.00000
     26     -16.1448      2.00000
     27     -16.1447      2.00000
     28     -15.1299      2.00000
     29     -15.1299      2.00000
     30     -15.1289      2.00000
     31     -15.1287      2.00000
     32     -15.1283      2.00000
     33     -15.1283      2.00000
     34     -13.7782      2.00000
     35     -13.7781      2.00000
     36     -13.7774      2.00000
     37     -13.7773      2.00000
     38     -13.7772      2.00000
     39     -13.7770      2.00000
     40     -12.1090      2.00000
     41     -11.3885      2.00000
     42     -11.3882      2.00000
     43     -11.3878      2.00000
     44     -11.3877      2.00000
     45     -11.3866      2.00000
     46     -11.3864      2.00000
     47     -11.2656      2.00000
     48     -11.2655      2.00000
     49     -11.2648      2.00000
     50     -11.2648      2.00000
     51     -11.2647      2.00000
     52     -11.2645      2.00000
     53     -10.8836      2.00000
     54     -10.8008      2.00000
     55     -10.8007      2.00000
     56     -10.0223      2.00000
     57      -9.8814      2.00000
     58      -9.8813      2.00000
     59      -9.8797      2.00000
     60      -9.8794      2.00000
     61      -9.8792      2.00000
     62      -9.8791      2.00000
     63      -8.9075      2.00000
     64      -8.9067      2.00000
     65      -8.9065      2.00000
     66      -8.9059      2.00000
     67      -8.9058      2.00000
     68      -8.9057      2.00000
     69      -8.5984      2.00000
     70      -8.5974      2.00000
     71      -8.5970      2.00000
     72      -8.5970      2.00000
     73      -8.5966      2.00000
     74      -8.5964      2.00000
     75      -8.5654      2.00000
     76      -8.5651      2.00000
     77      -8.5644      2.00000
     78      -8.5643      2.00000
     79      -8.5641      2.00000
     80      -8.5633      2.00000
     81      -7.2614      2.00000
     82      -7.2613      2.00000
     83      -6.9389      2.00000
     84      -6.9372      2.00000
     85      -6.9370      2.00000
     86      -6.9366      2.00000
     87      -6.9357      2.00000
     88      -6.9356      2.00000
     89      -6.7803      2.00000
     90      -6.7799      2.00000
     91      -6.7798      2.00000
     92      -6.7794      2.00000
     93      -6.7791      2.00000
     94      -6.7788      2.00000
     95      -5.8862      2.00000
     96      -5.8861      2.00000
     97      -5.8858      2.00000
     98      -5.8856      2.00000
     99      -5.8851      2.00000
    100      -5.8849      2.00000
    101      -5.4452      2.00000
    102      -5.4430      2.00000
    103      -3.9070      2.00000
    104      -3.9067      2.00000
    105      -3.9062      2.00000
    106      -3.9061      2.00000
    107      -3.9055      2.00000
    108      -3.9054      2.00000
    109      -1.0928      0.00000
    110      -1.0926      0.00000
    111      -1.0923      0.00000
    112      -1.0920      0.00000
    113      -1.0914      0.00000
    114      -1.0911      0.00000
    115       0.5873      0.00000
    116       0.7802      0.00000
    117       0.7805      0.00000
    118       0.7810      0.00000
    119       0.7810      0.00000
    120       0.7812      0.00000
    121       0.7827      0.00000
    122       0.8912      0.00000
    123       1.2529      0.00000
    124       1.2723      0.00000
    125       1.4883      0.00000
    126       1.9784      0.00000
    127       2.0203      0.00000
    128       2.0278      0.00000
    129       2.0676      0.00000
    130       2.0709      0.00000
    131       2.1342      0.00000
    132       2.5029      0.00000
    133       2.5149      0.00000
    134       2.5153      0.00000
    135       2.5161      0.00000
    136       2.5175      0.00000
    137       2.5178      0.00000
    138       2.6726      0.00000
    139       3.1429      0.00000
    140       3.5482      0.00000


--------------------------------------------------------------------------------------------------------


 soft charge-density along one line, spin component           1
         0         1         2         3         4         5         6         7         8         9
 total charge-density along one line
 
 pseudopotential strength for first ion, spin component:           1
 12.709  21.388   0.000   0.000   0.000   0.000   0.000   0.000
 21.388  35.991   0.000   0.000   0.000   0.000   0.000   0.000
  0.000   0.000  -3.095  -0.000   0.000  -5.547  -0.000   0.000
  0.000   0.000  -0.000  -3.096  -0.000  -0.000  -5.548  -0.000
  0.000   0.000   0.000  -0.000  -3.095   0.000  -0.000  -5.547
  0.000   0.000  -5.547  -0.000   0.000  -9.919  -0.000   0.000
  0.000   0.000  -0.000  -5.548  -0.000  -0.000  -9.921  -0.000
  0.000   0.000   0.000  -0.000  -5.547   0.000  -0.000  -9.919
 total augmentation occupancy for first ion, spin component:           1
  8.451  -3.031  -0.000  -0.002  -0.000   0.000   0.001   0.000
 -3.031   1.122   0.000   0.001   0.000  -0.000  -0.000  -0.000
 -0.000   0.000   7.733  -0.008   0.000  -2.679   0.003  -0.000
 -0.002   0.001  -0.008   3.531  -0.000   0.003  -0.988   0.000
 -0.000   0.000   0.000  -0.000   7.732  -0.000   0.000  -2.678
  0.000  -0.000  -2.679   0.003  -0.000   0.941  -0.001   0.000
  0.001  -0.000   0.003  -0.988   0.000  -0.001   0.282  -0.000
  0.000  -0.000  -0.000   0.000  -2.678   0.000  -0.000   0.941


------------------------ aborting loop because EDIFF is reached ----------------------------------------


    FORLOC:  cpu time    0.0505: real time    0.0512
    FORNL :  cpu time    0.7358: real time    0.7500
    FORCOR:  cpu time    0.2895: real time    0.2939
    OFIELD:  cpu time    0.0011: real time    0.0013

 ---------------------------------------------------------------------------------------------

         DFTD3 V3.0 Rev 1        
 IVDW         = 11
 DF revpbe    
 parameters
 VDW_S6       =    1.0000
 VDW_S8       =    1.0100
 VDW_SR       =    0.9230
 rs18     =    1.0000
 alpha6   =   14.0000
 alpha8   =   16.0000
 k1-k3    =   16.0000    1.3333   -4.0000
 VDW_RADIUS   =   50.2022 A
 VDW_CNRADIUS =   21.1671 A
 Edisp (eV)   -3.65970

 E6    (eV) :    -2.6051
 E8    (eV) :    -1.0546
 % E8        : 28.82
    FORVDW:  cpu time    0.1741: real time    0.1754

 VOLUME and BASIS-vectors are now :
 -----------------------------------------------------------------------------
  energy-cutoff  :     1000.00
  volume of cell :     2631.08
      direct lattice vectors                 reciprocal lattice vectors
    12.325000000  0.000000000  0.000000000     0.081135903  0.046843835  0.000000000
    -6.162500000 10.673763102  0.000000000     0.000000000  0.093687670  0.000000000
     0.000000000  0.000000000 20.000000000     0.000000000  0.000000000  0.050000000

  length of vectors
    12.325000000 12.325000000 20.000000000     0.093687670  0.093687670  0.050000000


 FORCES acting on ions:
    Electron-Ion                     Ewald-Force                    Non-Local-Force
 -----------------------------------------------------------------------------------------------
   0.114E+01 0.995E+00 0.101E+02   -.114E+01 -.996E+00 -.102E+02   0.483E-02 -.699E-03 0.609E-02
   0.157E+01 0.815E+00 0.114E+02   -.157E+01 -.812E+00 -.114E+02   0.355E-02 -.328E-02 -.567E-02
   0.635E+00 0.173E+01 0.116E+02   -.636E+00 -.173E+01 -.116E+02   -.889E-04 0.119E-01 -.944E-03
   0.797E+00 0.116E+01 0.143E+02   -.796E+00 -.115E+01 -.143E+02   0.118E-01 0.887E-03 -.147E-01
   0.124E+01 0.311E+00 0.106E+02   -.124E+01 -.312E+00 -.106E+02   -.311E-03 -.555E-02 0.345E-02
   0.126E+01 -.277E+00 0.107E+02   -.127E+01 0.278E+00 -.107E+02   -.631E-02 0.338E-02 -.270E-02
   0.154E+01 0.613E+00 0.141E+02   -.154E+01 -.614E+00 -.141E+02   0.122E-01 -.193E-01 -.621E-02
   0.154E+01 -.518E+00 0.153E+02   -.154E+01 0.521E+00 -.153E+02   -.667E-02 -.559E-02 -.554E-02
   -.767E+00 0.163E+01 0.120E+02   0.771E+00 -.164E+01 -.120E+02   -.349E-03 -.127E-01 -.488E-02
   -.103E+01 0.887E+00 0.145E+02   0.103E+01 -.888E+00 -.145E+02   -.263E-01 0.152E-01 0.252E-02
   0.326E+00 -.342E+00 0.967E+01   -.323E+00 0.342E+00 -.967E+01   0.374E-02 -.279E-02 0.202E-03
   0.311E+00 -.261E+00 0.940E+01   -.310E+00 0.261E+00 -.941E+01   -.691E-02 0.341E-02 0.620E-02
   0.515E+00 -.123E+01 0.162E+02   -.516E+00 0.123E+01 -.162E+02   0.270E-01 -.790E-02 -.203E-02
   0.320E+00 -.180E+01 0.131E+02   -.325E+00 0.181E+01 -.131E+02   0.406E-02 0.647E-02 -.159E-01
   -.115E+01 0.694E+00 0.101E+02   0.115E+01 -.695E+00 -.101E+02   0.735E-02 -.389E-02 0.752E-02
   -.148E+01 0.425E+00 0.105E+02   0.148E+01 -.426E+00 -.105E+02   -.194E-02 0.542E-02 -.478E-02
   -.212E+00 -.849E-01 0.898E+01   0.216E+00 0.830E-01 -.898E+01   -.353E-03 0.412E-03 0.205E-02
   0.942E-01 0.725E+00 0.913E+01   -.934E-01 -.726E+00 -.914E+01   -.299E-02 0.163E-02 0.926E-02
   -.295E+00 -.174E+01 0.115E+02   0.295E+00 0.174E+01 -.115E+02   0.615E-02 -.185E-02 0.354E-03
   -.174E+00 -.106E+01 0.988E+01   0.171E+00 0.106E+01 -.988E+01   0.122E-03 -.114E-02 -.683E-03
   0.161E+01 -.697E+00 0.123E+02   -.161E+01 0.698E+00 -.123E+02   -.143E-02 -.245E-02 -.164E-01
   0.114E+01 -.920E+00 0.112E+02   -.115E+01 0.921E+00 -.112E+02   -.677E-02 0.527E-02 -.192E-02
   -.277E+00 0.495E+00 0.163E+02   0.274E+00 -.494E+00 -.163E+02   -.103E-01 0.106E-01 0.110E-02
   -.386E+00 -.784E+00 0.163E+02   0.388E+00 0.783E+00 -.162E+02   0.121E-01 -.149E-01 -.104E-01
   0.625E+00 -.228E+00 0.975E+01   -.623E+00 0.227E+00 -.975E+01   0.364E-02 -.265E-02 -.304E-02
   0.173E+00 0.538E+00 0.962E+01   -.173E+00 -.538E+00 -.963E+01   -.524E-02 0.348E-02 0.579E-02
   -.178E+01 0.204E+00 0.125E+02   0.178E+01 -.207E+00 -.125E+02   0.116E-01 0.800E-02 -.221E-02
   -.167E+01 -.679E+00 0.119E+02   0.168E+01 0.679E+00 -.119E+02   -.888E-02 0.910E-02 0.713E-03
   0.638E+00 -.131E+01 0.114E+02   -.638E+00 0.131E+01 -.114E+02   0.459E-02 0.209E-02 -.658E-02
   0.558E-01 -.577E+00 0.101E+02   -.582E-01 0.579E+00 -.101E+02   -.478E-02 0.233E-02 -.204E-02
   -.119E+01 -.121E+01 0.131E+02   0.119E+01 0.121E+01 -.131E+02   -.120E-01 -.821E-02 -.129E-01
   -.873E+00 -.165E+01 0.114E+02   0.874E+00 0.165E+01 -.114E+02   0.568E-03 -.116E-02 0.196E-02
   0.730E-01 0.353E+00 0.929E+01   -.732E-01 -.353E+00 -.929E+01   0.515E-02 -.471E-02 0.728E-02
   0.207E+00 0.321E+00 0.954E+01   -.210E+00 -.320E+00 -.954E+01   -.227E-02 0.465E-02 -.953E-03
   -.783E+00 0.144E+00 0.979E+01   0.786E+00 -.145E+00 -.979E+01   0.405E-02 -.244E-02 0.617E-02
   -.694E+00 -.317E+00 0.970E+01   0.694E+00 0.317E+00 -.970E+01   -.408E-02 0.240E-02 0.395E-02
   -.131E+01 -.706E+00 0.101E+02   0.132E+01 0.704E+00 -.101E+02   -.115E-02 0.992E-03 0.337E-02
   -.873E+00 -.698E+00 0.951E+01   0.874E+00 0.699E+00 -.952E+01   -.399E-02 0.126E-02 0.899E-02
   -.792E+00 -.100E+01 0.978E+01   0.793E+00 0.101E+01 -.978E+01   -.298E-02 0.151E-03 0.465E-02
   -.118E+00 -.278E+00 0.926E+01   0.119E+00 0.278E+00 -.926E+01   0.184E-02 0.620E-03 0.727E-02
   0.300E+00 0.752E+00 0.927E+01   -.301E+00 -.753E+00 -.927E+01   -.397E-02 0.174E-02 0.679E-02
   0.904E+00 0.138E+01 0.102E+02   -.903E+00 -.138E+01 -.102E+02   -.655E-03 -.776E-03 0.747E-02
   0.994E-01 0.124E+01 0.957E+01   -.959E-01 -.124E+01 -.958E+01   -.331E-03 0.888E-03 0.223E-02
   -.903E-02 0.180E+01 0.111E+02   0.102E-01 -.180E+01 -.111E+02   -.815E-02 0.196E-02 0.516E-02
   -.239E+00 0.444E+00 0.985E+01   0.241E+00 -.446E+00 -.985E+01   0.410E-02 -.295E-02 0.164E-02
   -.865E+00 0.108E+01 0.105E+02   0.866E+00 -.108E+01 -.105E+02   -.630E-02 0.356E-03 -.117E-02
   -.242E+00 -.547E+00 0.974E+01   0.242E+00 0.547E+00 -.974E+01   0.630E-02 -.138E-02 0.612E-02
   -.495E+00 0.175E+00 0.930E+01   0.494E+00 -.174E+00 -.930E+01   -.362E-02 0.325E-02 -.279E-02
   0.502E-01 -.337E+00 0.930E+01   -.506E-01 0.337E+00 -.930E+01   0.428E-02 -.316E-02 0.570E-02
   0.537E+00 0.383E+00 0.928E+01   -.539E+00 -.381E+00 -.928E+01   -.119E-03 0.168E-02 0.327E-02
   0.740E-04 0.247E-01 -.138E+03   -.413E-02 -.210E-01 0.138E+03   -.294E-02 0.190E-02 -.322E-02
   -.229E+03 0.156E+03 -.218E+03   0.279E+03 -.190E+03 0.221E+03   -.510E+02 0.347E+02 -.342E+01
   0.229E+03 -.156E+03 -.198E+03   -.279E+03 0.190E+03 0.195E+03   0.510E+02 -.347E+02 0.308E+01
 -----------------------------------------------------------------------------------------------
   -.686E-02 0.135E-01 0.342E+00   0.568E-13 0.284E-13 0.853E-13   0.709E-02 -.137E-01 -.341E+00
 
 
 POSITION                                       TOTAL-FORCE (eV/Angst)
 -----------------------------------------------------------------------------------
     11.98348      0.00342      0.01417         0.003236     -0.001653     -0.000699
     -0.34154      1.42665      0.01100        -0.000653     -0.000143     -0.003201
      2.12355      0.00315      0.01249        -0.001685      0.010896     -0.005927
      2.12326      1.42653      0.00641         0.013489      0.001324     -0.008496
     10.75099      2.13819      0.01213         0.000297     -0.005721      0.000023
     -1.57382      3.56123      0.01110        -0.009033      0.004813     -0.001329
      0.89078      2.13854      0.00548         0.009705     -0.019268      0.001915
      0.89099      3.56147      0.00181        -0.011984     -0.002503      0.010534
      4.58864      0.00346      0.01135         0.003635     -0.016073     -0.003410
      4.58894      1.42623      0.00646        -0.023911      0.013494      0.013006
      9.51854      4.27281      0.01369         0.006632     -0.003133      0.000362
     -2.80632      5.69591      0.01434        -0.006582      0.003415      0.000886
      2.12300      4.27302      0.00000         0.025404     -0.005108      0.018770
      2.12335      5.69594      0.00581        -0.000496      0.009305     -0.003002
      7.05344      0.00333      0.01399         0.009455     -0.005343     -0.000191
      7.05353      1.42635      0.01368        -0.001647      0.005006     -0.003487
      8.28610      6.40752      0.01601         0.002977     -0.001480     -0.000538
     -4.03885      7.83070      0.01636        -0.002211      0.000861      0.000200
      3.35586      6.40753      0.01007         0.005528      0.000522     -0.001187
      3.35599      7.83072      0.01320        -0.003208      0.000047     -0.000490
     -0.34146      4.27290      0.00723        -0.001973     -0.001457     -0.004690
     -0.34138      5.69591      0.00946        -0.009281      0.006603     -0.001122
      3.35624      2.13791      0.00222        -0.013703      0.012114      0.014608
      3.35573      3.56155      0.00139         0.013719     -0.016113      0.007223
     -1.57395      6.40758      0.01311         0.005450     -0.003995     -0.000439
     -1.57385      7.83068      0.01438        -0.004862      0.003786      0.000246
      5.82093      2.13784      0.01033         0.016232      0.005303     -0.002940
      5.82114      3.56097      0.01156        -0.006427      0.008591     -0.003371
      0.89092      6.40755      0.00907         0.004556      0.002378     -0.002270
      0.89106      7.83068      0.01235        -0.006921      0.003916      0.000497
      4.58871      4.27293      0.00850        -0.013075     -0.006659     -0.010644
      4.58852      5.69606      0.01149         0.001920     -0.001102     -0.003688
      9.51845      0.00337      0.01490         0.004768     -0.004708      0.000347
      9.51855      1.42644      0.01438        -0.005168      0.005506     -0.000098
      8.28593      2.13803      0.01453         0.006772     -0.003430      0.000836
      8.28613      3.56115      0.01464        -0.004341      0.002223      0.000192
      7.05356      4.27269      0.01457         0.002668     -0.001086     -0.000310
      7.05362      5.69588      0.01553        -0.002486      0.001558      0.000205
      5.82112      6.40755      0.01489        -0.002937      0.001585      0.000244
      5.82102      7.83073      0.01579         0.002701      0.000317     -0.000048
      7.05363      8.54227      0.01631        -0.004673      0.001233      0.001360
     -5.27149      9.96549      0.01495         0.000068     -0.002006     -0.001733
     -2.80638      8.54234      0.01558         0.003175     -0.001404     -0.000824
     -2.80627      9.96553      0.01362        -0.006824     -0.000096     -0.003410
     -0.34149      8.54239      0.01378         0.005854     -0.004926      0.000454
     -0.34138      9.96550      0.01354        -0.005936     -0.000132     -0.001032
      2.12343      8.54232      0.01336         0.005885     -0.001544      0.000851
      2.12354      9.96544      0.01469        -0.005221      0.003860     -0.001641
      4.58846      8.54235      0.01505         0.003710     -0.002813      0.001199
      4.58853      9.96550      0.01517        -0.002824      0.003380      0.000372
      3.04930      2.68154      7.49154        -0.006839      0.005543      0.031346
      4.02070      2.02068      7.55596        -0.250443      0.169956     -0.033786
      2.07767      3.34267      7.43208         0.257508     -0.175641     -0.001674
 -----------------------------------------------------------------------------------
    total drift:                                0.000227     -0.000140      0.001198


--------------------------------------------------------------------------------------------------------



  FREE ENERGIE OF THE ION-ELECTRON SYSTEM (eV)
  ---------------------------------------------------
  free  energy   TOTEN  =      -470.54305794 eV

  energy  without entropy=     -470.54305794  energy(sigma->0) =     -470.54305794
 


--------------------------------------------------------------------------------------------------------


    POTLOK:  cpu time    0.2829: real time    0.2851


--------------------------------------------------------------------------------------------------------


     LOOP+:  cpu time  108.7921: real time  110.5211
    4ORBIT:  cpu time    0.0000: real time    0.0000

 total amount of memory used by VASP MPI-rank0   175916. kBytes
=======================================================================

   base      :      30000. kBytes
   nonl-proj :      46129. kBytes
   fftplans  :      35778. kBytes
   grid      :      52596. kBytes
   one-center:         43. kBytes
   wavefun   :      11370. kBytes
 
  
  
 General timing and accounting informations for this job:
 ========================================================
  
                  Total CPU time used (sec):      143.603
                            User time (sec):      131.095
                          System time (sec):       12.508
                         Elapsed time (sec):      147.016
  
                   Maximum memory used (kb):      512044.
                   Average memory used (kb):          N/A
  
                          Minor page faults:        51950
                          Major page faults:           69
                 Voluntary context switches:         3443
