 vasp.6.2.1 16May21 (build Nov 06 2021 14:46:37) complex                        
  
 executed on             LinuxIFC date 2025.03.03  17:28:19
 running on  112 total cores
 distrk:  each k-point on  112 cores,    1 groups
 distr:  one band on NCORE=   4 cores,   28 groups


--------------------------------------------------------------------------------------------------------


 INCAR:
   ALGO = Conjugate
   NCORE = 4
   ISMEAR = 0
   SIGMA = 0.01
   PREC = Accurate
   EDIFF = 1E-6
   ENCUT = 1000
   ISIF = 0
   GGA = RE
   IVDW = 11
   LWAVE = .FALSE.
   LCHARGE = .FALSE.
   SYMPREC = 1E-6

 POTCAR:    PAW_PBE C_h 06Feb2004                 
 POTCAR:    PAW_PBE O_h 06Feb2004                 
 -----------------------------------------------------------------------------
|                                                                             |
|           W    W    AA    RRRRR   N    N  II  N    N   GGGG   !!!           |
|           W    W   A  A   R    R  NN   N  II  NN   N  G    G  !!!           |
|           W    W  A    A  R    R  N N  N  II  N N  N  G       !!!           |
|           W WW W  AAAAAA  RRRRR   N  N N  II  N  N N  G  GGG   !            |
|           WW  WW  A    A  R   R   N   NN  II  N   NN  G    G                |
|           W    W  A    A  R    R  N    N  II  N    N   GGGG   !!!           |
|                                                                             |
|     For optimal performance we recommend to set                             |
|       NCORE = 2 up to number-of-cores-per-socket                            |
|     NCORE specifies how many cores store one orbital (NPAR=cpu/NCORE).      |
|     This setting can greatly improve the performance of VASP for DFT.       |
|     The default, NCORE=1 might be grossly inefficient on modern             |
|     multi-core architectures or massively parallel machines. Do your        |
|     own testing! More info at https://www.vasp.at/wiki/index.php/NCORE      |
|     Unfortunately you need to use the default for GW and RPA                |
|     calculations (for HF NCORE is supported but not extensively tested      |
|     yet).                                                                   |
|                                                                             |
 -----------------------------------------------------------------------------

 POTCAR:    PAW_PBE C_h 06Feb2004                 
   VRHFIN =C: s2p2                                                                                  
   LEXCH  = PE                                                                                      
   EATOM  =   147.1560 eV,   10.8157 Ry                                                             
                                                                                                    
   TITEL  = PAW_PBE C_h 06Feb2004                                                                   
   LULTRA =        F    use ultrasoft PP ?                                                          
   IUNSCR =        1    unscreen: 0-lin 1-nonlin 2-no                                               
   RPACOR =    0.800    partial core radius                                                         
   POMASS =   12.011; ZVAL   =    4.000    mass and valenz                                          
   RCORE  =    1.100    outmost cutoff radius                                                       
   RWIGS  =    1.630; RWIGS  =    0.863    wigner-seitz radius (au A)                               
   ENMAX  =  700.000; ENMIN  =  500.000 eV                                                          
   ICORE  =        2    local potential                                                             
   LCOR   =        T    correct aug charges                                                         
   LPAW   =        T    paw PP                                                                      
   EAUG   =  946.768                                                                                
   DEXC   =    0.000                                                                                
   RMAX   =    1.128    core radius for proj-oper                                                   
   RAUG   =    1.300    factor for augmentation sphere                                              
   RDEP   =    1.162    radius for radial grids                                                     
   RDEPT  =    1.088    core radius for aug-charge                                                  
                                                                                                    
   Atomic configuration                                                                             
    4 entries                                                                                       
     n  l   j            E        occ.                                                              
     1  0  0.50      -273.3789   2.0000                                                             
     2  0  0.50       -13.7508   2.0000                                                             
     2  1  0.50        -5.2854   2.0000                                                             
     3  2  1.50        -5.4423   0.0000                                                             
   Description                                                                                      
     l       E           TYP  RCUT    TYP  RCUT                                                     
     0    -13.7508458     23  1.100                                                                 
     0     -8.2022199     23  1.100                                                                 
     1     -5.2854383     23  1.100                                                                 
     1      1.1560700     23  1.100                                                                 
     2     -5.4423304      7  1.100                                                                 
  local pseudopotential read in
  partial core-charges read in
  partial kinetic energy density read in
  atomic valenz-charges read in
  non local Contribution for L=           0  read in
    real space projection operators read in
  non local Contribution for L=           0  read in
    real space projection operators read in
  non local Contribution for L=           1  read in
    real space projection operators read in
  non local Contribution for L=           1  read in
    real space projection operators read in
    PAW grid and wavefunctions read in
 
   number of l-projection  operators is LMAX  =           4
   number of lm-projection operators is LMMAX =           8
 
 POTCAR:    PAW_PBE O_h 06Feb2004                 
   VRHFIN =O: s2p4                                                                                  
   LEXCH  = PE                                                                                      
   EATOM  =   432.3788 eV,   31.7789 Ry                                                             
                                                                                                    
   TITEL  = PAW_PBE O_h 06Feb2004                                                                   
   LULTRA =        F    use ultrasoft PP ?                                                          
   IUNSCR =        1    unscreen: 0-lin 1-nonlin 2-no                                               
   RPACOR =    0.800    partial core radius                                                         
   POMASS =   16.000; ZVAL   =    6.000    mass and valenz                                          
   RCORE  =    1.100    outmost cutoff radius                                                       
   RWIGS  =    1.400; RWIGS  =    0.741    wigner-seitz radius (au A)                               
   ENMAX  =  700.000; ENMIN  =  500.000 eV                                                          
   ICORE  =        2    local potential                                                             
   LCOR   =        T    correct aug charges                                                         
   LPAW   =        T    paw PP                                                                      
   EAUG   =  888.804                                                                                
   DEXC   =    0.000                                                                                
   RMAX   =    1.128    core radius for proj-oper                                                   
   RAUG   =    1.300    factor for augmentation sphere                                              
   RDEP   =    1.125    radius for radial grids                                                     
   RDEPT  =    1.088    core radius for aug-charge                                                  
                                                                                                    
   Atomic configuration                                                                             
    4 entries                                                                                       
     n  l   j            E        occ.                                                              
     1  0  0.50      -514.6923   2.0000                                                             
     2  0  0.50       -23.9615   2.0000                                                             
     2  1  0.50        -9.0305   4.0000                                                             
     3  2  1.50        -9.5241   0.0000                                                             
   Description                                                                                      
     l       E           TYP  RCUT    TYP  RCUT                                                     
     0    -23.9615319     23  1.100                                                                 
     0    -25.3221145     23  1.100                                                                 
     1     -9.0304911     23  1.100                                                                 
     1     -5.4802209     23  1.100                                                                 
     2     -9.5240782      7  1.100                                                                 
  local pseudopotential read in
  partial core-charges read in
  partial kinetic energy density read in
  atomic valenz-charges read in
  non local Contribution for L=           0  read in
    real space projection operators read in
  non local Contribution for L=           0  read in
    real space projection operators read in
  non local Contribution for L=           1  read in
    real space projection operators read in
  non local Contribution for L=           1  read in
    real space projection operators read in
    PAW grid and wavefunctions read in
 
   number of l-projection  operators is LMAX  =           4
   number of lm-projection operators is LMMAX =           8
 
 -----------------------------------------------------------------------------
|                                                                             |
|               ----> ADVICE to this user running VASP <----                  |
|                                                                             |
|     You have a (more or less) 'large supercell' and for larger cells it     |
|     might be more efficient to use real-space projection operators.         |
|     Therefore, try LREAL= Auto in the INCAR file.                           |
|     Mind: For very accurate calculation, you might also keep the            |
|     reciprocal projection scheme (i.e. LREAL=.FALSE.).                      |
|                                                                             |
 -----------------------------------------------------------------------------

 -----------------------------------------------------------------------------
|                                                                             |
|               ----> ADVICE to this user running VASP <----                  |
|                                                                             |
|     You enforced a specific xc type in the INCAR file but a different       |
|     type was found in the POTCAR file.                                      |
|     I HOPE YOU KNOW WHAT YOU ARE DOING!                                     |
|                                                                             |
 -----------------------------------------------------------------------------

  PAW_PBE C_h 06Feb2004                 :
 energy of atom  1       EATOM= -147.1560
 kinetic energy error for atom=    0.0031 (will be added to EATOM!!)
  PAW_PBE O_h 06Feb2004                 :
 energy of atom  2       EATOM= -432.3788
 kinetic energy error for atom=    0.0171 (will be added to EATOM!!)
 
 
 POSCAR:  C  O
  positions in cartesian coordinates
  No initial velocities read in
 exchange correlation table for  LEXCH =       40
   RHO(1)=    0.500       N(1)  =     2000
   RHO(2)=  100.500       N(2)  =     4000
 


--------------------------------------------------------------------------------------------------------


 ion  position               nearest neighbor table
   1  0.972  0.000  0.001-  50 1.42   2 1.42  42 1.42
   2  0.039  0.134  0.001-   5 1.42   7 1.42   1 1.42
   3  0.172  0.000  0.001-  42 1.42  44 1.42   4 1.42
   4  0.239  0.134  0.000-   7 1.42   3 1.42  23 1.42
   5  0.972  0.200  0.001-   6 1.42   2 1.42  34 1.42
   6  0.039  0.334  0.001-   5 1.42  21 1.42  11 1.42
   7  0.172  0.200  0.000-   8 1.42   2 1.42   4 1.42
   8  0.239  0.334  0.000-  13 1.42   7 1.42  21 1.42
   9  0.372  0.000  0.001-  10 1.42  44 1.42  46 1.42
  10  0.439  0.134  0.000-  27 1.42   9 1.42  23 1.42
  11  0.972  0.400  0.001-  12 1.42  36 1.42   6 1.42
  12  0.039  0.534  0.001-  25 1.42  11 1.42  17 1.42
  13  0.372  0.400  0.000-   8 1.42  14 1.42  24 1.42
  14  0.439  0.534  0.000-  13 1.42  29 1.42  19 1.42
  15  0.572  0.000  0.001-  46 1.42  16 1.42  48 1.42
  16  0.639  0.134  0.001-  15 1.42  35 1.42  27 1.42
  17  0.972  0.600  0.001-  38 1.42  18 1.42  12 1.42
  18  0.039  0.734  0.001-  43 1.42  41 1.42  17 1.42
  19  0.572  0.600  0.001-  14 1.42  20 1.42  32 1.42
  20  0.639  0.734  0.001-  49 1.42  19 1.42  47 1.42
  21  0.172  0.400  0.000-  22 1.42   8 1.42   6 1.42
  22  0.239  0.534  0.000-  21 1.42  29 1.42  25 1.42
  23  0.372  0.200  0.000-  10 1.42   4 1.42  24 1.42
  24  0.439  0.334  0.000-  13 1.42  31 1.42  23 1.42
  25  0.172  0.600  0.001-  26 1.42  12 1.42  22 1.42
  26  0.239  0.734  0.001-  25 1.42  45 1.42  43 1.42
  27  0.572  0.200  0.001-  10 1.42  28 1.42  16 1.42
  28  0.639  0.334  0.001-  27 1.42  37 1.42  31 1.42
  29  0.372  0.600  0.000-  22 1.42  14 1.42  30 1.42
  30  0.439  0.734  0.001-  47 1.42  29 1.42  45 1.42
  31  0.572  0.400  0.000-  32 1.42  28 1.42  24 1.42
  32  0.639  0.534  0.001-  31 1.42  39 1.42  19 1.42
  33  0.772  0.000  0.001-  34 1.42  48 1.42  50 1.42
  34  0.839  0.134  0.001-  33 1.42   5 1.42  35 1.42
  35  0.772  0.200  0.001-  36 1.42  16 1.42  34 1.42
  36  0.839  0.334  0.001-  35 1.42  11 1.42  37 1.42
  37  0.772  0.400  0.001-  28 1.42  38 1.42  36 1.42
  38  0.839  0.534  0.001-  17 1.42  37 1.42  39 1.42
  39  0.772  0.600  0.001-  40 1.42  38 1.42  32 1.42
  40  0.839  0.734  0.001-  39 1.42  49 1.42  41 1.42
  41  0.972  0.800  0.001-  18 1.42  42 1.42  40 1.42
  42  0.039  0.934  0.001-   3 1.42  41 1.42   1 1.42
  43  0.172  0.800  0.001-  18 1.42  44 1.42  26 1.42
  44  0.239  0.934  0.001-   9 1.42  43 1.42   3 1.42
  45  0.372  0.800  0.001-  26 1.42  46 1.42  30 1.42
  46  0.439  0.934  0.001-  15 1.42  45 1.42   9 1.42
  47  0.572  0.800  0.001-  30 1.42  48 1.42  20 1.42
  48  0.639  0.934  0.001-  47 1.42  33 1.42  15 1.42
  49  0.772  0.800  0.001-  50 1.42  20 1.42  40 1.42
  50  0.839  0.934  0.001-  49 1.42   1 1.42  33 1.42
  51  0.373  0.251  0.198-  52 1.18  53 1.18
  52  0.421  0.189  0.202-  51 1.18
  53  0.325  0.313  0.195-  51 1.18
 
  LATTYP: Found a hexagonal cell.
 ALAT       =    12.3250000000
 C/A-ratio  =     1.6227180527
  
  Lattice vectors:
  
 A1 = (  12.3250000000,   0.0000000000,   0.0000000000)
 A2 = (  -6.1625000000,  10.6737631016,   0.0000000000)
 A3 = (   0.0000000000,   0.0000000000,  20.0000000000)


Analysis of symmetry for initial positions (statically):
=====================================================================
 Subroutine PRICEL returns:
 Original cell was already a primitive cell.
 

 Routine SETGRP: Setting up the symmetry group for a 
 hexagonal supercell.


 Subroutine GETGRP returns: Found  1 space group operations
 (whereof  1 operations were pure point group operations)
 out of a pool of 24 trial point group operations.


The static configuration has the point symmetry C_1 .


Analysis of symmetry for dynamics (positions and initial velocities):
=====================================================================
 Subroutine PRICEL returns:
 Original cell was already a primitive cell.
 

 Routine SETGRP: Setting up the symmetry group for a 
 hexagonal supercell.


 Subroutine GETGRP returns: Found  1 space group operations
 (whereof  1 operations were pure point group operations)
 out of a pool of 24 trial point group operations.


The dynamic configuration has the point symmetry C_1 .


 Subroutine INISYM returns: Found  1 space group operations
 (whereof  1 operations are pure point group operations),
 and found     1 'primitive' translations


----------------------------------------------------------------------------------------

                                     Primitive cell                                     

  volume of cell :    2631.0826

  direct lattice vectors                    reciprocal lattice vectors
    12.325000000  0.000000000  0.000000000     0.081135903  0.046843835  0.000000000
    -6.162500000 10.673763102  0.000000000     0.000000000  0.093687670  0.000000000
     0.000000000  0.000000000 20.000000000     0.000000000  0.000000000  0.050000000

  length of vectors
    12.325000000 12.325000000 20.000000000     0.093687670  0.093687670  0.050000000

  position of ions in fractional coordinates (direct lattice)
     0.972450841  0.000320818  0.000708389
     0.039118382  0.133659505  0.000550216
     0.172443627  0.000295449  0.000624535
     0.239096278  0.133647917  0.000320585
     0.972452058  0.200322012  0.000606523
     0.039128360  0.333643771  0.000555187
     0.172451764  0.200354552  0.000273959
     0.239124359  0.333665720  0.000090325
     0.372465565  0.000324403  0.000567391
     0.439137473  0.133619939  0.000322923
     0.972449824  0.400309362  0.000684513
     0.039124981  0.533636789  0.000716763
     0.372416176  0.400329481  0.000000000
     0.439099602  0.533638981  0.000290518
     0.572443676  0.000312125  0.000699475
     0.639110207  0.133631751  0.000684093
     0.972452703  0.600305653  0.000800361
     0.039124495  0.733640359  0.000818141
     0.572433471  0.600306242  0.000503618
     0.639111888  0.733641879  0.000659881
     0.172454630  0.400318228  0.000361306
     0.239120185  0.533636548  0.000473136
     0.372459750  0.200295993  0.000111246
     0.439107096  0.333673419  0.000069702
     0.172452155  0.600311506  0.000655425
     0.239123371  0.733638574  0.000718912
     0.572431082  0.200289171  0.000516621
     0.639112773  0.333618630  0.000577970
     0.372439808  0.600308022  0.000453556
     0.439116090  0.733637858  0.000617737
     0.572469358  0.400320504  0.000424897
     0.639119408  0.533650873  0.000574513
     0.772445723  0.000315427  0.000745201
     0.839116277  0.133640203  0.000719132
     0.772440513  0.200307432  0.000726291
     0.839120241  0.333635728  0.000731834
     0.772446320  0.400298367  0.000728722
     0.839118980  0.533633964  0.000776376
     0.772456143  0.600308173  0.000744639
     0.839115033  0.733643180  0.000789390
     0.972455313  0.800305582  0.000815291
     0.039114714  0.933643289  0.000747563
     0.172457971  0.800312211  0.000779216
     0.239134551  0.933647193  0.000681063
     0.372451396  0.800316674  0.000689249
     0.439124489  0.933644769  0.000676788
     0.572441101  0.800310054  0.000668168
     0.639115067  0.933638985  0.000734556
     0.772445098  0.800313187  0.000752577
     0.839116614  0.933644338  0.000758538
     0.373021009  0.251226878  0.198425132
     0.420879805  0.189313152  0.201646225
     0.325156981  0.313167186  0.195452388

  ion indices of the primitive-cell ions
   primitive index   ion index
                 1           1
                 2           2
                 3           3
                 4           4
                 5           5
                 6           6
                 7           7
                 8           8
                 9           9
                10          10
                11          11
                12          12
                13          13
                14          14
                15          15
                16          16
                17          17
                18          18
                19          19
                20          20
                21          21
                22          22
                23          23
                24          24
                25          25
                26          26
                27          27
                28          28
                29          29
                30          30
                31          31
                32          32
                33          33
                34          34
                35          35
                36          36
                37          37
                38          38
                39          39
                40          40
                41          41
                42          42
                43          43
                44          44
                45          45
                46          46
                47          47
                48          48
                49          49
                50          50
                51          51
                52          52
                53          53

----------------------------------------------------------------------------------------

 
 
 KPOINTS: auto                                    

Automatic generation of k-mesh.
 Grid dimensions read from file:
 generate k-points for:    1    1    1

 Generating k-lattice:

  Cartesian coordinates                     Fractional coordinates (reciprocal lattice)
     0.081135903  0.046843835  0.000000000     1.000000000 -0.000000000  0.000000000
     0.000000000  0.093687670  0.000000000     0.000000000  1.000000000  0.000000000
     0.000000000  0.000000000  0.050000000     0.000000000  0.000000000  1.000000000

  Length of vectors
     0.093687670  0.093687670  0.050000000

  Shift w.r.t. Gamma in fractional coordinates (k-lattice)
     0.000000000  0.000000000  0.000000000

 
 Subroutine IBZKPT returns following result:
 ===========================================
 
 Found      1 irreducible k-points:
 
 Following reciprocal coordinates:
            Coordinates               Weight
  0.000000  0.000000  0.000000      1.000000
 
 Following cartesian coordinates:
            Coordinates               Weight
  0.000000  0.000000  0.000000      1.000000
 


--------------------------------------------------------------------------------------------------------




 Dimension of arrays:
   k-points           NKPTS =      1   k-points in BZ     NKDIM =      1   number of bands    NBANDS=    140
   number of dos      NEDOS =    301   number of ions     NIONS =     53
   non local maximal  LDIM  =      4   non local SUM 2l+1 LMDIM =      8
   total plane-waves  NPLWV = ******
   max r-space proj   IRMAX =      1   max aug-charges    IRDMAX=   9736
   dimension x,y,z NGX =   128 NGY =  128 NGZ =  210
   dimension x,y,z NGXF=   256 NGYF=  256 NGZF=  420
   support grid    NGXF=   256 NGYF=  256 NGZF=  420
   ions per type =              51   2
   NGX,Y,Z   is equivalent  to a cutoff of  17.27, 17.27, 17.46 a.u.
   NGXF,Y,Z  is equivalent  to a cutoff of  34.53, 34.53, 34.91 a.u.

 SYSTEM =  unknown system                          
 POSCAR =   C  O                                   

 Startparameter for this run:
   NWRITE =      2    write-flag & timer
   PREC   = accura    normal or accurate (medium, high low for compatibility)
   ISTART =      0    job   : 0-new  1-cont  2-samecut
   ICHARG =      2    charge: 1-file 2-atom 10-const
   ISPIN  =      1    spin polarized calculation?
   LNONCOLLINEAR =      F non collinear calculations
   LSORBIT =      F    spin-orbit coupling
   INIWAV =      1    electr: 0-lowe 1-rand  2-diag
   LASPH  =      F    aspherical Exc in radial PAW
 Electronic Relaxation 1
   ENCUT  = 1000.0 eV  73.50 Ry    8.57 a.u.  31.78 31.78 51.57*2*pi/ulx,y,z
   ENINI  = 1000.0     initial cutoff
   ENAUG  =  946.8 eV  augmentation charge cutoff
   NELM   =     60;   NELMIN=  2; NELMDL= -5     # of ELM steps 
   EDIFF  = 0.1E-05   stopping-criterion for ELM
   LREAL  =      F    real-space projection
   NLSPLINE    = F    spline interpolate recip. space projectors
   LCOMPAT=      F    compatible to vasp.4.4
   GGA_COMPAT  = T    GGA compatible to vasp.4.4-vasp.4.6
   LMAXPAW     = -100 max onsite density
   LMAXMIX     =    2 max onsite mixed and CHGCAR
   VOSKOWN=      0    Vosko Wilk Nusair interpolation
   ROPT   =    0.00000   0.00000
 Ionic relaxation
   EDIFFG = 0.1E-04   stopping-criterion for IOM
   NSW    =      0    number of steps for IOM
   NBLOCK =      1;   KBLOCK =      1    inner block; outer block 
   IBRION =     -1    ionic relax: 0-MD 1-quasi-New 2-CG
   NFREE  =      0    steps in history (QN), initial steepest desc. (CG)
   ISIF   =      0    stress and relaxation
   IWAVPR =     10    prediction:  0-non 1-charg 2-wave 3-comb
   ISYM   =      2    0-nonsym 1-usesym 2-fastsym
   LCORR  =      T    Harris-Foulkes like correction to forces

   POTIM  = 0.5000    time-step for ionic-motion
   TEIN   =    0.0    initial temperature
   TEBEG  =    0.0;   TEEND  =   0.0 temperature during run
   SMASS  =  -3.00    Nose mass-parameter (am)
   estimated Nose-frequenzy (Omega)   =  0.10E-29 period in steps = 0.13E+47 mass=  -0.347E-26a.u.
   SCALEE = 1.0000    scale energy and forces
   NPACO  =    256;   APACO  = 16.0  distance and # of slots for P.C.
   PSTRESS=    0.0 pullay stress

  Mass of Ions in am
   POMASS =  12.01 16.00
  Ionic Valenz
   ZVAL   =   4.00  6.00
  Atomic Wigner-Seitz radii
   RWIGS  =  -1.00 -1.00
  virtual crystal weights 
   VCA    =   1.00  1.00
   NELECT =     216.0000    total number of electrons
   NUPDOWN=      -1.0000    fix difference up-down

 DOS related values:
   EMIN   =  10.00;   EMAX   =-10.00  energy-range for DOS
   EFERMI =   0.00
   ISMEAR =     0;   SIGMA  =   0.01  broadening in eV -4-tet -1-fermi 0-gaus

 Electronic relaxation 2 (details)
   IALGO  =     58    algorithm
   LDIAG  =      T    sub-space diagonalisation (order eigenvalues)
   LSUBROT=      F    optimize rotation matrix (better conditioning)
   TURBO    =      0    0=normal 1=particle mesh
   IRESTART =      0    0=no restart 2=restart with 2 vectors
   NREBOOT  =      0    no. of reboots
   NMIN     =      0    reboot dimension
   EREF     =   0.00    reference energy to select bands
   IMIX   =      4    mixing-type and parameters
     AMIX     =   0.40;   BMIX     =  1.00
     AMIX_MAG =   1.60;   BMIX_MAG =  1.00
     AMIN     =   0.10
     WC   =   100.;   INIMIX=   1;  MIXPRE=   1;  MAXMIX= -45

 Intra band minimization:
   WEIMIN = 0.0000     energy-eigenvalue tresh-hold
   EBREAK =  0.18E-08  absolut break condition
   DEPER  =   0.30     relativ break condition  

   TIME   =   0.40     timestep for ELM

  volume/ion in A,a.u.               =      49.64       335.01
  Fermi-wavevector in a.u.,A,eV,Ry     =   0.711510  1.344560  6.887909  0.506247
  Thomas-Fermi vector in A             =   1.798641
 
 Write flags
   LWAVE        =      F    write WAVECAR
   LDOWNSAMPLE  =      F    k-point downsampling of WAVECAR
   LCHARG       =      T    write CHGCAR
   LVTOT        =      F    write LOCPOT, total local potential
   LVHAR        =      F    write LOCPOT, Hartree potential only
   LELF         =      F    write electronic localiz. function (ELF)
   LORBIT       =      0    0 simple, 1 ext, 2 COOP (PROOUT), +10 PAW based schemes


 Dipole corrections
   LMONO  =      F    monopole corrections only (constant potential shift)
   LDIPOL =      F    correct potential (dipole corrections)
   IDIPOL =      0    1-x, 2-y, 3-z, 4-all directions 
   EPSILON=  1.0000000 bulk dielectric constant

 Exchange correlation treatment:
   GGA     =    RE    GGA type
   LEXCH   =    40    internal setting for exchange type
   VOSKOWN=      0    Vosko Wilk Nusair interpolation
   LHFCALC =     F    Hartree Fock is set to
   LHFONE  =     F    Hartree Fock one center treatment
   AEXX    =    0.0000 exact exchange contribution

 Linear response parameters
   LEPSILON=     F    determine dielectric tensor
   LRPA    =     F    only Hartree local field effects (RPA)
   LNABLA  =     F    use nabla operator in PAW spheres
   LVEL    =     F    velocity operator in full k-point grid
   LINTERFAST=   F  fast interpolation
   KINTER  =     0    interpolate to denser k-point grid
   CSHIFT  =0.1000    complex shift for real part using Kramers Kronig
   OMEGAMAX=  -1.0    maximum frequency
   DEG_THRESHOLD= 0.2000000E-02 threshold for treating states as degnerate
   RTIME   =   -0.100 relaxation time in fs
  (WPLASMAI=    0.000 imaginary part of plasma frequency in eV, 0.658/RTIME)
   DFIELD  = 0.0000000 0.0000000 0.0000000 field for delta impulse in time
 
 Orbital magnetization related:
   ORBITALMAG=     F  switch on orbital magnetization
   LCHIMAG   =     F  perturbation theory with respect to B field
   DQ        =  0.001000  dq finite difference perturbation B field
   LLRAUG    =     F  two centre corrections for induced B field



--------------------------------------------------------------------------------------------------------


 Static calculation
 charge density and potential will be updated during run
 non-spin polarized calculation
 Conjugate gradient for all bands (Freysoldt, et al. PRB 79, 241103 (2009))
 preconditioned conjugated gradient                                        
 perform sub-space diagonalisation
    before iterative eigenvector-optimisation
 modified Broyden-mixing scheme, WC =      100.0
 initial mixing is a Kerker type mixing with AMIX =  0.4000 and BMIX =      1.0000
 Hartree-type preconditioning will be used
 using additional bands           32
 reciprocal scheme for non local part
 use partial core corrections
 no Harris-corrections to forces 
 use gradient corrections 
 use of overlap-Matrix (Vanderbilt PP)
 Gauss-broadening in eV      SIGMA  =   0.01


--------------------------------------------------------------------------------------------------------


  energy-cutoff  :     1000.00
  volume of cell :     2631.08
      direct lattice vectors                 reciprocal lattice vectors
    12.325000000  0.000000000  0.000000000     0.081135903  0.046843835  0.000000000
    -6.162500000 10.673763102  0.000000000     0.000000000  0.093687670  0.000000000
     0.000000000  0.000000000 20.000000000     0.000000000  0.000000000  0.050000000

  length of vectors
    12.325000000 12.325000000 20.000000000     0.093687670  0.093687670  0.050000000


 
 k-points in units of 2pi/SCALE and weight: auto                                    
   0.00000000  0.00000000  0.00000000       1.000
 
 k-points in reciprocal lattice and weights: auto                                    
   0.00000000  0.00000000  0.00000000       1.000
 
 position of ions in fractional coordinates (direct lattice) 
   0.97245084  0.00032082  0.00070839
   0.03911838  0.13365950  0.00055022
   0.17244363  0.00029545  0.00062454
   0.23909628  0.13364792  0.00032058
   0.97245206  0.20032201  0.00060652
   0.03912836  0.33364377  0.00055519
   0.17245176  0.20035455  0.00027396
   0.23912436  0.33366572  0.00009033
   0.37246557  0.00032440  0.00056739
   0.43913747  0.13361994  0.00032292
   0.97244982  0.40030936  0.00068451
   0.03912498  0.53363679  0.00071676
   0.37241618  0.40032948  0.00000000
   0.43909960  0.53363898  0.00029052
   0.57244368  0.00031213  0.00069947
   0.63911021  0.13363175  0.00068409
   0.97245270  0.60030565  0.00080036
   0.03912449  0.73364036  0.00081814
   0.57243347  0.60030624  0.00050362
   0.63911189  0.73364188  0.00065988
   0.17245463  0.40031823  0.00036131
   0.23912018  0.53363655  0.00047314
   0.37245975  0.20029599  0.00011125
   0.43910710  0.33367342  0.00006970
   0.17245216  0.60031151  0.00065542
   0.23912337  0.73363857  0.00071891
   0.57243108  0.20028917  0.00051662
   0.63911277  0.33361863  0.00057797
   0.37243981  0.60030802  0.00045356
   0.43911609  0.73363786  0.00061774
   0.57246936  0.40032050  0.00042490
   0.63911941  0.53365087  0.00057451
   0.77244572  0.00031543  0.00074520
   0.83911628  0.13364020  0.00071913
   0.77244051  0.20030743  0.00072629
   0.83912024  0.33363573  0.00073183
   0.77244632  0.40029837  0.00072872
   0.83911898  0.53363396  0.00077638
   0.77245614  0.60030817  0.00074464
   0.83911503  0.73364318  0.00078939
   0.97245531  0.80030558  0.00081529
   0.03911471  0.93364329  0.00074756
   0.17245797  0.80031221  0.00077922
   0.23913455  0.93364719  0.00068106
   0.37245140  0.80031667  0.00068925
   0.43912449  0.93364477  0.00067679
   0.57244110  0.80031005  0.00066817
   0.63911507  0.93363899  0.00073456
   0.77244510  0.80031319  0.00075258
   0.83911661  0.93364434  0.00075854
   0.37302101  0.25122688  0.19842513
   0.42087980  0.18931315  0.20164622
   0.32515698  0.31316719  0.19545239
 
 position of ions in cartesian coordinates  (Angst):
  11.98347958  0.00342433  0.01416777
  -0.34154264  1.42664989  0.01100432
   2.12354700  0.00315355  0.01249070
   2.12325634  1.42652621  0.00641170
  10.75098721  2.13818970  0.01213047
  -1.57382270  3.56123457  0.01110375
   0.89078307  2.13853702  0.00547917
   0.89099273  3.56146885  0.00180651
   4.58863896  0.00346260  0.01134782
   4.58893648  1.42622757  0.00645846
   9.51853763  4.27280730  0.01369027
  -2.80632132  5.69591267  0.01433526
   2.12299894  4.27302204  0.00000000
   2.12335237  5.69593607  0.00581036
   7.05344483  0.00333155  0.01398950
   7.05352764  1.42635365  0.01368187
   8.28609598  6.40752033  0.01600723
  -4.03884931  7.83070339  0.01636283
   3.35585531  6.40752662  0.01007237
   3.35598594  7.83071962  0.01319763
  -0.34145776  4.27290193  0.00722612
  -0.34137895  5.69591010  0.00946273
   3.35624236  2.13791198  0.00222492
   3.35573251  3.56155103  0.00139405
  -1.57394684  6.40758280  0.01310850
  -1.57385216  7.83068434  0.01437823
   5.82093107  2.13783916  0.01033241
   5.82114012  3.56096622  0.01155939
   0.89092245  6.40754561  0.00907111
   0.89106251  7.83067670  0.01235474
   4.58870974  4.27292622  0.00849795
   4.58852320  5.69606300  0.01149026
   9.51844972  0.00336679  0.01490402
   9.51855036  1.42644387  0.01438264
   8.28593477  2.13803408  0.01452582
   8.28612680  3.56114872  0.01463668
   7.05356221  4.27268994  0.01457444
   7.05362213  5.69588251  0.01552751
   5.82112285  6.40754723  0.01489279
   5.82101669  7.83073350  0.01578780
   7.05362858  8.54227219  0.01630582
  -5.27148792  9.96548729  0.01495127
  -2.80637951  8.54234295  0.01558431
  -2.80626749  9.96552896  0.01362126
  -0.34148805  8.54239058  0.01378498
  -0.34137657  9.96550309  0.01353576
   2.12342586  8.54231992  0.01336337
   2.12354296  9.96544135  0.01469111
   4.58845581  8.54235337  0.01505154
   4.58852904  9.96549848  0.01517076
   3.04929830  2.68153618  3.96850263
   4.02070129  2.02068374  4.03292449
   2.07766701  3.34267235  3.90904776
 


--------------------------------------------------------------------------------------------------------


 k-point   1 :   0.0000 0.0000 0.0000  plane waves:  189031

 maximum and minimum number of plane-waves per node :     47262    47254

 maximum number of plane-waves:    189031
 maximum index in each direction: 
   IXMAX=   31   IYMAX=   31   IZMAX=   51
   IXMIN=  -31   IYMIN=  -31   IZMIN=  -51


 parallel 3D FFT for wavefunctions:
    minimum data exchange during FFTs selected (reduces bandwidth)
 parallel 3D FFT for charge:
    minimum data exchange during FFTs selected (reduces bandwidth)


 total amount of memory used by VASP MPI-rank0   175916. kBytes
=======================================================================

   base      :      30000. kBytes
   nonl-proj :      46129. kBytes
   fftplans  :      35778. kBytes
   grid      :      52596. kBytes
   one-center:         43. kBytes
   wavefun   :      11370. kBytes
 
     INWAV:  cpu time    0.0000: real time    0.0000
 Broyden mixing: mesh for mixing (old mesh)
   NGX = 63   NGY = 63   NGZ =103
  (NGX  =256   NGY  =256   NGZ  =420)
  gives a total of 408807 points

 initial charge density was supplied:
 charge density of overlapping atoms calculated
 number of electron     216.0000000 magnetization 
 keeping initial charge density in first step


--------------------------------------------------------------------------------------------------------


 Maximum index for augmentation-charges          459 (set IRDMAX)


--------------------------------------------------------------------------------------------------------


 First call to EWALD:  gamma=   0.128
 Maximum number of real-space cells 3x 3x 2
 Maximum number of reciprocal cells 3x 3x 4

    FEWALD:  cpu time    0.0023: real time    0.0023


--------------------------------------- Iteration      1(   1)  ---------------------------------------


    POTLOK:  cpu time    0.2862: real time    0.2901
    SETDIJ:  cpu time    0.0047: real time    0.0048
    TRIAL :  cpu time    4.2015: real time    4.2535
    CORREC:  cpu time    0.0004: real time    0.0006
    --------------------------------------------
      LOOP:  cpu time    4.4981: real time    4.5604

 eigenvalue-minimisations  :   280
 total energy-change (2. order) : 0.2677645E+04  (-0.1114237E+05)
 number of electron     216.0000000 magnetization 
 augmentation part      216.0000000 magnetization 

 Free energy of the ion-electron system (eV)
  ---------------------------------------------------
  alpha Z        PSCENC =        59.93625244
  Ewald energy   TEWEN  =     33224.32714901
  -Hartree energ DENC   =    -39399.68987886
  -exchange      EXHF   =         0.00000000
  -V(xc)+E(xc)   XCENC  =       415.93143082
  PAW double counting   =      6538.03749920    -6258.26020123
  entropy T*S    EENTRO =        -0.00000000
  eigenvalues    EBANDS =      -266.94668916
  atomic energy  EATOM  =      8364.30921166
  ---------------------------------------------------
  free energy    TOTEN  =      2677.64477389 eV

  energy without entropy =     2677.64477389  energy(sigma->0) =     2677.64477389


--------------------------------------------------------------------------------------------------------




--------------------------------------- Iteration      1(   2)  ---------------------------------------


    TRIAL :  cpu time    6.7195: real time    6.7921
    CORREC:  cpu time    0.0001: real time    0.0001
    --------------------------------------------
      LOOP:  cpu time    6.8014: real time    6.8755

 eigenvalue-minimisations  :   504
 total energy-change (2. order) :-0.2482702E+04  (-0.2361217E+04)
 number of electron     216.0000000 magnetization 
 augmentation part      216.0000000 magnetization 

 Free energy of the ion-electron system (eV)
  ---------------------------------------------------
  alpha Z        PSCENC =        59.93625244
  Ewald energy   TEWEN  =     33224.32714901
  -Hartree energ DENC   =    -39399.68987886
  -exchange      EXHF   =         0.00000000
  -V(xc)+E(xc)   XCENC  =       415.93143082
  PAW double counting   =      6538.03749920    -6258.26020123
  entropy T*S    EENTRO =        -0.00000000
  eigenvalues    EBANDS =     -2749.64855970
  atomic energy  EATOM  =      8364.30921166
  ---------------------------------------------------
  free energy    TOTEN  =       194.94290335 eV

  energy without entropy =      194.94290335  energy(sigma->0) =      194.94290335


--------------------------------------------------------------------------------------------------------




--------------------------------------- Iteration      1(   3)  ---------------------------------------


    TRIAL :  cpu time    4.8193: real time    4.8671
    CORREC:  cpu time    0.0002: real time    0.0002
    --------------------------------------------
      LOOP:  cpu time    4.8982: real time    4.9469

 eigenvalue-minimisations  :   336
 total energy-change (2. order) :-0.6605413E+03  (-0.6582584E+03)
 number of electron     216.0000000 magnetization 
 augmentation part      216.0000000 magnetization 

 Free energy of the ion-electron system (eV)
  ---------------------------------------------------
  alpha Z        PSCENC =        59.93625244
  Ewald energy   TEWEN  =     33224.32714901
  -Hartree energ DENC   =    -39399.68987886
  -exchange      EXHF   =         0.00000000
  -V(xc)+E(xc)   XCENC  =       415.93143082
  PAW double counting   =      6538.03749920    -6258.26020123
  entropy T*S    EENTRO =        -0.00000000
  eigenvalues    EBANDS =     -3410.18982996
  atomic energy  EATOM  =      8364.30921166
  ---------------------------------------------------
  free energy    TOTEN  =      -465.59836691 eV

  energy without entropy =     -465.59836691  energy(sigma->0) =     -465.59836691


--------------------------------------------------------------------------------------------------------




--------------------------------------- Iteration      1(   4)  ---------------------------------------


    TRIAL :  cpu time    5.4566: real time    5.5112
    CORREC:  cpu time    0.0001: real time    0.0001
    --------------------------------------------
      LOOP:  cpu time    5.5199: real time    5.5751

 eigenvalue-minimisations  :   392
 total energy-change (2. order) :-0.3228267E+02  (-0.3214380E+02)
 number of electron     216.0000000 magnetization 
 augmentation part      216.0000000 magnetization 

 Free energy of the ion-electron system (eV)
  ---------------------------------------------------
  alpha Z        PSCENC =        59.93625244
  Ewald energy   TEWEN  =     33224.32714901
  -Hartree energ DENC   =    -39399.68987886
  -exchange      EXHF   =         0.00000000
  -V(xc)+E(xc)   XCENC  =       415.93143082
  PAW double counting   =      6538.03749920    -6258.26020123
  entropy T*S    EENTRO =        -0.00000000
  eigenvalues    EBANDS =     -3442.47249790
  atomic energy  EATOM  =      8364.30921166
  ---------------------------------------------------
  free energy    TOTEN  =      -497.88103486 eV

  energy without entropy =     -497.88103486  energy(sigma->0) =     -497.88103486


--------------------------------------------------------------------------------------------------------




--------------------------------------- Iteration      1(   5)  ---------------------------------------


    TRIAL :  cpu time    5.7661: real time    5.8232
    CORREC:  cpu time    0.0001: real time    0.0001
    CHARGE:  cpu time    0.2321: real time    0.2407
    --------------------------------------------
      LOOP:  cpu time    6.0271: real time    6.0957

 eigenvalue-minimisations  :   420
 total energy-change (2. order) :-0.7070975E+00  (-0.7051334E+00)
 number of electron     216.0000000 magnetization 
 augmentation part       -0.3107419 magnetization 

 Free energy of the ion-electron system (eV)
  ---------------------------------------------------
  alpha Z        PSCENC =        59.93625244
  Ewald energy   TEWEN  =     33224.32714901
  -Hartree energ DENC   =    -39399.68987886
  -exchange      EXHF   =         0.00000000
  -V(xc)+E(xc)   XCENC  =       415.93143082
  PAW double counting   =      6538.03749920    -6258.26020123
  entropy T*S    EENTRO =        -0.00000000
  eigenvalues    EBANDS =     -3443.17959545
  atomic energy  EATOM  =      8364.30921166
  ---------------------------------------------------
  free energy    TOTEN  =      -498.58813240 eV

  energy without entropy =     -498.58813240  energy(sigma->0) =     -498.58813240


--------------------------------------------------------------------------------------------------------




--------------------------------------- Iteration      1(   6)  ---------------------------------------


    POTLOK:  cpu time    0.2672: real time    0.2695
    SETDIJ:  cpu time    0.0030: real time    0.0030
    TRIAL :  cpu time    2.0149: real time    2.0376
    CORREC:  cpu time    0.7923: real time    0.7994
    CHARGE:  cpu time    0.2326: real time    0.2345
    --------------------------------------------
      LOOP:  cpu time    3.3996: real time    3.4411

 eigenvalue-minimisations  :     0
 total energy-change (2. order) : 0.4865200E+02  (-0.1448408E+02)
 number of electron     216.0000000 magnetization 
 augmentation part       -0.4039841 magnetization 

 Free energy of the ion-electron system (eV)
  ---------------------------------------------------
  alpha Z        PSCENC =        59.93625244
  Ewald energy   TEWEN  =     33224.32714901
  -Hartree energ DENC   =    -40797.82522868
  -exchange      EXHF   =         0.00000000
  -V(xc)+E(xc)   XCENC  =       462.94121454
  PAW double counting   =    104148.95495282  -103874.53807232
  entropy T*S    EENTRO =        -0.00000000
  eigenvalues    EBANDS =     -2038.04161551
  atomic energy  EATOM  =      8364.30921166
  ---------------------------------------------------
  free energy    TOTEN  =      -449.93613604 eV

  energy without entropy =     -449.93613604  energy(sigma->0) =     -449.93613604


--------------------------------------------------------------------------------------------------------




--------------------------------------- Iteration      1(   7)  ---------------------------------------


    POTLOK:  cpu time    0.2663: real time    0.2686
    SETDIJ:  cpu time    0.0030: real time    0.0031
    TRIAL :  cpu time    2.0114: real time    2.0313
    CORREC:  cpu time    0.7925: real time    0.7996
    CHARGE:  cpu time    0.2335: real time    0.2353
    --------------------------------------------
      LOOP:  cpu time    3.3685: real time    3.4037

 eigenvalue-minimisations  :     0
 total energy-change (2. order) :-0.1451968E+02  (-0.1756105E+01)
 number of electron     216.0000000 magnetization 
 augmentation part       -0.4507950 magnetization 

 Free energy of the ion-electron system (eV)
  ---------------------------------------------------
  alpha Z        PSCENC =        59.93625244
  Ewald energy   TEWEN  =     33224.32714901
  -Hartree energ DENC   =    -40314.75898450
  -exchange      EXHF   =         0.00000000
  -V(xc)+E(xc)   XCENC  =       446.78805666
  PAW double counting   =    120396.07430831  -120119.58778374
  entropy T*S    EENTRO =        -0.00000000
  eigenvalues    EBANDS =     -2521.54402372
  atomic energy  EATOM  =      8364.30921166
  ---------------------------------------------------
  free energy    TOTEN  =      -464.45581388 eV

  energy without entropy =     -464.45581388  energy(sigma->0) =     -464.45581388


--------------------------------------------------------------------------------------------------------




--------------------------------------- Iteration      1(   8)  ---------------------------------------


    POTLOK:  cpu time    0.2662: real time    0.2683
    SETDIJ:  cpu time    0.0029: real time    0.0029
    TRIAL :  cpu time    2.0099: real time    2.0301
    CORREC:  cpu time    0.7933: real time    0.8005
    CHARGE:  cpu time    0.2329: real time    0.2349
    --------------------------------------------
      LOOP:  cpu time    3.3335: real time    3.3678

 eigenvalue-minimisations  :     0
 total energy-change (2. order) :-0.1755569E+01  (-0.4460636E+00)
 number of electron     216.0000000 magnetization 
 augmentation part       -0.4664469 magnetization 

 Free energy of the ion-electron system (eV)
  ---------------------------------------------------
  alpha Z        PSCENC =        59.93625244
  Ewald energy   TEWEN  =     33224.32714901
  -Hartree energ DENC   =    -40286.37318269
  -exchange      EXHF   =         0.00000000
  -V(xc)+E(xc)   XCENC  =       446.18515976
  PAW double counting   =    124679.78635761  -124403.00415626
  entropy T*S    EENTRO =        -0.00000000
  eigenvalues    EBANDS =     -2551.37817433
  atomic energy  EATOM  =      8364.30921166
  ---------------------------------------------------
  free energy    TOTEN  =      -466.21138279 eV

  energy without entropy =     -466.21138279  energy(sigma->0) =     -466.21138279


--------------------------------------------------------------------------------------------------------




--------------------------------------- Iteration      1(   9)  ---------------------------------------


    POTLOK:  cpu time    0.2668: real time    0.2688
    SETDIJ:  cpu time    0.0030: real time    0.0030
    TRIAL :  cpu time    2.0098: real time    2.0300
    CORREC:  cpu time    0.7940: real time    0.8010
    CHARGE:  cpu time    0.2336: real time    0.2354
    --------------------------------------------
      LOOP:  cpu time    3.3708: real time    3.4037

 eigenvalue-minimisations  :     0
 total energy-change (2. order) :-0.4459201E+00  (-0.1366713E+00)
 number of electron     216.0000000 magnetization 
 augmentation part       -0.4732851 magnetization 

 Free energy of the ion-electron system (eV)
  ---------------------------------------------------
  alpha Z        PSCENC =        59.93625244
  Ewald energy   TEWEN  =     33224.32714901
  -Hartree energ DENC   =    -40301.95804587
  -exchange      EXHF   =         0.00000000
  -V(xc)+E(xc)   XCENC  =       446.37151813
  PAW double counting   =    127157.61941508  -126880.73678835
  entropy T*S    EENTRO =        -0.00000000
  eigenvalues    EBANDS =     -2536.52601499
  atomic energy  EATOM  =      8364.30921166
  ---------------------------------------------------
  free energy    TOTEN  =      -466.65730288 eV

  energy without entropy =     -466.65730288  energy(sigma->0) =     -466.65730288


--------------------------------------------------------------------------------------------------------




--------------------------------------- Iteration      1(  10)  ---------------------------------------


    POTLOK:  cpu time    0.2663: real time    0.2682
    SETDIJ:  cpu time    0.0031: real time    0.0031
    TRIAL :  cpu time    2.0089: real time    2.0290
    CORREC:  cpu time    0.7923: real time    0.7994
    CHARGE:  cpu time    0.2326: real time    0.2345
    --------------------------------------------
      LOOP:  cpu time    3.3761: real time    3.4079

 eigenvalue-minimisations  :     0
 total energy-change (2. order) :-0.1364968E+00  (-0.5235497E-01)
 number of electron     216.0000000 magnetization 
 augmentation part       -0.4742986 magnetization 

 Free energy of the ion-electron system (eV)
  ---------------------------------------------------
  alpha Z        PSCENC =        59.93625244
  Ewald energy   TEWEN  =     33224.32714901
  -Hartree energ DENC   =    -40303.58243431
  -exchange      EXHF   =         0.00000000
  -V(xc)+E(xc)   XCENC  =       446.30508490
  PAW double counting   =    127394.37194210  -127117.43176300
  entropy T*S    EENTRO =        -0.00000000
  eigenvalues    EBANDS =     -2535.02924249
  atomic energy  EATOM  =      8364.30921166
  ---------------------------------------------------
  free energy    TOTEN  =      -466.79379968 eV

  energy without entropy =     -466.79379968  energy(sigma->0) =     -466.79379968


--------------------------------------------------------------------------------------------------------




--------------------------------------- Iteration      1(  11)  ---------------------------------------


    POTLOK:  cpu time    0.2654: real time    0.2674
    SETDIJ:  cpu time    0.0031: real time    0.0031
    TRIAL :  cpu time    2.0096: real time    2.0311
    CORREC:  cpu time    0.7977: real time    0.8121
    CHARGE:  cpu time    0.2332: real time    0.2352
    --------------------------------------------
      LOOP:  cpu time    3.3510: real time    3.3938

 eigenvalue-minimisations  :     0
 total energy-change (2. order) :-0.5223821E-01  (-0.2063974E-01)
 number of electron     216.0000000 magnetization 
 augmentation part       -0.4742246 magnetization 

 Free energy of the ion-electron system (eV)
  ---------------------------------------------------
  alpha Z        PSCENC =        59.93625244
  Ewald energy   TEWEN  =     33224.32714901
  -Hartree energ DENC   =    -40300.25912690
  -exchange      EXHF   =         0.00000000
  -V(xc)+E(xc)   XCENC  =       446.24444488
  PAW double counting   =    126828.68717885  -126551.74736920
  entropy T*S    EENTRO =        -0.00000000
  eigenvalues    EBANDS =     -2538.34377864
  atomic energy  EATOM  =      8364.30921166
  ---------------------------------------------------
  free energy    TOTEN  =      -466.84603789 eV

  energy without entropy =     -466.84603789  energy(sigma->0) =     -466.84603789


--------------------------------------------------------------------------------------------------------




--------------------------------------- Iteration      1(  12)  ---------------------------------------


    POTLOK:  cpu time    0.2668: real time    0.2687
    SETDIJ:  cpu time    0.0029: real time    0.0029
    TRIAL :  cpu time    2.0086: real time    2.0295
    CORREC:  cpu time    0.7880: real time    0.7955
    CHARGE:  cpu time    0.2330: real time    0.2350
    --------------------------------------------
      LOOP:  cpu time    3.3165: real time    3.3610

 eigenvalue-minimisations  :     0
 total energy-change (2. order) :-0.2055919E-01  (-0.7342402E-02)
 number of electron     216.0000000 magnetization 
 augmentation part       -0.4745598 magnetization 

 Free energy of the ion-electron system (eV)
  ---------------------------------------------------
  alpha Z        PSCENC =        59.93625244
  Ewald energy   TEWEN  =     33224.32714901
  -Hartree energ DENC   =    -40298.87708351
  -exchange      EXHF   =         0.00000000
  -V(xc)+E(xc)   XCENC  =       446.21765385
  PAW double counting   =    126464.31216141  -126187.38769958
  entropy T*S    EENTRO =        -0.00000000
  eigenvalues    EBANDS =     -2539.70424238
  atomic energy  EATOM  =      8364.30921166
  ---------------------------------------------------
  free energy    TOTEN  =      -466.86659708 eV

  energy without entropy =     -466.86659708  energy(sigma->0) =     -466.86659708


--------------------------------------------------------------------------------------------------------




--------------------------------------- Iteration      1(  13)  ---------------------------------------


    POTLOK:  cpu time    0.2649: real time    0.2669
    SETDIJ:  cpu time    0.0030: real time    0.0030
    TRIAL :  cpu time    2.0101: real time    2.0308
    CORREC:  cpu time    0.7855: real time    0.7977
    CHARGE:  cpu time    0.2322: real time    0.2341
    --------------------------------------------
      LOOP:  cpu time    3.3527: real time    3.3926

 eigenvalue-minimisations  :     0
 total energy-change (2. order) :-0.7323639E-02  (-0.2122826E-02)
 number of electron     216.0000000 magnetization 
 augmentation part       -0.4743221 magnetization 

 Free energy of the ion-electron system (eV)
  ---------------------------------------------------
  alpha Z        PSCENC =        59.93625244
  Ewald energy   TEWEN  =     33224.32714901
  -Hartree energ DENC   =    -40298.78897315
  -exchange      EXHF   =         0.00000000
  -V(xc)+E(xc)   XCENC  =       446.20917836
  PAW double counting   =    126389.28775725  -126112.36886056
  entropy T*S    EENTRO =        -0.00000000
  eigenvalues    EBANDS =     -2539.78563573
  atomic energy  EATOM  =      8364.30921166
  ---------------------------------------------------
  free energy    TOTEN  =      -466.87392072 eV

  energy without entropy =     -466.87392072  energy(sigma->0) =     -466.87392072


--------------------------------------------------------------------------------------------------------




--------------------------------------- Iteration      1(  14)  ---------------------------------------


    POTLOK:  cpu time    0.2716: real time    0.2734
    SETDIJ:  cpu time    0.0027: real time    0.0028
    TRIAL :  cpu time    2.0085: real time    2.0284
    CORREC:  cpu time    0.7893: real time    0.7967
    CHARGE:  cpu time    0.2331: real time    0.2350
    --------------------------------------------
      LOOP:  cpu time    3.3245: real time    3.3598

 eigenvalue-minimisations  :     0
 total energy-change (2. order) :-0.2123060E-02  (-0.5810115E-03)
 number of electron     216.0000000 magnetization 
 augmentation part       -0.4740877 magnetization 

 Free energy of the ion-electron system (eV)
  ---------------------------------------------------
  alpha Z        PSCENC =        59.93625244
  Ewald energy   TEWEN  =     33224.32714901
  -Hartree energ DENC   =    -40298.64557067
  -exchange      EXHF   =         0.00000000
  -V(xc)+E(xc)   XCENC  =       446.20690802
  PAW double counting   =    126449.98112534  -126173.06330791
  entropy T*S    EENTRO =        -0.00000000
  eigenvalues    EBANDS =     -2539.92781169
  atomic energy  EATOM  =      8364.30921166
  ---------------------------------------------------
  free energy    TOTEN  =      -466.87604378 eV

  energy without entropy =     -466.87604378  energy(sigma->0) =     -466.87604378


--------------------------------------------------------------------------------------------------------




--------------------------------------- Iteration      1(  15)  ---------------------------------------


    POTLOK:  cpu time    0.2625: real time    0.2643
    SETDIJ:  cpu time    0.0030: real time    0.0030
    TRIAL :  cpu time    2.0100: real time    2.0302
    CORREC:  cpu time    0.7880: real time    0.7950
    CHARGE:  cpu time    0.2332: real time    0.2350
    --------------------------------------------
      LOOP:  cpu time    3.3499: real time    3.3842

 eigenvalue-minimisations  :     0
 total energy-change (2. order) :-0.5825500E-03  (-0.1878743E-03)
 number of electron     216.0000000 magnetization 
 augmentation part       -0.4738489 magnetization 

 Free energy of the ion-electron system (eV)
  ---------------------------------------------------
  alpha Z        PSCENC =        59.93625244
  Ewald energy   TEWEN  =     33224.32714901
  -Hartree energ DENC   =    -40298.36590479
  -exchange      EXHF   =         0.00000000
  -V(xc)+E(xc)   XCENC  =       446.19702105
  PAW double counting   =    126488.63286065  -126211.71408262
  entropy T*S    EENTRO =        -0.00000000
  eigenvalues    EBANDS =     -2540.19913375
  atomic energy  EATOM  =      8364.30921166
  ---------------------------------------------------
  free energy    TOTEN  =      -466.87662633 eV

  energy without entropy =     -466.87662633  energy(sigma->0) =     -466.87662633


--------------------------------------------------------------------------------------------------------




--------------------------------------- Iteration      1(  16)  ---------------------------------------


    POTLOK:  cpu time    0.2628: real time    0.2647
    SETDIJ:  cpu time    0.0031: real time    0.0031
    TRIAL :  cpu time    2.0087: real time    2.0306
    CORREC:  cpu time    0.7824: real time    0.7940
    CHARGE:  cpu time    0.2330: real time    0.2350
    --------------------------------------------
      LOOP:  cpu time    3.3139: real time    3.3899

 eigenvalue-minimisations  :     0
 total energy-change (2. order) :-0.1891244E-03  (-0.6131867E-04)
 number of electron     216.0000000 magnetization 
 augmentation part       -0.4736888 magnetization 

 Free energy of the ion-electron system (eV)
  ---------------------------------------------------
  alpha Z        PSCENC =        59.93625244
  Ewald energy   TEWEN  =     33224.32714901
  -Hartree energ DENC   =    -40298.42407106
  -exchange      EXHF   =         0.00000000
  -V(xc)+E(xc)   XCENC  =       446.19882042
  PAW double counting   =    126474.71253686  -126197.79408459
  entropy T*S    EENTRO =        -0.00000000
  eigenvalues    EBANDS =     -2540.14263021
  atomic energy  EATOM  =      8364.30921166
  ---------------------------------------------------
  free energy    TOTEN  =      -466.87681546 eV

  energy without entropy =     -466.87681546  energy(sigma->0) =     -466.87681546


--------------------------------------------------------------------------------------------------------




--------------------------------------- Iteration      1(  17)  ---------------------------------------


    POTLOK:  cpu time    0.2631: real time    0.2650
    SETDIJ:  cpu time    0.0030: real time    0.0030
    TRIAL :  cpu time    2.0002: real time    2.0300
    CORREC:  cpu time    0.7810: real time    0.7924
    CHARGE:  cpu time    0.2326: real time    0.2344
    --------------------------------------------
      LOOP:  cpu time    3.3253: real time    3.3826

 eigenvalue-minimisations  :     0
 total energy-change (2. order) :-0.6205875E-04  (-0.2288954E-04)
 number of electron     216.0000000 magnetization 
 augmentation part       -0.4736775 magnetization 

 Free energy of the ion-electron system (eV)
  ---------------------------------------------------
  alpha Z        PSCENC =        59.93625244
  Ewald energy   TEWEN  =     33224.32714901
  -Hartree energ DENC   =    -40298.52681477
  -exchange      EXHF   =         0.00000000
  -V(xc)+E(xc)   XCENC  =       446.20231723
  PAW double counting   =    126451.84996413  -126174.93196614
  entropy T*S    EENTRO =        -0.00000000
  eigenvalues    EBANDS =     -2540.04299108
  atomic energy  EATOM  =      8364.30921166
  ---------------------------------------------------
  free energy    TOTEN  =      -466.87687752 eV

  energy without entropy =     -466.87687752  energy(sigma->0) =     -466.87687752


--------------------------------------------------------------------------------------------------------




--------------------------------------- Iteration      1(  18)  ---------------------------------------


    POTLOK:  cpu time    0.2613: real time    0.2635
    SETDIJ:  cpu time    0.0029: real time    0.0030
    TRIAL :  cpu time    2.0107: real time    2.0312
    CORREC:  cpu time    0.7865: real time    0.7938
    CHARGE:  cpu time    0.2328: real time    0.2347
    --------------------------------------------
      LOOP:  cpu time    3.3876: real time    3.4238

 eigenvalue-minimisations  :     0
 total energy-change (2. order) :-0.2323424E-04  (-0.9188330E-05)
 number of electron     216.0000000 magnetization 
 augmentation part       -0.4737015 magnetization 

 Free energy of the ion-electron system (eV)
  ---------------------------------------------------
  alpha Z        PSCENC =        59.93625244
  Ewald energy   TEWEN  =     33224.32714901
  -Hartree energ DENC   =    -40298.50405821
  -exchange      EXHF   =         0.00000000
  -V(xc)+E(xc)   XCENC  =       446.20090607
  PAW double counting   =    126445.07426687  -126168.15593212
  entropy T*S    EENTRO =        -0.00000000
  eigenvalues    EBANDS =     -2540.06469647
  atomic energy  EATOM  =      8364.30921166
  ---------------------------------------------------
  free energy    TOTEN  =      -466.87690075 eV

  energy without entropy =     -466.87690075  energy(sigma->0) =     -466.87690075


--------------------------------------------------------------------------------------------------------




--------------------------------------- Iteration      1(  19)  ---------------------------------------


    POTLOK:  cpu time    0.2624: real time    0.2643
    SETDIJ:  cpu time    0.0030: real time    0.0030
    TRIAL :  cpu time    2.0072: real time    2.0282
    CORREC:  cpu time    0.7866: real time    0.7946
    CHARGE:  cpu time    0.2332: real time    0.2352
    --------------------------------------------
      LOOP:  cpu time    3.3313: real time    3.3654

 eigenvalue-minimisations  :     0
 total energy-change (2. order) :-0.9049225E-05  (-0.3707298E-05)
 number of electron     216.0000000 magnetization 
 augmentation part       -0.4737640 magnetization 

 Free energy of the ion-electron system (eV)
  ---------------------------------------------------
  alpha Z        PSCENC =        59.93625244
  Ewald energy   TEWEN  =     33224.32714901
  -Hartree energ DENC   =    -40298.52674993
  -exchange      EXHF   =         0.00000000
  -V(xc)+E(xc)   XCENC  =       446.20208877
  PAW double counting   =    126448.72652162  -126171.80817026
  entropy T*S    EENTRO =        -0.00000000
  eigenvalues    EBANDS =     -2540.04321312
  atomic energy  EATOM  =      8364.30921166
  ---------------------------------------------------
  free energy    TOTEN  =      -466.87690980 eV

  energy without entropy =     -466.87690980  energy(sigma->0) =     -466.87690980


--------------------------------------------------------------------------------------------------------




--------------------------------------- Iteration      1(  20)  ---------------------------------------


    POTLOK:  cpu time    0.2607: real time    0.2626
    SETDIJ:  cpu time    0.0029: real time    0.0029
    TRIAL :  cpu time    2.0085: real time    2.0312
    CORREC:  cpu time    0.7888: real time    0.7962
    CHARGE:  cpu time    0.2326: real time    0.2345
    --------------------------------------------
      LOOP:  cpu time    3.3466: real time    3.4042

 eigenvalue-minimisations  :     0
 total energy-change (2. order) :-0.3455876E-05  (-0.1437271E-05)
 number of electron     216.0000000 magnetization 
 augmentation part       -0.4737777 magnetization 

 Free energy of the ion-electron system (eV)
  ---------------------------------------------------
  alpha Z        PSCENC =        59.93625244
  Ewald energy   TEWEN  =     33224.32714901
  -Hartree energ DENC   =    -40298.51857004
  -exchange      EXHF   =         0.00000000
  -V(xc)+E(xc)   XCENC  =       446.20137641
  PAW double counting   =    126453.73107079  -126176.81244017
  entropy T*S    EENTRO =        -0.00000000
  eigenvalues    EBANDS =     -2540.05096336
  atomic energy  EATOM  =      8364.30921166
  ---------------------------------------------------
  free energy    TOTEN  =      -466.87691326 eV

  energy without entropy =     -466.87691326  energy(sigma->0) =     -466.87691326


--------------------------------------------------------------------------------------------------------




--------------------------------------- Iteration      1(  21)  ---------------------------------------


    POTLOK:  cpu time    0.2624: real time    0.2643
    SETDIJ:  cpu time    0.0030: real time    0.0030
    TRIAL :  cpu time    2.0097: real time    2.0304
    CORREC:  cpu time    0.7879: real time    0.7949
    CHARGE:  cpu time    0.2333: real time    0.2352
    --------------------------------------------
      LOOP:  cpu time    3.3621: real time    3.3954

 eigenvalue-minimisations  :     0
 total energy-change (2. order) :-0.1242486E-05  (-0.5579970E-06)
 number of electron     216.0000000 magnetization 
 augmentation part       -0.4737886 magnetization 

 Free energy of the ion-electron system (eV)
  ---------------------------------------------------
  alpha Z        PSCENC =        59.93625244
  Ewald energy   TEWEN  =     33224.32714901
  -Hartree energ DENC   =    -40298.53887105
  -exchange      EXHF   =         0.00000000
  -V(xc)+E(xc)   XCENC  =       446.20234191
  PAW double counting   =    126455.29936585  -126178.38083135
  entropy T*S    EENTRO =        -0.00000000
  eigenvalues    EBANDS =     -2540.03153298
  atomic energy  EATOM  =      8364.30921166
  ---------------------------------------------------
  free energy    TOTEN  =      -466.87691450 eV

  energy without entropy =     -466.87691450  energy(sigma->0) =     -466.87691450


--------------------------------------------------------------------------------------------------------




--------------------------------------- Iteration      1(  22)  ---------------------------------------


    POTLOK:  cpu time    0.2623: real time    0.2642
    SETDIJ:  cpu time    0.0031: real time    0.0032
    TRIAL :  cpu time    2.0025: real time    2.0314
    CORREC:  cpu time    0.7872: real time    0.7944
    EDDIAG:  cpu time    0.4568: real time    0.4613
    CHARGE:  cpu time    0.2323: real time    0.2341
    --------------------------------------------
      LOOP:  cpu time    3.7856: real time    3.8306

 eigenvalue-minimisations  :     0
 total energy-change (2. order) :-0.5328911E-06  (-0.2548569E-06)
 number of electron     216.0000000 magnetization 
 augmentation part       -0.4737833 magnetization 

 Free energy of the ion-electron system (eV)
  ---------------------------------------------------
  alpha Z        PSCENC =        59.93625244
  Ewald energy   TEWEN  =     33224.32714901
  -Hartree energ DENC   =    -40298.52861531
  -exchange      EXHF   =         0.00000000
  -V(xc)+E(xc)   XCENC  =       446.20179677
  PAW double counting   =    126454.87901264  -126177.96042211
  entropy T*S    EENTRO =        -0.00000000
  eigenvalues    EBANDS =     -2540.04130014
  atomic energy  EATOM  =      8364.30921166
  ---------------------------------------------------
  free energy    TOTEN  =      -466.87691503 eV

  energy without entropy =     -466.87691503  energy(sigma->0) =     -466.87691503


--------------------------------------------------------------------------------------------------------


  average scaling for gradient   0.9107


 average (electrostatic) potential at core
  the test charge radii are     0.5770  0.5955
  (the norm of the test charge is              1.0000)
       1 -85.4347       2 -85.4320       3 -85.4379       4 -85.4419       5 -85.4294
       6 -85.4275       7 -85.4360       8 -85.4292       9 -85.4304      10 -85.4348
      11 -85.4286      12 -85.4304      13 -85.4340      14 -85.4301      15 -85.4272
      16 -85.4280      17 -85.4311      18 -85.4327      19 -85.4341      20 -85.4311
      21 -85.4261      22 -85.4263      23 -85.4434      24 -85.4428      25 -85.4279
      26 -85.4294      27 -85.4310      28 -85.4361      29 -85.4274      30 -85.4280
      31 -85.4400      32 -85.4362      33 -85.4310      34 -85.4291      35 -85.4285
      36 -85.4300      37 -85.4319      38 -85.4336      39 -85.4339      40 -85.4329
      41 -85.4332      42 -85.4349      43 -85.4309      44 -85.4344      45 -85.4279
      46 -85.4278      47 -85.4301      48 -85.4287      49 -85.4330      50 -85.4315
      51 -89.3680      52-120.0328      53-120.0320
 
 
 
 E-fermi :  -3.8567     XC(G=0):  -2.3644     alpha+bet : -2.1113

 Fermi energy:        -3.8566862184

 k-point     1 :       0.0000    0.0000    0.0000
  band No.  band energies     occupation 
      1     -27.3088      2.00000
      2     -26.2862      2.00000
      3     -21.9995      2.00000
      4     -21.0613      2.00000
      5     -21.0593      2.00000
      6     -21.0561      2.00000
      7     -21.0557      2.00000
      8     -21.0538      2.00000
      9     -21.0537      2.00000
     10     -19.2097      2.00000
     11     -19.2096      2.00000
     12     -19.2085      2.00000
     13     -19.2081      2.00000
     14     -19.2076      2.00000
     15     -19.2074      2.00000
     16     -18.3102      2.00000
     17     -18.3100      2.00000
     18     -18.3097      2.00000
     19     -18.3094      2.00000
     20     -18.3090      2.00000
     21     -18.3086      2.00000
     22     -16.1484      2.00000
     23     -16.1481      2.00000
     24     -16.1477      2.00000
     25     -16.1471      2.00000
     26     -16.1448      2.00000
     27     -16.1447      2.00000
     28     -15.1315      2.00000
     29     -15.1313      2.00000
     30     -15.1301      2.00000
     31     -15.1299      2.00000
     32     -15.1296      2.00000
     33     -15.1295      2.00000
     34     -13.7794      2.00000
     35     -13.7793      2.00000
     36     -13.7790      2.00000
     37     -13.7787      2.00000
     38     -13.7787      2.00000
     39     -13.7779      2.00000
     40     -12.0912      2.00000
     41     -11.3896      2.00000
     42     -11.3894      2.00000
     43     -11.3888      2.00000
     44     -11.3887      2.00000
     45     -11.3883      2.00000
     46     -11.3882      2.00000
     47     -11.2677      2.00000
     48     -11.2676      2.00000
     49     -11.2665      2.00000
     50     -11.2665      2.00000
     51     -11.2648      2.00000
     52     -11.2646      2.00000
     53     -10.8659      2.00000
     54     -10.7846      2.00000
     55     -10.7813      2.00000
     56     -10.0214      2.00000
     57      -9.8822      2.00000
     58      -9.8820      2.00000
     59      -9.8814      2.00000
     60      -9.8812      2.00000
     61      -9.8805      2.00000
     62      -9.8805      2.00000
     63      -8.9131      2.00000
     64      -8.9118      2.00000
     65      -8.9063      2.00000
     66      -8.9061      2.00000
     67      -8.9033      2.00000
     68      -8.9024      2.00000
     69      -8.6009      2.00000
     70      -8.5990      2.00000
     71      -8.5988      2.00000
     72      -8.5975      2.00000
     73      -8.5972      2.00000
     74      -8.5970      2.00000
     75      -8.5668      2.00000
     76      -8.5666      2.00000
     77      -8.5664      2.00000
     78      -8.5655      2.00000
     79      -8.5648      2.00000
     80      -8.5641      2.00000
     81      -7.2449      2.00000
     82      -7.2428      2.00000
     83      -6.9395      2.00000
     84      -6.9394      2.00000
     85      -6.9390      2.00000
     86      -6.9388      2.00000
     87      -6.9360      2.00000
     88      -6.9360      2.00000
     89      -6.7841      2.00000
     90      -6.7839      2.00000
     91      -6.7797      2.00000
     92      -6.7785      2.00000
     93      -6.7784      2.00000
     94      -6.7756      2.00000
     95      -5.8903      2.00000
     96      -5.8886      2.00000
     97      -5.8879      2.00000
     98      -5.8850      2.00000
     99      -5.8846      2.00000
    100      -5.8838      2.00000
    101      -5.4464      2.00000
    102      -5.4443      2.00000
    103      -3.9109      2.00000
    104      -3.9100      2.00000
    105      -3.9084      2.00000
    106      -3.9078      2.00000
    107      -3.9042      2.00000
    108      -3.9040      2.00000
    109      -1.0969      0.00000
    110      -1.0966      0.00000
    111      -1.0929      0.00000
    112      -1.0924      0.00000
    113      -1.0914      0.00000
    114      -1.0909      0.00000
    115       0.5304      0.00000
    116       0.7762      0.00000
    117       0.7770      0.00000
    118       0.7783      0.00000
    119       0.7806      0.00000
    120       0.7811      0.00000
    121       0.7840      0.00000
    122       1.1184      0.00000
    123       1.2892      0.00000
    124       1.3308      0.00000
    125       1.7286      0.00000
    126       1.9578      0.00000
    127       2.0498      0.00000
    128       2.0568      0.00000
    129       2.0631      0.00000
    130       2.0782      0.00000
    131       2.2523      0.00000
    132       2.5106      0.00000
    133       2.5111      0.00000
    134       2.5148      0.00000
    135       2.5157      0.00000
    136       2.5158      0.00000
    137       2.7340      0.00000
    138       2.9796      0.00000
    139       3.1383      0.00000
    140       3.5555      0.00000


--------------------------------------------------------------------------------------------------------


 soft charge-density along one line, spin component           1
         0         1         2         3         4         5         6         7         8         9
 total charge-density along one line
 
 pseudopotential strength for first ion, spin component:           1
 12.709  21.388  -0.000   0.000   0.000  -0.000   0.000   0.000
 21.388  35.991  -0.000   0.000   0.000  -0.000   0.000   0.000
 -0.000  -0.000  -3.095  -0.000   0.000  -5.547  -0.000   0.000
  0.000   0.000  -0.000  -3.096  -0.000  -0.000  -5.548  -0.000
  0.000   0.000   0.000  -0.000  -3.095   0.000  -0.000  -5.547
 -0.000  -0.000  -5.547  -0.000   0.000  -9.919  -0.000   0.000
  0.000   0.000  -0.000  -5.548  -0.000  -0.000  -9.921  -0.000
  0.000   0.000   0.000  -0.000  -5.547   0.000  -0.000  -9.919
 total augmentation occupancy for first ion, spin component:           1
  8.451  -3.031  -0.000  -0.002   0.000   0.000   0.001  -0.000
 -3.031   1.122   0.000   0.001  -0.000  -0.000  -0.000   0.000
 -0.000   0.000   7.732  -0.008   0.000  -2.678   0.003  -0.000
 -0.002   0.001  -0.008   3.531  -0.000   0.003  -0.988   0.000
  0.000  -0.000   0.000  -0.000   7.732  -0.000   0.000  -2.678
  0.000  -0.000  -2.678   0.003  -0.000   0.941  -0.001   0.000
  0.001  -0.000   0.003  -0.988   0.000  -0.001   0.282  -0.000
 -0.000   0.000  -0.000   0.000  -2.678   0.000  -0.000   0.941


------------------------ aborting loop because EDIFF is reached ----------------------------------------


    FORLOC:  cpu time    0.0508: real time    0.0513
    FORNL :  cpu time    0.7444: real time    0.7533
    FORCOR:  cpu time    0.2877: real time    0.2913
    OFIELD:  cpu time    0.0014: real time    0.0015

 ---------------------------------------------------------------------------------------------

         DFTD3 V3.0 Rev 1        
 IVDW         = 11
 DF revpbe    
 parameters
 VDW_S6       =    1.0000
 VDW_S8       =    1.0100
 VDW_SR       =    0.9230
 rs18     =    1.0000
 alpha6   =   14.0000
 alpha8   =   16.0000
 k1-k3    =   16.0000    1.3333   -4.0000
 VDW_RADIUS   =   50.2022 A
 VDW_CNRADIUS =   21.1671 A
 Edisp (eV)   -3.76753

 E6    (eV) :    -2.6859
 E8    (eV) :    -1.0817
 % E8        : 28.71
    FORVDW:  cpu time    0.1818: real time    0.1841

 VOLUME and BASIS-vectors are now :
 -----------------------------------------------------------------------------
  energy-cutoff  :     1000.00
  volume of cell :     2631.08
      direct lattice vectors                 reciprocal lattice vectors
    12.325000000  0.000000000  0.000000000     0.081135903  0.046843835  0.000000000
    -6.162500000 10.673763102  0.000000000     0.000000000  0.093687670  0.000000000
     0.000000000  0.000000000 20.000000000     0.000000000  0.000000000  0.050000000

  length of vectors
    12.325000000 12.325000000 20.000000000     0.093687670  0.093687670  0.050000000


 FORCES acting on ions:
    Electron-Ion                     Ewald-Force                    Non-Local-Force
 -----------------------------------------------------------------------------------------------
   0.758E+01 0.662E+01 0.222E+02   -.759E+01 -.662E+01 -.222E+02   0.115E-01 -.247E-02 0.970E-02
   0.118E+02 0.576E+01 0.277E+02   -.118E+02 -.575E+01 -.277E+02   0.150E-01 -.808E-02 -.721E-02
   0.544E+01 0.142E+02 0.328E+02   -.543E+01 -.142E+02 -.329E+02   -.177E-02 0.290E-01 0.156E-01
   0.786E+01 0.114E+02 0.473E+02   -.789E+01 -.115E+02 -.473E+02   0.286E-01 0.906E-02 0.249E-01
   0.816E+01 0.193E+01 0.223E+02   -.817E+01 -.192E+01 -.223E+02   0.395E-02 -.121E-01 -.324E-02
   0.847E+01 -.153E+01 0.227E+02   -.847E+01 0.154E+01 -.227E+02   -.109E-01 -.132E-03 -.127E-01
   0.142E+02 0.541E+01 0.421E+02   -.142E+02 -.539E+01 -.421E+02   0.337E-01 -.351E-01 -.212E-02
   0.138E+02 -.482E+01 0.440E+02   -.138E+02 0.484E+01 -.440E+02   0.898E-02 -.189E-01 -.314E-01
   -.625E+01 0.129E+02 0.332E+02   0.626E+01 -.129E+02 -.332E+02   -.129E-01 -.477E-02 -.191E-01
   -.104E+02 0.878E+01 0.456E+02   0.104E+02 -.880E+01 -.456E+02   -.518E-01 0.317E-01 -.642E-02
   0.206E+01 -.191E+01 0.185E+02   -.205E+01 0.190E+01 -.184E+02   -.845E-03 -.384E-03 -.493E-02
   0.170E+01 -.139E+01 0.173E+02   -.169E+01 0.139E+01 -.173E+02   -.125E-01 0.553E-02 0.226E-02
   0.548E+01 -.122E+02 0.489E+02   -.552E+01 0.122E+02 -.488E+02   0.548E-01 -.233E-01 -.119E-01
   0.279E+01 -.142E+02 0.336E+02   -.281E+01 0.142E+02 -.336E+02   0.170E-01 -.448E-03 -.272E-01
   -.730E+01 0.456E+01 0.217E+02   0.730E+01 -.456E+01 -.217E+02   0.102E-01 -.498E-02 -.371E-02
   -.105E+02 0.302E+01 0.246E+02   0.105E+02 -.303E+01 -.246E+02   -.494E-02 0.104E-01 -.187E-01
   -.118E+01 -.476E+00 0.166E+02   0.119E+01 0.473E+00 -.166E+02   -.546E-02 0.179E-02 0.107E-02
   0.607E+00 0.425E+01 0.176E+02   -.602E+00 -.425E+01 -.176E+02   -.691E-02 0.375E-02 0.917E-02
   -.209E+01 -.125E+02 0.268E+02   0.208E+01 0.125E+02 -.268E+02   0.164E-01 -.721E-02 0.277E-02
   -.984E+00 -.649E+01 0.194E+02   0.976E+00 0.650E+01 -.194E+02   0.504E-02 -.510E-02 -.175E-02
   0.119E+02 -.524E+01 0.295E+02   -.119E+02 0.524E+01 -.295E+02   0.613E-03 -.662E-02 -.374E-01
   0.748E+01 -.636E+01 0.241E+02   -.748E+01 0.636E+01 -.241E+02   -.886E-02 0.895E-02 -.154E-01
   -.267E+01 0.545E+01 0.566E+02   0.269E+01 -.546E+01 -.566E+02   -.264E-01 0.246E-01 0.473E-01
   -.402E+01 -.858E+01 0.546E+02   0.401E+01 0.861E+01 -.546E+02   0.218E-01 -.335E-01 0.337E-01
   0.367E+01 -.156E+01 0.186E+02   -.366E+01 0.155E+01 -.186E+02   -.260E-02 -.168E-03 -.911E-02
   0.736E+00 0.327E+01 0.187E+02   -.731E+00 -.327E+01 -.187E+02   -.106E-01 0.591E-02 0.386E-03
   -.146E+02 0.189E+01 0.359E+02   0.146E+02 -.191E+01 -.359E+02   -.176E-02 0.182E-01 -.167E-01
   -.138E+02 -.566E+01 0.333E+02   0.138E+02 0.565E+01 -.333E+02   -.253E-01 0.187E-01 0.582E-02
   0.452E+01 -.914E+01 0.251E+02   -.452E+01 0.914E+01 -.251E+02   0.110E-01 0.315E-02 -.190E-01
   0.414E+00 -.359E+01 0.197E+02   -.421E+00 0.359E+01 -.197E+02   -.142E-02 0.477E-02 -.849E-02
   -.107E+02 -.114E+02 0.398E+02   0.107E+02 0.114E+02 -.398E+02   -.276E-01 -.171E-01 0.155E-01
   -.661E+01 -.121E+02 0.284E+02   0.662E+01 0.121E+02 -.284E+02   0.475E-03 -.147E-01 0.129E-01
   0.455E+00 0.182E+01 0.172E+02   -.461E+00 -.182E+01 -.172E+02   0.101E-01 -.706E-02 0.432E-02
   0.124E+01 0.182E+01 0.184E+02   -.124E+01 -.182E+01 -.184E+02   -.298E-03 0.146E-02 -.538E-02
   -.513E+01 0.705E+00 0.199E+02   0.513E+01 -.709E+00 -.199E+02   0.601E-02 -.111E-03 -.717E-03
   -.446E+01 -.182E+01 0.195E+02   0.447E+01 0.181E+01 -.195E+02   -.936E-02 0.613E-02 -.991E-03
   -.890E+01 -.462E+01 0.225E+02   0.892E+01 0.462E+01 -.225E+02   -.108E-01 0.305E-02 0.214E-02
   -.535E+01 -.431E+01 0.191E+02   0.536E+01 0.431E+01 -.191E+02   -.927E-02 0.219E-02 0.103E-01
   -.497E+01 -.645E+01 0.204E+02   0.497E+01 0.646E+01 -.204E+02   -.832E-02 -.386E-02 0.805E-02
   -.742E+00 -.158E+01 0.177E+02   0.742E+00 0.159E+01 -.177E+02   0.282E-02 -.140E-02 0.868E-02
   0.186E+01 0.454E+01 0.183E+02   -.186E+01 -.454E+01 -.184E+02   -.487E-02 0.649E-02 0.849E-02
   0.601E+01 0.941E+01 0.234E+02   -.601E+01 -.942E+01 -.234E+02   0.598E-02 0.566E-02 0.139E-01
   0.497E+00 0.790E+01 0.202E+02   -.488E+00 -.791E+01 -.202E+02   -.615E-02 0.626E-02 -.343E-03
   -.511E-01 0.137E+02 0.287E+02   0.686E-01 -.137E+02 -.288E+02   -.212E-01 0.960E-02 0.570E-02
   -.149E+01 0.294E+01 0.196E+02   0.150E+01 -.293E+01 -.196E+02   0.227E-02 -.447E-02 -.552E-02
   -.609E+01 0.764E+01 0.238E+02   0.609E+01 -.764E+01 -.238E+02   -.112E-01 0.110E-02 -.142E-01
   -.115E+01 -.315E+01 0.183E+02   0.115E+01 0.315E+01 -.183E+02   0.119E-01 -.281E-02 0.200E-02
   -.289E+01 0.114E+01 0.175E+02   0.288E+01 -.114E+01 -.175E+02   0.208E-02 0.130E-02 -.770E-02
   0.256E+00 -.196E+01 0.173E+02   -.260E+00 0.196E+01 -.174E+02   0.734E-02 -.419E-02 0.616E-02
   0.310E+01 0.225E+01 0.175E+02   -.311E+01 -.225E+01 -.175E+02   0.535E-02 0.101E-02 0.317E-02
   0.582E-01 -.392E-01 -.331E+03   -.617E-01 0.425E-01 0.331E+03   -.415E-02 0.264E-02 0.424E-02
   -.229E+03 0.156E+03 -.509E+03   0.279E+03 -.190E+03 0.512E+03   -.510E+02 0.347E+02 -.336E+01
   0.229E+03 -.156E+03 -.489E+03   -.279E+03 0.190E+03 0.485E+03   0.510E+02 -.347E+02 0.314E+01
 -----------------------------------------------------------------------------------------------
   0.129E-02 0.897E-02 0.253E+00   0.000E+00 0.568E-13 -.398E-12   -.111E-02 -.893E-02 -.252E+00
 
 
 POSITION                                       TOTAL-FORCE (eV/Angst)
 -----------------------------------------------------------------------------------
     11.98348      0.00342      0.01417         0.002803     -0.000192     -0.000266
     -0.34154      1.42665      0.01100        -0.001210      0.000441     -0.001264
      2.12355      0.00315      0.01249         0.000042      0.006097     -0.001949
      2.12326      1.42653      0.00641         0.008077      0.002036      0.000695
     10.75099      2.13819      0.01213         0.000590     -0.004627      0.001004
     -1.57382      3.56123      0.01110        -0.006005      0.005754     -0.000576
      0.89078      2.13854      0.00548         0.006352     -0.010937      0.005575
      0.89099      3.56147      0.00181        -0.010657     -0.000144      0.012121
      4.58864      0.00346      0.01135         0.004521     -0.013145     -0.001482
      4.58894      1.42623      0.00646        -0.016539      0.009774      0.016098
      9.51854      4.27281      0.01369         0.007143     -0.004327      0.000581
     -2.80632      5.69591      0.01434        -0.006508      0.003440      0.001166
      2.12300      4.27302      0.00000         0.015858     -0.003785      0.021329
      2.12335      5.69594      0.00581        -0.001833      0.006614     -0.000772
      7.05344      0.00333      0.01399         0.007563     -0.003966      0.000642
      7.05353      1.42635      0.01368        -0.003138      0.004724     -0.002148
      8.28610      6.40752      0.01601         0.003479     -0.001572     -0.000311
     -4.03885      7.83070      0.01636        -0.001728      0.001310      0.000337
      3.35586      6.40753      0.01007         0.002463     -0.000458     -0.000126
      3.35599      7.83072      0.01320        -0.003332      0.000572      0.000094
     -0.34146      4.27290      0.00723         0.001179     -0.002531     -0.002809
     -0.34138      5.69591      0.00946        -0.007634      0.004092      0.000074
      3.35624      2.13791      0.00222        -0.006927      0.007817      0.024849
      3.35573      3.56155      0.00139         0.007108     -0.010993      0.016993
     -1.57395      6.40758      0.01311         0.007338     -0.004349     -0.000300
     -1.57385      7.83068      0.01438        -0.004663      0.003946      0.000648
      5.82093      2.13784      0.01033         0.013910      0.002647     -0.000953
      5.82114      3.56097      0.01156        -0.004502      0.003863     -0.000802
      0.89092      6.40755      0.00907         0.004387      0.000633     -0.000797
      0.89106      7.83068      0.01235        -0.007420      0.002042      0.000716
      4.58871      4.27293      0.00850        -0.007934     -0.005956     -0.004119
      4.58852      5.69606      0.01149         0.001157      0.001777     -0.001422
      9.51845      0.00337      0.01490         0.004688     -0.004723      0.000596
      9.51855      1.42644      0.01438        -0.004733      0.006631      0.000076
      8.28593      2.13803      0.01453         0.004730     -0.004252      0.001197
      8.28613      3.56115      0.01464        -0.004314      0.001743      0.000656
      7.05356      4.27269      0.01457         0.003380     -0.000959      0.000711
      7.05362      5.69588      0.01553        -0.002371      0.000738      0.000380
      5.82112      6.40755      0.01489        -0.001843      0.001804      0.000712
      5.82102      7.83073      0.01579         0.002352      0.000802      0.000100
      7.05363      8.54227      0.01631        -0.004209      0.000321      0.001631
     -5.27149      9.96549      0.01495        -0.001092     -0.002489     -0.000808
     -2.80638      8.54234      0.01558         0.003315     -0.001678     -0.000159
     -2.80627      9.96553      0.01362        -0.003238      0.000859     -0.001818
     -0.34149      8.54239      0.01378         0.005877     -0.003106      0.000787
     -0.34138      9.96550      0.01354        -0.006348      0.001434      0.000152
      2.12343      8.54232      0.01336         0.005754     -0.001597      0.001180
      2.12354      9.96544      0.01469        -0.006709      0.004380     -0.001542
      4.58846      8.54235      0.01505         0.003542     -0.003031      0.001296
      4.58853      9.96550      0.01517        -0.003454      0.003182      0.000750
      3.04930      2.68154      3.96850        -0.007396      0.005798     -0.013716
      4.02070      2.02068      4.03292        -0.256932      0.174939     -0.053244
      2.07767      3.34267      3.90905         0.265060     -0.181391     -0.021764
 -----------------------------------------------------------------------------------
    total drift:                                0.000187      0.000045      0.001175


--------------------------------------------------------------------------------------------------------



  FREE ENERGIE OF THE ION-ELECTRON SYSTEM (eV)
  ---------------------------------------------------
  free  energy   TOTEN  =      -470.64444961 eV

  energy  without entropy=     -470.64444961  energy(sigma->0) =     -470.64444961
 


--------------------------------------------------------------------------------------------------------


    POTLOK:  cpu time    0.2723: real time    0.2754


--------------------------------------------------------------------------------------------------------


     LOOP+:  cpu time  108.0757: real time  109.6262
    4ORBIT:  cpu time    0.0000: real time    0.0000

 total amount of memory used by VASP MPI-rank0   175916. kBytes
=======================================================================

   base      :      30000. kBytes
   nonl-proj :      46129. kBytes
   fftplans  :      35778. kBytes
   grid      :      52596. kBytes
   one-center:         43. kBytes
   wavefun   :      11370. kBytes
 
  
  
 General timing and accounting informations for this job:
 ========================================================
  
                  Total CPU time used (sec):      145.218
                            User time (sec):      134.558
                          System time (sec):       10.660
                         Elapsed time (sec):      148.786
  
                   Maximum memory used (kb):      512404.
                   Average memory used (kb):          N/A
  
                          Minor page faults:        52031
                          Major page faults:          141
                 Voluntary context switches:         3659
