 vasp.6.2.1 16May21 (build Nov 06 2021 14:46:37) complex                        
  
 executed on             LinuxIFC date 2025.04.16  17:58:06
 running on  112 total cores
 distrk:  each k-point on  112 cores,    1 groups
 distr:  one band on NCORE=   4 cores,   28 groups


--------------------------------------------------------------------------------------------------------


 INCAR:
   ALGO = Conjugate
   NCORE = 4
   ISMEAR = 0
   SIGMA = 0.01
   PREC = Accurate
   EDIFF = 1E-6
   ENCUT = 1000
   ISIF = 0
   GGA = RE
   IVDW = 11
   LWAVE = .FALSE.
   LCHARGE = .FALSE.
   SYMPREC = 1E-6

 POTCAR:    PAW_PBE C_h 06Feb2004                 
 POTCAR:    PAW_PBE O_h 06Feb2004                 
 -----------------------------------------------------------------------------
|                                                                             |
|           W    W    AA    RRRRR   N    N  II  N    N   GGGG   !!!           |
|           W    W   A  A   R    R  NN   N  II  NN   N  G    G  !!!           |
|           W    W  A    A  R    R  N N  N  II  N N  N  G       !!!           |
|           W WW W  AAAAAA  RRRRR   N  N N  II  N  N N  G  GGG   !            |
|           WW  WW  A    A  R   R   N   NN  II  N   NN  G    G                |
|           W    W  A    A  R    R  N    N  II  N    N   GGGG   !!!           |
|                                                                             |
|     For optimal performance we recommend to set                             |
|       NCORE = 2 up to number-of-cores-per-socket                            |
|     NCORE specifies how many cores store one orbital (NPAR=cpu/NCORE).      |
|     This setting can greatly improve the performance of VASP for DFT.       |
|     The default, NCORE=1 might be grossly inefficient on modern             |
|     multi-core architectures or massively parallel machines. Do your        |
|     own testing! More info at https://www.vasp.at/wiki/index.php/NCORE      |
|     Unfortunately you need to use the default for GW and RPA                |
|     calculations (for HF NCORE is supported but not extensively tested      |
|     yet).                                                                   |
|                                                                             |
 -----------------------------------------------------------------------------

 POTCAR:    PAW_PBE C_h 06Feb2004                 
   VRHFIN =C: s2p2                                                                                  
   LEXCH  = PE                                                                                      
   EATOM  =   147.1560 eV,   10.8157 Ry                                                             
                                                                                                    
   TITEL  = PAW_PBE C_h 06Feb2004                                                                   
   LULTRA =        F    use ultrasoft PP ?                                                          
   IUNSCR =        1    unscreen: 0-lin 1-nonlin 2-no                                               
   RPACOR =    0.800    partial core radius                                                         
   POMASS =   12.011; ZVAL   =    4.000    mass and valenz                                          
   RCORE  =    1.100    outmost cutoff radius                                                       
   RWIGS  =    1.630; RWIGS  =    0.863    wigner-seitz radius (au A)                               
   ENMAX  =  700.000; ENMIN  =  500.000 eV                                                          
   ICORE  =        2    local potential                                                             
   LCOR   =        T    correct aug charges                                                         
   LPAW   =        T    paw PP                                                                      
   EAUG   =  946.768                                                                                
   DEXC   =    0.000                                                                                
   RMAX   =    1.128    core radius for proj-oper                                                   
   RAUG   =    1.300    factor for augmentation sphere                                              
   RDEP   =    1.162    radius for radial grids                                                     
   RDEPT  =    1.088    core radius for aug-charge                                                  
                                                                                                    
   Atomic configuration                                                                             
    4 entries                                                                                       
     n  l   j            E        occ.                                                              
     1  0  0.50      -273.3789   2.0000                                                             
     2  0  0.50       -13.7508   2.0000                                                             
     2  1  0.50        -5.2854   2.0000                                                             
     3  2  1.50        -5.4423   0.0000                                                             
   Description                                                                                      
     l       E           TYP  RCUT    TYP  RCUT                                                     
     0    -13.7508458     23  1.100                                                                 
     0     -8.2022199     23  1.100                                                                 
     1     -5.2854383     23  1.100                                                                 
     1      1.1560700     23  1.100                                                                 
     2     -5.4423304      7  1.100                                                                 
  local pseudopotential read in
  partial core-charges read in
  partial kinetic energy density read in
  atomic valenz-charges read in
  non local Contribution for L=           0  read in
    real space projection operators read in
  non local Contribution for L=           0  read in
    real space projection operators read in
  non local Contribution for L=           1  read in
    real space projection operators read in
  non local Contribution for L=           1  read in
    real space projection operators read in
    PAW grid and wavefunctions read in
 
   number of l-projection  operators is LMAX  =           4
   number of lm-projection operators is LMMAX =           8
 
 POTCAR:    PAW_PBE O_h 06Feb2004                 
   VRHFIN =O: s2p4                                                                                  
   LEXCH  = PE                                                                                      
   EATOM  =   432.3788 eV,   31.7789 Ry                                                             
                                                                                                    
   TITEL  = PAW_PBE O_h 06Feb2004                                                                   
   LULTRA =        F    use ultrasoft PP ?                                                          
   IUNSCR =        1    unscreen: 0-lin 1-nonlin 2-no                                               
   RPACOR =    0.800    partial core radius                                                         
   POMASS =   16.000; ZVAL   =    6.000    mass and valenz                                          
   RCORE  =    1.100    outmost cutoff radius                                                       
   RWIGS  =    1.400; RWIGS  =    0.741    wigner-seitz radius (au A)                               
   ENMAX  =  700.000; ENMIN  =  500.000 eV                                                          
   ICORE  =        2    local potential                                                             
   LCOR   =        T    correct aug charges                                                         
   LPAW   =        T    paw PP                                                                      
   EAUG   =  888.804                                                                                
   DEXC   =    0.000                                                                                
   RMAX   =    1.128    core radius for proj-oper                                                   
   RAUG   =    1.300    factor for augmentation sphere                                              
   RDEP   =    1.125    radius for radial grids                                                     
   RDEPT  =    1.088    core radius for aug-charge                                                  
                                                                                                    
   Atomic configuration                                                                             
    4 entries                                                                                       
     n  l   j            E        occ.                                                              
     1  0  0.50      -514.6923   2.0000                                                             
     2  0  0.50       -23.9615   2.0000                                                             
     2  1  0.50        -9.0305   4.0000                                                             
     3  2  1.50        -9.5241   0.0000                                                             
   Description                                                                                      
     l       E           TYP  RCUT    TYP  RCUT                                                     
     0    -23.9615319     23  1.100                                                                 
     0    -25.3221145     23  1.100                                                                 
     1     -9.0304911     23  1.100                                                                 
     1     -5.4802209     23  1.100                                                                 
     2     -9.5240782      7  1.100                                                                 
  local pseudopotential read in
  partial core-charges read in
  partial kinetic energy density read in
  atomic valenz-charges read in
  non local Contribution for L=           0  read in
    real space projection operators read in
  non local Contribution for L=           0  read in
    real space projection operators read in
  non local Contribution for L=           1  read in
    real space projection operators read in
  non local Contribution for L=           1  read in
    real space projection operators read in
    PAW grid and wavefunctions read in
 
   number of l-projection  operators is LMAX  =           4
   number of lm-projection operators is LMMAX =           8
 
 -----------------------------------------------------------------------------
|                                                                             |
|               ----> ADVICE to this user running VASP <----                  |
|                                                                             |
|     You have a (more or less) 'large supercell' and for larger cells it     |
|     might be more efficient to use real-space projection operators.         |
|     Therefore, try LREAL= Auto in the INCAR file.                           |
|     Mind: For very accurate calculation, you might also keep the            |
|     reciprocal projection scheme (i.e. LREAL=.FALSE.).                      |
|                                                                             |
 -----------------------------------------------------------------------------

 -----------------------------------------------------------------------------
|                                                                             |
|               ----> ADVICE to this user running VASP <----                  |
|                                                                             |
|     You enforced a specific xc type in the INCAR file but a different       |
|     type was found in the POTCAR file.                                      |
|     I HOPE YOU KNOW WHAT YOU ARE DOING!                                     |
|                                                                             |
 -----------------------------------------------------------------------------

  PAW_PBE C_h 06Feb2004                 :
 energy of atom  1       EATOM= -147.1560
 kinetic energy error for atom=    0.0031 (will be added to EATOM!!)
  PAW_PBE O_h 06Feb2004                 :
 energy of atom  2       EATOM= -432.3788
 kinetic energy error for atom=    0.0171 (will be added to EATOM!!)
 
 
 POSCAR:  C  O
  positions in cartesian coordinates
  No initial velocities read in
 exchange correlation table for  LEXCH =       40
   RHO(1)=    0.500       N(1)  =     2000
   RHO(2)=  100.500       N(2)  =     4000
 


--------------------------------------------------------------------------------------------------------


 ion  position               nearest neighbor table
   1  0.972  0.000  0.001-  50 1.42   2 1.42  42 1.42
   2  0.039  0.134  0.000-   5 1.42   7 1.42   1 1.42
   3  0.172  0.000  0.000-  42 1.42  44 1.42   4 1.42
   4  0.239  0.134  0.000-   7 1.42   3 1.42  23 1.42
   5  0.972  0.200  0.000-   6 1.42   2 1.42  34 1.42
   6  0.039  0.334  0.000-   5 1.42  21 1.42  11 1.42
   7  0.172  0.200  0.000-   8 1.42   2 1.42   4 1.42
   8  0.239  0.334  0.000-  13 1.42   7 1.42  21 1.42
   9  0.372  0.000  0.000-  10 1.42  44 1.42  46 1.42
  10  0.439  0.134  0.000-  27 1.42   9 1.42  23 1.42
  11  0.972  0.400  0.001-  12 1.42  36 1.42   6 1.42
  12  0.039  0.534  0.001-  25 1.42  11 1.42  17 1.42
  13  0.372  0.400  0.000-   8 1.42  14 1.42  24 1.42
  14  0.439  0.534  0.000-  13 1.42  29 1.42  19 1.42
  15  0.572  0.000  0.001-  46 1.42  16 1.42  48 1.42
  16  0.639  0.134  0.001-  15 1.42  35 1.42  27 1.42
  17  0.972  0.600  0.001-  38 1.42  18 1.42  12 1.42
  18  0.039  0.734  0.001-  43 1.42  41 1.42  17 1.42
  19  0.572  0.600  0.000-  14 1.42  20 1.42  32 1.42
  20  0.639  0.734  0.001-  49 1.42  19 1.42  47 1.42
  21  0.172  0.400  0.000-  22 1.42   8 1.42   6 1.42
  22  0.239  0.534  0.000-  21 1.42  29 1.42  25 1.42
  23  0.372  0.200  0.000-  10 1.42   4 1.42  24 1.42
  24  0.439  0.334  0.000-  13 1.42  31 1.42  23 1.42
  25  0.172  0.600  0.001-  26 1.42  12 1.42  22 1.42
  26  0.239  0.734  0.001-  25 1.42  45 1.42  43 1.42
  27  0.572  0.200  0.000-  10 1.42  28 1.42  16 1.42
  28  0.639  0.334  0.000-  27 1.42  37 1.42  31 1.42
  29  0.372  0.600  0.000-  22 1.42  14 1.42  30 1.42
  30  0.439  0.734  0.000-  47 1.42  29 1.42  45 1.42
  31  0.572  0.400  0.000-  32 1.42  28 1.42  24 1.42
  32  0.639  0.534  0.000-  31 1.42  39 1.42  19 1.42
  33  0.772  0.000  0.001-  34 1.42  48 1.42  50 1.42
  34  0.839  0.134  0.001-  33 1.42   5 1.42  35 1.42
  35  0.772  0.200  0.001-  36 1.42  16 1.42  34 1.42
  36  0.839  0.334  0.001-  35 1.42  11 1.42  37 1.42
  37  0.772  0.400  0.001-  28 1.42  38 1.42  36 1.42
  38  0.839  0.534  0.001-  17 1.42  37 1.42  39 1.42
  39  0.772  0.600  0.001-  40 1.42  38 1.42  32 1.42
  40  0.839  0.734  0.001-  39 1.42  49 1.42  41 1.42
  41  0.972  0.800  0.001-  18 1.42  42 1.42  40 1.42
  42  0.039  0.934  0.001-   3 1.42  41 1.42   1 1.42
  43  0.172  0.800  0.001-  18 1.42  44 1.42  26 1.42
  44  0.239  0.934  0.001-   9 1.42  43 1.42   3 1.42
  45  0.372  0.800  0.001-  26 1.42  46 1.42  30 1.42
  46  0.439  0.934  0.001-  15 1.42  45 1.42   9 1.42
  47  0.572  0.800  0.001-  30 1.42  48 1.42  20 1.42
  48  0.639  0.934  0.001-  47 1.42  33 1.42  15 1.42
  49  0.772  0.800  0.001-  50 1.42  20 1.42  40 1.42
  50  0.839  0.934  0.001-  49 1.42   1 1.42  33 1.42
  51  0.373  0.251  0.356-  52 1.18  53 1.18
  52  0.421  0.189  0.359-  51 1.18
  53  0.325  0.313  0.354-  51 1.18
 
  LATTYP: Found a hexagonal cell.
 ALAT       =    12.3250000000
 C/A-ratio  =     2.0283975659
  
  Lattice vectors:
  
 A1 = (  12.3250000000,   0.0000000000,   0.0000000000)
 A2 = (  -6.1625000000,  10.6737631016,   0.0000000000)
 A3 = (   0.0000000000,   0.0000000000,  25.0000000000)


Analysis of symmetry for initial positions (statically):
=====================================================================
 Subroutine PRICEL returns:
 Original cell was already a primitive cell.
 

 Routine SETGRP: Setting up the symmetry group for a 
 hexagonal supercell.


 Subroutine GETGRP returns: Found  1 space group operations
 (whereof  1 operations were pure point group operations)
 out of a pool of 24 trial point group operations.


The static configuration has the point symmetry C_1 .


Analysis of symmetry for dynamics (positions and initial velocities):
=====================================================================
 Subroutine PRICEL returns:
 Original cell was already a primitive cell.
 

 Routine SETGRP: Setting up the symmetry group for a 
 hexagonal supercell.


 Subroutine GETGRP returns: Found  1 space group operations
 (whereof  1 operations were pure point group operations)
 out of a pool of 24 trial point group operations.


The dynamic configuration has the point symmetry C_1 .


 Subroutine INISYM returns: Found  1 space group operations
 (whereof  1 operations are pure point group operations),
 and found     1 'primitive' translations


----------------------------------------------------------------------------------------

                                     Primitive cell                                     

  volume of cell :    3288.8533

  direct lattice vectors                    reciprocal lattice vectors
    12.325000000  0.000000000  0.000000000     0.081135903  0.046843835  0.000000000
    -6.162500000 10.673763102  0.000000000     0.000000000  0.093687670  0.000000000
     0.000000000  0.000000000 25.000000000     0.000000000  0.000000000  0.040000000

  length of vectors
    12.325000000 12.325000000 25.000000000     0.093687670  0.093687670  0.040000000

  position of ions in fractional coordinates (direct lattice)
     0.972450841  0.000320818  0.000566711
     0.039118382  0.133659505  0.000440173
     0.172443627  0.000295449  0.000499628
     0.239096278  0.133647917  0.000256468
     0.972452058  0.200322012  0.000485219
     0.039128360  0.333643771  0.000444150
     0.172451764  0.200354552  0.000219167
     0.239124359  0.333665720  0.000072260
     0.372465565  0.000324403  0.000453913
     0.439137473  0.133619939  0.000258338
     0.972449824  0.400309362  0.000547611
     0.039124981  0.533636789  0.000573410
     0.372416176  0.400329481  0.000000000
     0.439099602  0.533638981  0.000232414
     0.572443676  0.000312125  0.000559580
     0.639110207  0.133631751  0.000547275
     0.972452703  0.600305653  0.000640289
     0.039124495  0.733640359  0.000654513
     0.572433471  0.600306242  0.000402895
     0.639111888  0.733641879  0.000527905
     0.172454630  0.400318228  0.000289045
     0.239120185  0.533636548  0.000378509
     0.372459750  0.200295993  0.000088997
     0.439107096  0.333673419  0.000055762
     0.172452155  0.600311506  0.000524340
     0.239123371  0.733638574  0.000575129
     0.572431082  0.200289171  0.000413296
     0.639112773  0.333618630  0.000462376
     0.372439808  0.600308022  0.000362844
     0.439116090  0.733637858  0.000494190
     0.572469358  0.400320504  0.000339918
     0.639119408  0.533650873  0.000459610
     0.772445723  0.000315427  0.000596161
     0.839116277  0.133640203  0.000575306
     0.772440513  0.200307432  0.000581033
     0.839120241  0.333635728  0.000585467
     0.772446320  0.400298367  0.000582978
     0.839118980  0.533633964  0.000621100
     0.772456143  0.600308173  0.000595712
     0.839115033  0.733643180  0.000631512
     0.972455313  0.800305582  0.000652233
     0.039114714  0.933643289  0.000598051
     0.172457971  0.800312211  0.000623372
     0.239134551  0.933647193  0.000544850
     0.372451396  0.800316674  0.000551399
     0.439124489  0.933644769  0.000541430
     0.572441101  0.800310054  0.000534535
     0.639115067  0.933638985  0.000587644
     0.772445098  0.800313187  0.000602062
     0.839116614  0.933644338  0.000606830
     0.373021009  0.251226878  0.356359487
     0.420879805  0.189313152  0.358936362
     0.325156981  0.313167186  0.353981292

  ion indices of the primitive-cell ions
   primitive index   ion index
                 1           1
                 2           2
                 3           3
                 4           4
                 5           5
                 6           6
                 7           7
                 8           8
                 9           9
                10          10
                11          11
                12          12
                13          13
                14          14
                15          15
                16          16
                17          17
                18          18
                19          19
                20          20
                21          21
                22          22
                23          23
                24          24
                25          25
                26          26
                27          27
                28          28
                29          29
                30          30
                31          31
                32          32
                33          33
                34          34
                35          35
                36          36
                37          37
                38          38
                39          39
                40          40
                41          41
                42          42
                43          43
                44          44
                45          45
                46          46
                47          47
                48          48
                49          49
                50          50
                51          51
                52          52
                53          53

----------------------------------------------------------------------------------------

 
 
 KPOINTS: auto                                    

Automatic generation of k-mesh.
 Grid dimensions read from file:
 generate k-points for:    1    1    1

 Generating k-lattice:

  Cartesian coordinates                     Fractional coordinates (reciprocal lattice)
     0.081135903  0.046843835  0.000000000     1.000000000 -0.000000000  0.000000000
     0.000000000  0.093687670  0.000000000     0.000000000  1.000000000  0.000000000
     0.000000000  0.000000000  0.040000000     0.000000000  0.000000000  1.000000000

  Length of vectors
     0.093687670  0.093687670  0.040000000

  Shift w.r.t. Gamma in fractional coordinates (k-lattice)
     0.000000000  0.000000000  0.000000000

 
 Subroutine IBZKPT returns following result:
 ===========================================
 
 Found      1 irreducible k-points:
 
 Following reciprocal coordinates:
            Coordinates               Weight
  0.000000  0.000000  0.000000      1.000000
 
 Following cartesian coordinates:
            Coordinates               Weight
  0.000000  0.000000  0.000000      1.000000
 


--------------------------------------------------------------------------------------------------------




 Dimension of arrays:
   k-points           NKPTS =      1   k-points in BZ     NKDIM =      1   number of bands    NBANDS=    140
   number of dos      NEDOS =    301   number of ions     NIONS =     53
   non local maximal  LDIM  =      4   non local SUM 2l+1 LMDIM =      8
   total plane-waves  NPLWV = ******
   max r-space proj   IRMAX =      1   max aug-charges    IRDMAX=  10008
   dimension x,y,z NGX =   128 NGY =  128 NGZ =  270
   dimension x,y,z NGXF=   256 NGYF=  256 NGZF=  540
   support grid    NGXF=   256 NGYF=  256 NGZF=  540
   ions per type =              51   2
   NGX,Y,Z   is equivalent  to a cutoff of  17.27, 17.27, 17.95 a.u.
   NGXF,Y,Z  is equivalent  to a cutoff of  34.53, 34.53, 35.91 a.u.

 SYSTEM =  unknown system                          
 POSCAR =   C  O                                   

 Startparameter for this run:
   NWRITE =      2    write-flag & timer
   PREC   = accura    normal or accurate (medium, high low for compatibility)
   ISTART =      0    job   : 0-new  1-cont  2-samecut
   ICHARG =      2    charge: 1-file 2-atom 10-const
   ISPIN  =      1    spin polarized calculation?
   LNONCOLLINEAR =      F non collinear calculations
   LSORBIT =      F    spin-orbit coupling
   INIWAV =      1    electr: 0-lowe 1-rand  2-diag
   LASPH  =      F    aspherical Exc in radial PAW
 Electronic Relaxation 1
   ENCUT  = 1000.0 eV  73.50 Ry    8.57 a.u.  31.78 31.78 64.46*2*pi/ulx,y,z
   ENINI  = 1000.0     initial cutoff
   ENAUG  =  946.8 eV  augmentation charge cutoff
   NELM   =     60;   NELMIN=  2; NELMDL= -5     # of ELM steps 
   EDIFF  = 0.1E-05   stopping-criterion for ELM
   LREAL  =      F    real-space projection
   NLSPLINE    = F    spline interpolate recip. space projectors
   LCOMPAT=      F    compatible to vasp.4.4
   GGA_COMPAT  = T    GGA compatible to vasp.4.4-vasp.4.6
   LMAXPAW     = -100 max onsite density
   LMAXMIX     =    2 max onsite mixed and CHGCAR
   VOSKOWN=      0    Vosko Wilk Nusair interpolation
   ROPT   =    0.00000   0.00000
 Ionic relaxation
   EDIFFG = 0.1E-04   stopping-criterion for IOM
   NSW    =      0    number of steps for IOM
   NBLOCK =      1;   KBLOCK =      1    inner block; outer block 
   IBRION =     -1    ionic relax: 0-MD 1-quasi-New 2-CG
   NFREE  =      0    steps in history (QN), initial steepest desc. (CG)
   ISIF   =      0    stress and relaxation
   IWAVPR =     10    prediction:  0-non 1-charg 2-wave 3-comb
   ISYM   =      2    0-nonsym 1-usesym 2-fastsym
   LCORR  =      T    Harris-Foulkes like correction to forces

   POTIM  = 0.5000    time-step for ionic-motion
   TEIN   =    0.0    initial temperature
   TEBEG  =    0.0;   TEEND  =   0.0 temperature during run
   SMASS  =  -3.00    Nose mass-parameter (am)
   estimated Nose-frequenzy (Omega)   =  0.10E-29 period in steps = 0.13E+47 mass=  -0.347E-26a.u.
   SCALEE = 1.0000    scale energy and forces
   NPACO  =    256;   APACO  = 16.0  distance and # of slots for P.C.
   PSTRESS=    0.0 pullay stress

  Mass of Ions in am
   POMASS =  12.01 16.00
  Ionic Valenz
   ZVAL   =   4.00  6.00
  Atomic Wigner-Seitz radii
   RWIGS  =  -1.00 -1.00
  virtual crystal weights 
   VCA    =   1.00  1.00
   NELECT =     216.0000    total number of electrons
   NUPDOWN=      -1.0000    fix difference up-down

 DOS related values:
   EMIN   =  10.00;   EMAX   =-10.00  energy-range for DOS
   EFERMI =   0.00
   ISMEAR =     0;   SIGMA  =   0.01  broadening in eV -4-tet -1-fermi 0-gaus

 Electronic relaxation 2 (details)
   IALGO  =     58    algorithm
   LDIAG  =      T    sub-space diagonalisation (order eigenvalues)
   LSUBROT=      F    optimize rotation matrix (better conditioning)
   TURBO    =      0    0=normal 1=particle mesh
   IRESTART =      0    0=no restart 2=restart with 2 vectors
   NREBOOT  =      0    no. of reboots
   NMIN     =      0    reboot dimension
   EREF     =   0.00    reference energy to select bands
   IMIX   =      4    mixing-type and parameters
     AMIX     =   0.40;   BMIX     =  1.00
     AMIX_MAG =   1.60;   BMIX_MAG =  1.00
     AMIN     =   0.10
     WC   =   100.;   INIMIX=   1;  MIXPRE=   1;  MAXMIX= -45

 Intra band minimization:
   WEIMIN = 0.0000     energy-eigenvalue tresh-hold
   EBREAK =  0.18E-08  absolut break condition
   DEPER  =   0.30     relativ break condition  

   TIME   =   0.40     timestep for ELM

  volume/ion in A,a.u.               =      62.05       418.76
  Fermi-wavevector in a.u.,A,eV,Ry     =   0.660508  1.248179  5.935820  0.436270
  Thomas-Fermi vector in A             =   1.732977
 
 Write flags
   LWAVE        =      F    write WAVECAR
   LDOWNSAMPLE  =      F    k-point downsampling of WAVECAR
   LCHARG       =      T    write CHGCAR
   LVTOT        =      F    write LOCPOT, total local potential
   LVHAR        =      F    write LOCPOT, Hartree potential only
   LELF         =      F    write electronic localiz. function (ELF)
   LORBIT       =      0    0 simple, 1 ext, 2 COOP (PROOUT), +10 PAW based schemes


 Dipole corrections
   LMONO  =      F    monopole corrections only (constant potential shift)
   LDIPOL =      F    correct potential (dipole corrections)
   IDIPOL =      0    1-x, 2-y, 3-z, 4-all directions 
   EPSILON=  1.0000000 bulk dielectric constant

 Exchange correlation treatment:
   GGA     =    RE    GGA type
   LEXCH   =    40    internal setting for exchange type
   VOSKOWN=      0    Vosko Wilk Nusair interpolation
   LHFCALC =     F    Hartree Fock is set to
   LHFONE  =     F    Hartree Fock one center treatment
   AEXX    =    0.0000 exact exchange contribution

 Linear response parameters
   LEPSILON=     F    determine dielectric tensor
   LRPA    =     F    only Hartree local field effects (RPA)
   LNABLA  =     F    use nabla operator in PAW spheres
   LVEL    =     F    velocity operator in full k-point grid
   LINTERFAST=   F  fast interpolation
   KINTER  =     0    interpolate to denser k-point grid
   CSHIFT  =0.1000    complex shift for real part using Kramers Kronig
   OMEGAMAX=  -1.0    maximum frequency
   DEG_THRESHOLD= 0.2000000E-02 threshold for treating states as degnerate
   RTIME   =   -0.100 relaxation time in fs
  (WPLASMAI=    0.000 imaginary part of plasma frequency in eV, 0.658/RTIME)
   DFIELD  = 0.0000000 0.0000000 0.0000000 field for delta impulse in time
 
 Orbital magnetization related:
   ORBITALMAG=     F  switch on orbital magnetization
   LCHIMAG   =     F  perturbation theory with respect to B field
   DQ        =  0.001000  dq finite difference perturbation B field
   LLRAUG    =     F  two centre corrections for induced B field



--------------------------------------------------------------------------------------------------------


 Static calculation
 charge density and potential will be updated during run
 non-spin polarized calculation
 Conjugate gradient for all bands (Freysoldt, et al. PRB 79, 241103 (2009))
 preconditioned conjugated gradient                                        
 perform sub-space diagonalisation
    before iterative eigenvector-optimisation
 modified Broyden-mixing scheme, WC =      100.0
 initial mixing is a Kerker type mixing with AMIX =  0.4000 and BMIX =      1.0000
 Hartree-type preconditioning will be used
 using additional bands           32
 reciprocal scheme for non local part
 use partial core corrections
 no Harris-corrections to forces 
 use gradient corrections 
 use of overlap-Matrix (Vanderbilt PP)
 Gauss-broadening in eV      SIGMA  =   0.01


--------------------------------------------------------------------------------------------------------


  energy-cutoff  :     1000.00
  volume of cell :     3288.85
      direct lattice vectors                 reciprocal lattice vectors
    12.325000000  0.000000000  0.000000000     0.081135903  0.046843835  0.000000000
    -6.162500000 10.673763102  0.000000000     0.000000000  0.093687670  0.000000000
     0.000000000  0.000000000 25.000000000     0.000000000  0.000000000  0.040000000

  length of vectors
    12.325000000 12.325000000 25.000000000     0.093687670  0.093687670  0.040000000


 
 k-points in units of 2pi/SCALE and weight: auto                                    
   0.00000000  0.00000000  0.00000000       1.000
 
 k-points in reciprocal lattice and weights: auto                                    
   0.00000000  0.00000000  0.00000000       1.000
 
 position of ions in fractional coordinates (direct lattice) 
   0.97245084  0.00032082  0.00056671
   0.03911838  0.13365950  0.00044017
   0.17244363  0.00029545  0.00049963
   0.23909628  0.13364792  0.00025647
   0.97245206  0.20032201  0.00048522
   0.03912836  0.33364377  0.00044415
   0.17245176  0.20035455  0.00021917
   0.23912436  0.33366572  0.00007226
   0.37246557  0.00032440  0.00045391
   0.43913747  0.13361994  0.00025834
   0.97244982  0.40030936  0.00054761
   0.03912498  0.53363679  0.00057341
   0.37241618  0.40032948  0.00000000
   0.43909960  0.53363898  0.00023241
   0.57244368  0.00031213  0.00055958
   0.63911021  0.13363175  0.00054727
   0.97245270  0.60030565  0.00064029
   0.03912449  0.73364036  0.00065451
   0.57243347  0.60030624  0.00040289
   0.63911189  0.73364188  0.00052791
   0.17245463  0.40031823  0.00028904
   0.23912018  0.53363655  0.00037851
   0.37245975  0.20029599  0.00008900
   0.43910710  0.33367342  0.00005576
   0.17245216  0.60031151  0.00052434
   0.23912337  0.73363857  0.00057513
   0.57243108  0.20028917  0.00041330
   0.63911277  0.33361863  0.00046238
   0.37243981  0.60030802  0.00036284
   0.43911609  0.73363786  0.00049419
   0.57246936  0.40032050  0.00033992
   0.63911941  0.53365087  0.00045961
   0.77244572  0.00031543  0.00059616
   0.83911628  0.13364020  0.00057531
   0.77244051  0.20030743  0.00058103
   0.83912024  0.33363573  0.00058547
   0.77244632  0.40029837  0.00058298
   0.83911898  0.53363396  0.00062110
   0.77245614  0.60030817  0.00059571
   0.83911503  0.73364318  0.00063151
   0.97245531  0.80030558  0.00065223
   0.03911471  0.93364329  0.00059805
   0.17245797  0.80031221  0.00062337
   0.23913455  0.93364719  0.00054485
   0.37245140  0.80031667  0.00055140
   0.43912449  0.93364477  0.00054143
   0.57244110  0.80031005  0.00053453
   0.63911507  0.93363899  0.00058764
   0.77244510  0.80031319  0.00060206
   0.83911661  0.93364434  0.00060683
   0.37302101  0.25122688  0.35635949
   0.42087980  0.18931315  0.35893636
   0.32515698  0.31316719  0.35398129
 
 position of ions in cartesian coordinates  (Angst):
  11.98347958  0.00342433  0.01416777
  -0.34154264  1.42664989  0.01100432
   2.12354700  0.00315355  0.01249070
   2.12325634  1.42652621  0.00641170
  10.75098721  2.13818970  0.01213047
  -1.57382270  3.56123457  0.01110375
   0.89078307  2.13853702  0.00547917
   0.89099273  3.56146885  0.00180651
   4.58863896  0.00346260  0.01134782
   4.58893648  1.42622757  0.00645846
   9.51853763  4.27280730  0.01369027
  -2.80632132  5.69591267  0.01433526
   2.12299894  4.27302204  0.00000000
   2.12335237  5.69593607  0.00581036
   7.05344483  0.00333155  0.01398950
   7.05352764  1.42635365  0.01368187
   8.28609598  6.40752033  0.01600723
  -4.03884931  7.83070339  0.01636283
   3.35585531  6.40752662  0.01007237
   3.35598594  7.83071962  0.01319763
  -0.34145776  4.27290193  0.00722612
  -0.34137895  5.69591010  0.00946273
   3.35624236  2.13791198  0.00222492
   3.35573251  3.56155103  0.00139405
  -1.57394684  6.40758280  0.01310850
  -1.57385216  7.83068434  0.01437823
   5.82093107  2.13783916  0.01033241
   5.82114012  3.56096622  0.01155939
   0.89092245  6.40754561  0.00907111
   0.89106251  7.83067670  0.01235474
   4.58870974  4.27292622  0.00849795
   4.58852320  5.69606300  0.01149026
   9.51844972  0.00336679  0.01490402
   9.51855036  1.42644387  0.01438264
   8.28593477  2.13803408  0.01452582
   8.28612680  3.56114872  0.01463668
   7.05356221  4.27268994  0.01457444
   7.05362213  5.69588251  0.01552751
   5.82112285  6.40754723  0.01489279
   5.82101669  7.83073350  0.01578780
   7.05362858  8.54227219  0.01630582
  -5.27148792  9.96548729  0.01495127
  -2.80637951  8.54234295  0.01558431
  -2.80626749  9.96552896  0.01362126
  -0.34148805  8.54239058  0.01378498
  -0.34137657  9.96550309  0.01353576
   2.12342586  8.54231992  0.01336337
   2.12354296  9.96544135  0.01469111
   4.58845581  8.54235337  0.01505154
   4.58852904  9.96549848  0.01517076
   3.04929830  2.68153618  8.90898718
   4.02070129  2.02068374  8.97340904
   2.07766701  3.34267235  8.84953231
 


--------------------------------------------------------------------------------------------------------


 k-point   1 :   0.0000 0.0000 0.0000  plane waves:  236157

 maximum and minimum number of plane-waves per node :     59046    59034

 maximum number of plane-waves:    236157
 maximum index in each direction: 
   IXMAX=   31   IYMAX=   31   IZMAX=   64
   IXMIN=  -31   IYMIN=  -31   IZMIN=  -64


 parallel 3D FFT for wavefunctions:
    minimum data exchange during FFTs selected (reduces bandwidth)
 parallel 3D FFT for charge:
    minimum data exchange during FFTs selected (reduces bandwidth)


 total amount of memory used by VASP MPI-rank0   215378. kBytes
=======================================================================

   base      :      30000. kBytes
   nonl-proj :      57634. kBytes
   fftplans  :      45914. kBytes
   grid      :      67588. kBytes
   one-center:         43. kBytes
   wavefun   :      14199. kBytes
 
     INWAV:  cpu time    0.0000: real time    0.0000
 Broyden mixing: mesh for mixing (old mesh)
   NGX = 63   NGY = 63   NGZ =129
  (NGX  =256   NGY  =256   NGZ  =540)
  gives a total of 512001 points

 initial charge density was supplied:
 charge density of overlapping atoms calculated
 number of electron     216.0000000 magnetization 
 keeping initial charge density in first step


--------------------------------------------------------------------------------------------------------


 Maximum index for augmentation-charges          471 (set IRDMAX)


--------------------------------------------------------------------------------------------------------


 First call to EWALD:  gamma=   0.119
 Maximum number of real-space cells 4x 4x 2
 Maximum number of reciprocal cells 2x 2x 4

    FEWALD:  cpu time    0.0024: real time    0.0025


--------------------------------------- Iteration      1(   1)  ---------------------------------------


    POTLOK:  cpu time    0.4019: real time    0.4062
    SETDIJ:  cpu time    0.0045: real time    0.0046
    TRIAL :  cpu time    5.6094: real time    5.6729
    CORREC:  cpu time    0.0007: real time    0.0007
    --------------------------------------------
      LOOP:  cpu time    6.0212: real time    6.1004

 eigenvalue-minimisations  :   280
 total energy-change (2. order) : 0.2770906E+04  (-0.1022607E+05)
 number of electron     216.0000000 magnetization 
 augmentation part      216.0000000 magnetization 

 Free energy of the ion-electron system (eV)
  ---------------------------------------------------
  alpha Z        PSCENC =        47.94900195
  Ewald energy   TEWEN  =     40970.05347293
  -Hartree energ DENC   =    -47039.28430944
  -exchange      EXHF   =         0.00000000
  -V(xc)+E(xc)   XCENC  =       415.89450407
  PAW double counting   =      6538.03749920    -6258.26020123
  entropy T*S    EENTRO =        -0.00084806
  eigenvalues    EBANDS =      -267.79192273
  atomic energy  EATOM  =      8364.30921166
  ---------------------------------------------------
  free energy    TOTEN  =      2770.90640835 eV

  energy without entropy =     2770.90725641  energy(sigma->0) =     2770.90683238


--------------------------------------------------------------------------------------------------------




--------------------------------------- Iteration      1(   2)  ---------------------------------------


    TRIAL :  cpu time    8.9577: real time    9.0523
    CORREC:  cpu time    0.0001: real time    0.0001
    --------------------------------------------
      LOOP:  cpu time    9.0261: real time    9.1216

 eigenvalue-minimisations  :   504
 total energy-change (2. order) :-0.2489663E+04  (-0.2362409E+04)
 number of electron     216.0000000 magnetization 
 augmentation part      216.0000000 magnetization 

 Free energy of the ion-electron system (eV)
  ---------------------------------------------------
  alpha Z        PSCENC =        47.94900195
  Ewald energy   TEWEN  =     40970.05347293
  -Hartree energ DENC   =    -47039.28430944
  -exchange      EXHF   =         0.00000000
  -V(xc)+E(xc)   XCENC  =       415.89450407
  PAW double counting   =      6538.03749920    -6258.26020123
  entropy T*S    EENTRO =        -0.00000000
  eigenvalues    EBANDS =     -2757.45586298
  atomic energy  EATOM  =      8364.30921166
  ---------------------------------------------------
  free energy    TOTEN  =       281.24331616 eV

  energy without entropy =      281.24331616  energy(sigma->0) =      281.24331616


--------------------------------------------------------------------------------------------------------




--------------------------------------- Iteration      1(   3)  ---------------------------------------


    TRIAL :  cpu time    6.8736: real time    6.9334
    CORREC:  cpu time    0.0001: real time    0.0001
    --------------------------------------------
      LOOP:  cpu time    6.9237: real time    6.9841

 eigenvalue-minimisations  :   364
 total energy-change (2. order) :-0.7347205E+03  (-0.7298895E+03)
 number of electron     216.0000000 magnetization 
 augmentation part      216.0000000 magnetization 

 Free energy of the ion-electron system (eV)
  ---------------------------------------------------
  alpha Z        PSCENC =        47.94900195
  Ewald energy   TEWEN  =     40970.05347293
  -Hartree energ DENC   =    -47039.28430944
  -exchange      EXHF   =         0.00000000
  -V(xc)+E(xc)   XCENC  =       415.89450407
  PAW double counting   =      6538.03749920    -6258.26020123
  entropy T*S    EENTRO =        -0.00000000
  eigenvalues    EBANDS =     -3492.17632024
  atomic energy  EATOM  =      8364.30921166
  ---------------------------------------------------
  free energy    TOTEN  =      -453.47714110 eV

  energy without entropy =     -453.47714110  energy(sigma->0) =     -453.47714110


--------------------------------------------------------------------------------------------------------




--------------------------------------- Iteration      1(   4)  ---------------------------------------


    TRIAL :  cpu time    6.4408: real time    6.4966
    CORREC:  cpu time    0.0001: real time    0.0001
    --------------------------------------------
      LOOP:  cpu time    6.4520: real time    6.5232

 eigenvalue-minimisations  :   336
 total energy-change (2. order) :-0.4384063E+02  (-0.4362418E+02)
 number of electron     216.0000000 magnetization 
 augmentation part      216.0000000 magnetization 

 Free energy of the ion-electron system (eV)
  ---------------------------------------------------
  alpha Z        PSCENC =        47.94900195
  Ewald energy   TEWEN  =     40970.05347293
  -Hartree energ DENC   =    -47039.28430944
  -exchange      EXHF   =         0.00000000
  -V(xc)+E(xc)   XCENC  =       415.89450407
  PAW double counting   =      6538.03749920    -6258.26020123
  entropy T*S    EENTRO =        -0.00000000
  eigenvalues    EBANDS =     -3536.01695121
  atomic energy  EATOM  =      8364.30921166
  ---------------------------------------------------
  free energy    TOTEN  =      -497.31777206 eV

  energy without entropy =     -497.31777206  energy(sigma->0) =     -497.31777206


--------------------------------------------------------------------------------------------------------




--------------------------------------- Iteration      1(   5)  ---------------------------------------


    TRIAL :  cpu time    7.7109: real time    7.7796
    CORREC:  cpu time    0.0001: real time    0.0001
    CHARGE:  cpu time    0.3126: real time    0.3164
    --------------------------------------------
      LOOP:  cpu time    8.0726: real time    8.1469

 eigenvalue-minimisations  :   420
 total energy-change (2. order) :-0.1298274E+01  (-0.1295177E+01)
 number of electron     216.0000000 magnetization 
 augmentation part       -0.3127879 magnetization 

 Free energy of the ion-electron system (eV)
  ---------------------------------------------------
  alpha Z        PSCENC =        47.94900195
  Ewald energy   TEWEN  =     40970.05347293
  -Hartree energ DENC   =    -47039.28430944
  -exchange      EXHF   =         0.00000000
  -V(xc)+E(xc)   XCENC  =       415.89450407
  PAW double counting   =      6538.03749920    -6258.26020123
  entropy T*S    EENTRO =        -0.00000000
  eigenvalues    EBANDS =     -3537.31522502
  atomic energy  EATOM  =      8364.30921166
  ---------------------------------------------------
  free energy    TOTEN  =      -498.61604588 eV

  energy without entropy =     -498.61604588  energy(sigma->0) =     -498.61604588


--------------------------------------------------------------------------------------------------------




--------------------------------------- Iteration      1(   6)  ---------------------------------------


    POTLOK:  cpu time    0.3853: real time    0.3883
    SETDIJ:  cpu time    0.0027: real time    0.0027
    TRIAL :  cpu time    2.6952: real time    2.7189
    CORREC:  cpu time    1.0792: real time    1.0878
    CHARGE:  cpu time    0.3146: real time    0.3168
    --------------------------------------------
      LOOP:  cpu time    4.5221: real time    4.5761

 eigenvalue-minimisations  :     0
 total energy-change (2. order) : 0.4865951E+02  (-0.1442531E+02)
 number of electron     216.0000000 magnetization 
 augmentation part       -0.4042004 magnetization 

 Free energy of the ion-electron system (eV)
  ---------------------------------------------------
  alpha Z        PSCENC =        47.94900195
  Ewald energy   TEWEN  =     40970.05347293
  -Hartree energ DENC   =    -48467.50100192
  -exchange      EXHF   =         0.00000000
  -V(xc)+E(xc)   XCENC  =       462.94422569
  PAW double counting   =    104274.24555114  -103999.82084159
  entropy T*S    EENTRO =        -0.00000000
  eigenvalues    EBANDS =     -2102.13616051
  atomic energy  EATOM  =      8364.30921166
  ---------------------------------------------------
  free energy    TOTEN  =      -449.95654064 eV

  energy without entropy =     -449.95654064  energy(sigma->0) =     -449.95654064


--------------------------------------------------------------------------------------------------------




--------------------------------------- Iteration      1(   7)  ---------------------------------------


    POTLOK:  cpu time    0.3889: real time    0.3915
    SETDIJ:  cpu time    0.0030: real time    0.0030
    TRIAL :  cpu time    2.6973: real time    2.7226
    CORREC:  cpu time    1.0872: real time    1.0953
    CHARGE:  cpu time    0.3144: real time    0.3165
    --------------------------------------------
      LOOP:  cpu time    4.5707: real time    4.6104

 eigenvalue-minimisations  :     0
 total energy-change (2. order) :-0.1446349E+02  (-0.1766292E+01)
 number of electron     216.0000000 magnetization 
 augmentation part       -0.4506902 magnetization 

 Free energy of the ion-electron system (eV)
  ---------------------------------------------------
  alpha Z        PSCENC =        47.94900195
  Ewald energy   TEWEN  =     40970.05347293
  -Hartree energ DENC   =    -47975.03682187
  -exchange      EXHF   =         0.00000000
  -V(xc)+E(xc)   XCENC  =       446.75021171
  PAW double counting   =    120488.91252914  -120212.42672551
  entropy T*S    EENTRO =        -0.00000000
  eigenvalues    EBANDS =     -2594.93091360
  atomic energy  EATOM  =      8364.30921166
  ---------------------------------------------------
  free energy    TOTEN  =      -464.42003359 eV

  energy without entropy =     -464.42003359  energy(sigma->0) =     -464.42003359


--------------------------------------------------------------------------------------------------------




--------------------------------------- Iteration      1(   8)  ---------------------------------------


    POTLOK:  cpu time    0.3910: real time    0.3936
    SETDIJ:  cpu time    0.0027: real time    0.0028
    TRIAL :  cpu time    2.7104: real time    2.7343
    CORREC:  cpu time    1.0837: real time    1.0915
    CHARGE:  cpu time    0.3150: real time    0.3171
    --------------------------------------------
      LOOP:  cpu time    4.5502: real time    4.5904

 eigenvalue-minimisations  :     0
 total energy-change (2. order) :-0.1765133E+01  (-0.4588693E+00)
 number of electron     216.0000000 magnetization 
 augmentation part       -0.4670742 magnetization 

 Free energy of the ion-electron system (eV)
  ---------------------------------------------------
  alpha Z        PSCENC =        47.94900195
  Ewald energy   TEWEN  =     40970.05347293
  -Hartree energ DENC   =    -47944.56174886
  -exchange      EXHF   =         0.00000000
  -V(xc)+E(xc)   XCENC  =       446.16135219
  PAW double counting   =    124718.66640662  -124441.88839899
  entropy T*S    EENTRO =        -0.00000000
  eigenvalues    EBANDS =     -2626.87446427
  atomic energy  EATOM  =      8364.30921166
  ---------------------------------------------------
  free energy    TOTEN  =      -466.18516677 eV

  energy without entropy =     -466.18516677  energy(sigma->0) =     -466.18516677


--------------------------------------------------------------------------------------------------------




--------------------------------------- Iteration      1(   9)  ---------------------------------------


    POTLOK:  cpu time    0.3869: real time    0.3894
    SETDIJ:  cpu time    0.0028: real time    0.0028
    TRIAL :  cpu time    2.6962: real time    2.7200
    CORREC:  cpu time    1.0868: real time    1.0951
    CHARGE:  cpu time    0.3140: real time    0.3162
    --------------------------------------------
      LOOP:  cpu time    4.5578: real time    4.5983

 eigenvalue-minimisations  :     0
 total energy-change (2. order) :-0.4586913E+00  (-0.1455549E+00)
 number of electron     216.0000000 magnetization 
 augmentation part       -0.4742439 magnetization 

 Free energy of the ion-electron system (eV)
  ---------------------------------------------------
  alpha Z        PSCENC =        47.94900195
  Ewald energy   TEWEN  =     40970.05347293
  -Hartree energ DENC   =    -47961.69712727
  -exchange      EXHF   =         0.00000000
  -V(xc)+E(xc)   XCENC  =       446.36927996
  PAW double counting   =    127222.61095963  -126945.73117286
  entropy T*S    EENTRO =        -0.00000000
  eigenvalues    EBANDS =     -2610.50748404
  atomic energy  EATOM  =      8364.30921166
  ---------------------------------------------------
  free energy    TOTEN  =      -466.64385803 eV

  energy without entropy =     -466.64385803  energy(sigma->0) =     -466.64385803


--------------------------------------------------------------------------------------------------------




--------------------------------------- Iteration      1(  10)  ---------------------------------------


    POTLOK:  cpu time    0.3871: real time    0.3894
    SETDIJ:  cpu time    0.0030: real time    0.0030
    TRIAL :  cpu time    2.6961: real time    2.7201
    CORREC:  cpu time    1.0831: real time    1.0911
    CHARGE:  cpu time    0.3145: real time    0.3166
    --------------------------------------------
      LOOP:  cpu time    4.5453: real time    4.6040

 eigenvalue-minimisations  :     0
 total energy-change (2. order) :-0.1453415E+00  (-0.5895095E-01)
 number of electron     216.0000000 magnetization 
 augmentation part       -0.4749876 magnetization 

 Free energy of the ion-electron system (eV)
  ---------------------------------------------------
  alpha Z        PSCENC =        47.94900195
  Ewald energy   TEWEN  =     40970.05347293
  -Hartree energ DENC   =    -47963.45122242
  -exchange      EXHF   =         0.00000000
  -V(xc)+E(xc)   XCENC  =       446.29685166
  PAW double counting   =    127482.43706137  -127205.49584801
  entropy T*S    EENTRO =        -0.00000000
  eigenvalues    EBANDS =     -2608.88772868
  atomic energy  EATOM  =      8364.30921166
  ---------------------------------------------------
  free energy    TOTEN  =      -466.78919954 eV

  energy without entropy =     -466.78919954  energy(sigma->0) =     -466.78919954


--------------------------------------------------------------------------------------------------------




--------------------------------------- Iteration      1(  11)  ---------------------------------------


    POTLOK:  cpu time    0.3896: real time    0.3923
    SETDIJ:  cpu time    0.0029: real time    0.0029
    TRIAL :  cpu time    2.6975: real time    2.7235
    CORREC:  cpu time    1.0915: real time    1.0996
    CHARGE:  cpu time    0.3141: real time    0.3162
    --------------------------------------------
      LOOP:  cpu time    4.5688: real time    4.6128

 eigenvalue-minimisations  :     0
 total energy-change (2. order) :-0.5880291E-01  (-0.2435559E-01)
 number of electron     216.0000000 magnetization 
 augmentation part       -0.4747370 magnetization 

 Free energy of the ion-electron system (eV)
  ---------------------------------------------------
  alpha Z        PSCENC =        47.94900195
  Ewald energy   TEWEN  =     40970.05347293
  -Hartree energ DENC   =    -47959.73636446
  -exchange      EXHF   =         0.00000000
  -V(xc)+E(xc)   XCENC  =       446.23656960
  PAW double counting   =    126890.32602079  -126613.38497493
  entropy T*S    EENTRO =        -0.00000000
  eigenvalues    EBANDS =     -2612.60093999
  atomic energy  EATOM  =      8364.30921166
  ---------------------------------------------------
  free energy    TOTEN  =      -466.84800244 eV

  energy without entropy =     -466.84800244  energy(sigma->0) =     -466.84800244


--------------------------------------------------------------------------------------------------------




--------------------------------------- Iteration      1(  12)  ---------------------------------------


    POTLOK:  cpu time    0.3875: real time    0.3899
    SETDIJ:  cpu time    0.0027: real time    0.0027
    TRIAL :  cpu time    2.6952: real time    2.7201
    CORREC:  cpu time    1.0831: real time    1.0911
    CHARGE:  cpu time    0.3140: real time    0.3160
    --------------------------------------------
      LOOP:  cpu time    4.5459: real time    4.5865

 eigenvalue-minimisations  :     0
 total energy-change (2. order) :-0.2424816E-01  (-0.8626200E-02)
 number of electron     216.0000000 magnetization 
 augmentation part       -0.4749426 magnetization 

 Free energy of the ion-electron system (eV)
  ---------------------------------------------------
  alpha Z        PSCENC =        47.94900195
  Ewald energy   TEWEN  =     40970.05347293
  -Hartree energ DENC   =    -47958.12179720
  -exchange      EXHF   =         0.00000000
  -V(xc)+E(xc)   XCENC  =       446.20227081
  PAW double counting   =    126493.23144760  -126216.30599746
  entropy T*S    EENTRO =        -0.00000000
  eigenvalues    EBANDS =     -2614.18986091
  atomic energy  EATOM  =      8364.30921166
  ---------------------------------------------------
  free energy    TOTEN  =      -466.87225060 eV

  energy without entropy =     -466.87225060  energy(sigma->0) =     -466.87225060


--------------------------------------------------------------------------------------------------------




--------------------------------------- Iteration      1(  13)  ---------------------------------------


    POTLOK:  cpu time    0.3888: real time    0.3912
    SETDIJ:  cpu time    0.0028: real time    0.0029
    TRIAL :  cpu time    2.6962: real time    2.7200
    CORREC:  cpu time    1.0825: real time    1.0903
    CHARGE:  cpu time    0.3134: real time    0.3155
    --------------------------------------------
      LOOP:  cpu time    4.5043: real time    4.5514

 eigenvalue-minimisations  :     0
 total energy-change (2. order) :-0.8607769E-02  (-0.2604505E-02)
 number of electron     216.0000000 magnetization 
 augmentation part       -0.4745654 magnetization 

 Free energy of the ion-electron system (eV)
  ---------------------------------------------------
  alpha Z        PSCENC =        47.94900195
  Ewald energy   TEWEN  =     40970.05347293
  -Hartree energ DENC   =    -47958.19191158
  -exchange      EXHF   =         0.00000000
  -V(xc)+E(xc)   XCENC  =       446.19788400
  PAW double counting   =    126409.64722812  -126132.72770850
  entropy T*S    EENTRO =        -0.00000000
  eigenvalues    EBANDS =     -2614.11803695
  atomic energy  EATOM  =      8364.30921166
  ---------------------------------------------------
  free energy    TOTEN  =      -466.88085837 eV

  energy without entropy =     -466.88085837  energy(sigma->0) =     -466.88085837


--------------------------------------------------------------------------------------------------------




--------------------------------------- Iteration      1(  14)  ---------------------------------------


    POTLOK:  cpu time    0.3863: real time    0.3887
    SETDIJ:  cpu time    0.0028: real time    0.0028
    TRIAL :  cpu time    2.6974: real time    2.7213
    CORREC:  cpu time    1.0788: real time    1.0872
    CHARGE:  cpu time    0.3140: real time    0.3162
    --------------------------------------------
      LOOP:  cpu time    4.5357: real time    4.5939

 eigenvalue-minimisations  :     0
 total energy-change (2. order) :-0.2606946E-02  (-0.7798144E-03)
 number of electron     216.0000000 magnetization 
 augmentation part       -0.4742842 magnetization 

 Free energy of the ion-electron system (eV)
  ---------------------------------------------------
  alpha Z        PSCENC =        47.94900195
  Ewald energy   TEWEN  =     40970.05347293
  -Hartree energ DENC   =    -47958.14197007
  -exchange      EXHF   =         0.00000000
  -V(xc)+E(xc)   XCENC  =       446.19897767
  PAW double counting   =    126472.20151683  -126195.28337031
  entropy T*S    EENTRO =        -0.00000000
  eigenvalues    EBANDS =     -2614.17030598
  atomic energy  EATOM  =      8364.30921166
  ---------------------------------------------------
  free energy    TOTEN  =      -466.88346532 eV

  energy without entropy =     -466.88346532  energy(sigma->0) =     -466.88346532


--------------------------------------------------------------------------------------------------------




--------------------------------------- Iteration      1(  15)  ---------------------------------------


    POTLOK:  cpu time    0.3812: real time    0.3850
    SETDIJ:  cpu time    0.0027: real time    0.0028
    TRIAL :  cpu time    2.6809: real time    2.7203
    CORREC:  cpu time    1.0795: real time    1.0930
    CHARGE:  cpu time    0.3112: real time    0.3156
    --------------------------------------------
      LOOP:  cpu time    4.5134: real time    4.5979

 eigenvalue-minimisations  :     0
 total energy-change (2. order) :-0.7829891E-03  (-0.2915954E-03)
 number of electron     216.0000000 magnetization 
 augmentation part       -0.4739253 magnetization 

 Free energy of the ion-electron system (eV)
  ---------------------------------------------------
  alpha Z        PSCENC =        47.94900195
  Ewald energy   TEWEN  =     40970.05347293
  -Hartree energ DENC   =    -47957.77042064
  -exchange      EXHF   =         0.00000000
  -V(xc)+E(xc)   XCENC  =       446.18478845
  PAW double counting   =    126510.50580439  -126233.58612614
  entropy T*S    EENTRO =        -0.00000000
  eigenvalues    EBANDS =     -2614.52998091
  atomic energy  EATOM  =      8364.30921166
  ---------------------------------------------------
  free energy    TOTEN  =      -466.88424831 eV

  energy without entropy =     -466.88424831  energy(sigma->0) =     -466.88424831


--------------------------------------------------------------------------------------------------------




--------------------------------------- Iteration      1(  16)  ---------------------------------------


    POTLOK:  cpu time    0.3801: real time    0.3841
    SETDIJ:  cpu time    0.0028: real time    0.0028
    TRIAL :  cpu time    2.6835: real time    2.7224
    CORREC:  cpu time    1.0737: real time    1.0877
    CHARGE:  cpu time    0.3116: real time    0.3150
    --------------------------------------------
      LOOP:  cpu time    4.5011: real time    4.5639

 eigenvalue-minimisations  :     0
 total energy-change (2. order) :-0.2938409E-03  (-0.1224495E-03)
 number of electron     216.0000000 magnetization 
 augmentation part       -0.4737314 magnetization 

 Free energy of the ion-electron system (eV)
  ---------------------------------------------------
  alpha Z        PSCENC =        47.94900195
  Ewald energy   TEWEN  =     40970.05347293
  -Hartree energ DENC   =    -47957.91761972
  -exchange      EXHF   =         0.00000000
  -V(xc)+E(xc)   XCENC  =       446.19077879
  PAW double counting   =    126485.32289084  -126208.40409665
  entropy T*S    EENTRO =        -0.00000000
  eigenvalues    EBANDS =     -2614.38818196
  atomic energy  EATOM  =      8364.30921166
  ---------------------------------------------------
  free energy    TOTEN  =      -466.88454215 eV

  energy without entropy =     -466.88454215  energy(sigma->0) =     -466.88454215


--------------------------------------------------------------------------------------------------------




--------------------------------------- Iteration      1(  17)  ---------------------------------------


    POTLOK:  cpu time    0.3836: real time    0.3863
    SETDIJ:  cpu time    0.0029: real time    0.0029
    TRIAL :  cpu time    2.6932: real time    2.7205
    CORREC:  cpu time    1.0833: real time    1.0931
    CHARGE:  cpu time    0.3133: real time    0.3161
    --------------------------------------------
      LOOP:  cpu time    4.5446: real time    4.5885

 eigenvalue-minimisations  :     0
 total energy-change (2. order) :-0.1238367E-03  (-0.4811089E-04)
 number of electron     216.0000000 magnetization 
 augmentation part       -0.4737188 magnetization 

 Free energy of the ion-electron system (eV)
  ---------------------------------------------------
  alpha Z        PSCENC =        47.94900195
  Ewald energy   TEWEN  =     40970.05347293
  -Hartree energ DENC   =    -47958.02660529
  -exchange      EXHF   =         0.00000000
  -V(xc)+E(xc)   XCENC  =       446.19315458
  PAW double counting   =    126447.54192358  -126170.62334239
  entropy T*S    EENTRO =        -0.00000000
  eigenvalues    EBANDS =     -2614.28148300
  atomic energy  EATOM  =      8364.30921166
  ---------------------------------------------------
  free energy    TOTEN  =      -466.88466599 eV

  energy without entropy =     -466.88466599  energy(sigma->0) =     -466.88466599


--------------------------------------------------------------------------------------------------------




--------------------------------------- Iteration      1(  18)  ---------------------------------------


    POTLOK:  cpu time    0.3837: real time    0.3859
    SETDIJ:  cpu time    0.0028: real time    0.0028
    TRIAL :  cpu time    2.7156: real time    2.7397
    CORREC:  cpu time    1.0829: real time    1.0911
    CHARGE:  cpu time    0.3148: real time    0.3169
    --------------------------------------------
      LOOP:  cpu time    4.5419: real time    4.5829

 eigenvalue-minimisations  :     0
 total energy-change (2. order) :-0.4835232E-04  (-0.1852842E-04)
 number of electron     216.0000000 magnetization 
 augmentation part       -0.4738083 magnetization 

 Free energy of the ion-electron system (eV)
  ---------------------------------------------------
  alpha Z        PSCENC =        47.94900195
  Ewald energy   TEWEN  =     40970.05347293
  -Hartree energ DENC   =    -47958.04011236
  -exchange      EXHF   =         0.00000000
  -V(xc)+E(xc)   XCENC  =       446.19335875
  PAW double counting   =    126435.23740659  -126158.31862194
  entropy T*S    EENTRO =        -0.00000000
  eigenvalues    EBANDS =     -2614.26843192
  atomic energy  EATOM  =      8364.30921166
  ---------------------------------------------------
  free energy    TOTEN  =      -466.88471434 eV

  energy without entropy =     -466.88471434  energy(sigma->0) =     -466.88471434


--------------------------------------------------------------------------------------------------------




--------------------------------------- Iteration      1(  19)  ---------------------------------------


    POTLOK:  cpu time    0.3814: real time    0.3837
    SETDIJ:  cpu time    0.0029: real time    0.0029
    TRIAL :  cpu time    2.7043: real time    2.7351
    CORREC:  cpu time    1.0828: real time    1.0935
    CHARGE:  cpu time    0.3180: real time    0.3201
    --------------------------------------------
      LOOP:  cpu time    4.6041: real time    4.6519

 eigenvalue-minimisations  :     0
 total energy-change (2. order) :-0.1815533E-04  (-0.6604003E-05)
 number of electron     216.0000000 magnetization 
 augmentation part       -0.4738861 magnetization 

 Free energy of the ion-electron system (eV)
  ---------------------------------------------------
  alpha Z        PSCENC =        47.94900195
  Ewald energy   TEWEN  =     40970.05347293
  -Hartree energ DENC   =    -47958.02887083
  -exchange      EXHF   =         0.00000000
  -V(xc)+E(xc)   XCENC  =       446.19296741
  PAW double counting   =    126440.21051257  -126163.29137773
  entropy T*S    EENTRO =        -0.00000000
  eigenvalues    EBANDS =     -2614.27965046
  atomic energy  EATOM  =      8364.30921166
  ---------------------------------------------------
  free energy    TOTEN  =      -466.88473249 eV

  energy without entropy =     -466.88473249  energy(sigma->0) =     -466.88473249


--------------------------------------------------------------------------------------------------------




--------------------------------------- Iteration      1(  20)  ---------------------------------------


    POTLOK:  cpu time    0.4407: real time    0.4433
    SETDIJ:  cpu time    0.0028: real time    0.0028
    TRIAL :  cpu time    2.6954: real time    2.7205
    CORREC:  cpu time    1.0774: real time    1.0865
    CHARGE:  cpu time    0.3146: real time    0.3171
    --------------------------------------------
      LOOP:  cpu time    4.5953: real time    4.6364

 eigenvalue-minimisations  :     0
 total energy-change (2. order) :-0.6015965E-05  (-0.2321588E-05)
 number of electron     216.0000000 magnetization 
 augmentation part       -0.4739186 magnetization 

 Free energy of the ion-electron system (eV)
  ---------------------------------------------------
  alpha Z        PSCENC =        47.94900195
  Ewald energy   TEWEN  =     40970.05347293
  -Hartree energ DENC   =    -47958.04586669
  -exchange      EXHF   =         0.00000000
  -V(xc)+E(xc)   XCENC  =       446.19347589
  PAW double counting   =    126446.84964216  -126169.93036552
  entropy T*S    EENTRO =        -0.00000000
  eigenvalues    EBANDS =     -2614.26331089
  atomic energy  EATOM  =      8364.30921166
  ---------------------------------------------------
  free energy    TOTEN  =      -466.88473851 eV

  energy without entropy =     -466.88473851  energy(sigma->0) =     -466.88473851


--------------------------------------------------------------------------------------------------------




--------------------------------------- Iteration      1(  21)  ---------------------------------------


    POTLOK:  cpu time    0.3810: real time    0.3834
    SETDIJ:  cpu time    0.0028: real time    0.0028
    TRIAL :  cpu time    2.7032: real time    2.7275
    CORREC:  cpu time    1.0775: real time    1.0858
    CHARGE:  cpu time    0.3140: real time    0.3162
    --------------------------------------------
      LOOP:  cpu time    4.5509: real time    4.5910

 eigenvalue-minimisations  :     0
 total energy-change (2. order) :-0.2096669E-05  (-0.9755319E-06)
 number of electron     216.0000000 magnetization 
 augmentation part       -0.4739161 magnetization 

 Free energy of the ion-electron system (eV)
  ---------------------------------------------------
  alpha Z        PSCENC =        47.94900195
  Ewald energy   TEWEN  =     40970.05347293
  -Hartree energ DENC   =    -47958.04294005
  -exchange      EXHF   =         0.00000000
  -V(xc)+E(xc)   XCENC  =       446.19329059
  PAW double counting   =    126448.66969845  -126171.75037831
  entropy T*S    EENTRO =        -0.00000000
  eigenvalues    EBANDS =     -2614.26609783
  atomic energy  EATOM  =      8364.30921166
  ---------------------------------------------------
  free energy    TOTEN  =      -466.88474061 eV

  energy without entropy =     -466.88474061  energy(sigma->0) =     -466.88474061


--------------------------------------------------------------------------------------------------------




--------------------------------------- Iteration      1(  22)  ---------------------------------------


    POTLOK:  cpu time    0.3841: real time    0.3864
    SETDIJ:  cpu time    0.0028: real time    0.0028
    TRIAL :  cpu time    2.6990: real time    2.7239
    CORREC:  cpu time    1.0791: real time    1.0879
    EDDIAG:  cpu time    0.5968: real time    0.6023
    CHARGE:  cpu time    0.3125: real time    0.3146
    --------------------------------------------
      LOOP:  cpu time    5.1222: real time    5.1703

 eigenvalue-minimisations  :     0
 total energy-change (2. order) :-0.9352516E-06  (-0.3959040E-06)
 number of electron     216.0000000 magnetization 
 augmentation part       -0.4739090 magnetization 

 Free energy of the ion-electron system (eV)
  ---------------------------------------------------
  alpha Z        PSCENC =        47.94900195
  Ewald energy   TEWEN  =     40970.05347293
  -Hartree energ DENC   =    -47958.04125289
  -exchange      EXHF   =         0.00000000
  -V(xc)+E(xc)   XCENC  =       446.19326321
  PAW double counting   =    126447.25647356  -126170.33720956
  entropy T*S    EENTRO =        -0.00000000
  eigenvalues    EBANDS =     -2614.26770241
  atomic energy  EATOM  =      8364.30921166
  ---------------------------------------------------
  free energy    TOTEN  =      -466.88474154 eV

  energy without entropy =     -466.88474154  energy(sigma->0) =     -466.88474154


--------------------------------------------------------------------------------------------------------


  average scaling for gradient   0.9262


 average (electrostatic) potential at core
  the test charge radii are     0.5770  0.5955
  (the norm of the test charge is              1.0000)
       1 -85.7747       2 -85.7743       3 -85.7746       4 -85.7751       5 -85.7738
       6 -85.7739       7 -85.7745       8 -85.7736       9 -85.7740      10 -85.7740
      11 -85.7739      12 -85.7738      13 -85.7740      14 -85.7740      15 -85.7737
      16 -85.7738      17 -85.7742      18 -85.7744      19 -85.7746      20 -85.7742
      21 -85.7736      22 -85.7737      23 -85.7754      24 -85.7753      25 -85.7738
      26 -85.7738      27 -85.7740      28 -85.7747      29 -85.7737      30 -85.7738
      31 -85.7748      32 -85.7744      33 -85.7739      34 -85.7739      35 -85.7739
      36 -85.7739      37 -85.7744      38 -85.7745      39 -85.7743      40 -85.7744
      41 -85.7743      42 -85.7743      43 -85.7743      44 -85.7746      45 -85.7738
      46 -85.7738      47 -85.7738      48 -85.7738      49 -85.7745      50 -85.7743
      51 -89.7332      52-120.3983      53-120.3979
 
 
 
 E-fermi :  -4.1606     XC(G=0):  -1.9651     alpha+bet : -1.6890

 Fermi energy:        -4.1606033691

 k-point     1 :       0.0000    0.0000    0.0000
  band No.  band energies     occupation 
      1     -27.6730      2.00000
      2     -26.6506      2.00000
      3     -22.3415      2.00000
      4     -21.4003      2.00000
      5     -21.3988      2.00000
      6     -21.3987      2.00000
      7     -21.3985      2.00000
      8     -21.3982      2.00000
      9     -21.3976      2.00000
     10     -19.5513      2.00000
     11     -19.5512      2.00000
     12     -19.5510      2.00000
     13     -19.5503      2.00000
     14     -19.5498      2.00000
     15     -19.5496      2.00000
     16     -18.6524      2.00000
     17     -18.6522      2.00000
     18     -18.6518      2.00000
     19     -18.6516      2.00000
     20     -18.6508      2.00000
     21     -18.6505      2.00000
     22     -16.4899      2.00000
     23     -16.4895      2.00000
     24     -16.4889      2.00000
     25     -16.4887      2.00000
     26     -16.4881      2.00000
     27     -16.4880      2.00000
     28     -15.4733      2.00000
     29     -15.4733      2.00000
     30     -15.4722      2.00000
     31     -15.4721      2.00000
     32     -15.4717      2.00000
     33     -15.4716      2.00000
     34     -14.1216      2.00000
     35     -14.1215      2.00000
     36     -14.1208      2.00000
     37     -14.1207      2.00000
     38     -14.1206      2.00000
     39     -14.1203      2.00000
     40     -12.4523      2.00000
     41     -11.7319      2.00000
     42     -11.7316      2.00000
     43     -11.7312      2.00000
     44     -11.7311      2.00000
     45     -11.7300      2.00000
     46     -11.7297      2.00000
     47     -11.6090      2.00000
     48     -11.6089      2.00000
     49     -11.6082      2.00000
     50     -11.6082      2.00000
     51     -11.6081      2.00000
     52     -11.6079      2.00000
     53     -11.2269      2.00000
     54     -11.1442      2.00000
     55     -11.1441      2.00000
     56     -10.3657      2.00000
     57     -10.2248      2.00000
     58     -10.2247      2.00000
     59     -10.2231      2.00000
     60     -10.2228      2.00000
     61     -10.2226      2.00000
     62     -10.2225      2.00000
     63      -9.2510      2.00000
     64      -9.2499      2.00000
     65      -9.2496      2.00000
     66      -9.2495      2.00000
     67      -9.2494      2.00000
     68      -9.2490      2.00000
     69      -8.9420      2.00000
     70      -8.9407      2.00000
     71      -8.9404      2.00000
     72      -8.9403      2.00000
     73      -8.9401      2.00000
     74      -8.9397      2.00000
     75      -8.9088      2.00000
     76      -8.9086      2.00000
     77      -8.9077      2.00000
     78      -8.9076      2.00000
     79      -8.9075      2.00000
     80      -8.9067      2.00000
     81      -7.6047      2.00000
     82      -7.6046      2.00000
     83      -7.2822      2.00000
     84      -7.2805      2.00000
     85      -7.2804      2.00000
     86      -7.2800      2.00000
     87      -7.2792      2.00000
     88      -7.2791      2.00000
     89      -7.1237      2.00000
     90      -7.1234      2.00000
     91      -7.1232      2.00000
     92      -7.1228      2.00000
     93      -7.1224      2.00000
     94      -7.1221      2.00000
     95      -6.2296      2.00000
     96      -6.2294      2.00000
     97      -6.2292      2.00000
     98      -6.2291      2.00000
     99      -6.2284      2.00000
    100      -6.2282      2.00000
    101      -5.7886      2.00000
    102      -5.7864      2.00000
    103      -4.2504      2.00000
    104      -4.2500      2.00000
    105      -4.2495      2.00000
    106      -4.2494      2.00000
    107      -4.2489      2.00000
    108      -4.2489      2.00000
    109      -1.4361      0.00000
    110      -1.4359      0.00000
    111      -1.4357      0.00000
    112      -1.4355      0.00000
    113      -1.4348      0.00000
    114      -1.4345      0.00000
    115       0.3070      0.00000
    116       0.4370      0.00000
    117       0.4372      0.00000
    118       0.4375      0.00000
    119       0.4376      0.00000
    120       0.4380      0.00000
    121       0.4390      0.00000
    122       0.4792      0.00000
    123       0.9769      0.00000
    124       1.1323      0.00000
    125       1.7234      0.00000
    126       1.7330      0.00000
    127       1.7342      0.00000
    128       1.7395      0.00000
    129       1.7473      0.00000
    130       2.0158      0.00000
    131       2.1188      0.00000
    132       2.1898      0.00000
    133       2.2075      0.00000
    134       2.2567      0.00000
    135       2.2661      0.00000
    136       2.3268      0.00000
    137       2.3372      0.00000
    138       2.4805      0.00000
    139       2.7094      0.00000
    140       2.8356      0.00000


--------------------------------------------------------------------------------------------------------


 soft charge-density along one line, spin component           1
         0         1         2         3         4         5         6         7         8         9
 total charge-density along one line
 
 pseudopotential strength for first ion, spin component:           1
 12.722  21.410   0.000   0.000   0.000   0.000   0.000   0.000
 21.410  36.029   0.000   0.000   0.000   0.000   0.000   0.000
  0.000   0.000  -3.100  -0.000   0.000  -5.556  -0.000   0.000
  0.000   0.000  -0.000  -3.101  -0.000  -0.000  -5.558  -0.000
  0.000   0.000   0.000  -0.000  -3.100   0.000  -0.000  -5.556
  0.000   0.000  -5.556  -0.000   0.000  -9.936  -0.000   0.000
  0.000   0.000  -0.000  -5.558  -0.000  -0.000  -9.939  -0.000
  0.000   0.000   0.000  -0.000  -5.556   0.000  -0.000  -9.936
 total augmentation occupancy for first ion, spin component:           1
  8.451  -3.031  -0.000  -0.002  -0.000   0.000   0.001   0.000
 -3.031   1.122   0.000   0.001   0.000  -0.000  -0.000  -0.000
 -0.000   0.000   7.733  -0.008   0.000  -2.679   0.003  -0.000
 -0.002   0.001  -0.008   3.531  -0.000   0.003  -0.988   0.000
 -0.000   0.000   0.000  -0.000   7.732  -0.000   0.000  -2.678
  0.000  -0.000  -2.679   0.003  -0.000   0.941  -0.001   0.000
  0.001  -0.000   0.003  -0.988   0.000  -0.001   0.282  -0.000
  0.000  -0.000  -0.000   0.000  -2.678   0.000  -0.000   0.941


------------------------ aborting loop because EDIFF is reached ----------------------------------------


    FORLOC:  cpu time    0.0668: real time    0.0673
    FORNL :  cpu time    1.1136: real time    1.1266
    FORCOR:  cpu time    0.4058: real time    0.4085
    OFIELD:  cpu time    0.0015: real time    0.0015

 ---------------------------------------------------------------------------------------------

         DFTD3 V3.0 Rev 1        
 IVDW         = 11
 DF revpbe    
 parameters
 VDW_S6       =    1.0000
 VDW_S8       =    1.0100
 VDW_SR       =    0.9230
 rs18     =    1.0000
 alpha6   =   14.0000
 alpha8   =   16.0000
 k1-k3    =   16.0000    1.3333   -4.0000
 VDW_RADIUS   =   50.2022 A
 VDW_CNRADIUS =   21.1671 A
 Edisp (eV)   -3.65358

 E6    (eV) :    -2.5994
 E8    (eV) :    -1.0542
 % E8        : 28.85
    FORVDW:  cpu time    0.1606: real time    0.1620

 VOLUME and BASIS-vectors are now :
 -----------------------------------------------------------------------------
  energy-cutoff  :     1000.00
  volume of cell :     3288.85
      direct lattice vectors                 reciprocal lattice vectors
    12.325000000  0.000000000  0.000000000     0.081135903  0.046843835  0.000000000
    -6.162500000 10.673763102  0.000000000     0.000000000  0.093687670  0.000000000
     0.000000000  0.000000000 25.000000000     0.000000000  0.000000000  0.040000000

  length of vectors
    12.325000000 12.325000000 25.000000000     0.093687670  0.093687670  0.040000000


 FORCES acting on ions:
    Electron-Ion                     Ewald-Force                    Non-Local-Force
 -----------------------------------------------------------------------------------------------
   0.466E+00 0.422E+00 0.119E+02   -.467E+00 -.423E+00 -.119E+02   0.410E-02 -.560E-03 0.570E-02
   0.636E+00 0.380E+00 0.128E+02   -.639E+00 -.378E+00 -.128E+02   0.239E-02 -.296E-02 -.584E-02
   0.251E+00 0.691E+00 0.127E+02   -.253E+00 -.691E+00 -.127E+02   0.243E-04 0.111E-01 -.217E-02
   0.316E+00 0.468E+00 0.147E+02   -.313E+00 -.468E+00 -.147E+02   0.112E-01 0.614E-03 -.165E-01
   0.543E+00 0.152E+00 0.124E+02   -.541E+00 -.153E+00 -.124E+02   -.106E-02 -.504E-02 0.399E-02
   0.555E+00 -.128E+00 0.126E+02   -.558E+00 0.129E+00 -.126E+02   -.655E-02 0.369E-02 -.181E-02
   0.592E+00 0.302E+00 0.148E+02   -.593E+00 -.303E+00 -.148E+02   0.111E-01 -.188E-01 -.707E-02
   0.630E+00 -.177E+00 0.160E+02   -.635E+00 0.179E+00 -.160E+02   -.795E-02 -.483E-02 -.564E-02
   -.290E+00 0.714E+00 0.131E+02   0.293E+00 -.716E+00 -.131E+02   0.658E-03 -.137E-01 -.498E-02
   -.340E+00 0.314E+00 0.151E+02   0.340E+00 -.314E+00 -.151E+02   -.252E-01 0.143E-01 0.156E-02
   0.144E+00 -.143E+00 0.118E+02   -.141E+00 0.143E+00 -.118E+02   0.399E-02 -.277E-02 0.985E-03
   0.152E+00 -.122E+00 0.116E+02   -.153E+00 0.123E+00 -.116E+02   -.627E-02 0.319E-02 0.686E-02
   0.127E+00 -.471E+00 0.168E+02   -.126E+00 0.473E+00 -.168E+02   0.259E-01 -.699E-02 -.282E-02
   0.879E-01 -.777E+00 0.143E+02   -.911E-01 0.779E+00 -.143E+02   0.303E-02 0.739E-02 -.159E-01
   -.520E+00 0.308E+00 0.120E+02   0.522E+00 -.309E+00 -.120E+02   0.760E-02 -.415E-02 0.835E-02
   -.636E+00 0.158E+00 0.121E+02   0.635E+00 -.158E+00 -.121E+02   -.108E-02 0.484E-02 -.418E-02
   -.862E-01 -.395E-01 0.112E+02   0.887E-01 0.380E-01 -.112E+02   0.417E-03 0.911E-04 0.224E-02
   0.461E-01 0.310E+00 0.113E+02   -.459E-01 -.311E+00 -.113E+02   -.244E-02 0.121E-02 0.922E-02
   -.144E+00 -.723E+00 0.130E+02   0.144E+00 0.724E+00 -.130E+02   0.549E-02 -.118E-02 0.492E-04
   -.882E-01 -.454E+00 0.119E+02   0.857E-01 0.454E+00 -.119E+02   -.605E-03 -.521E-03 -.510E-03
   0.701E+00 -.285E+00 0.138E+02   -.701E+00 0.285E+00 -.137E+02   -.231E-02 -.179E-02 -.155E-01
   0.516E+00 -.408E+00 0.130E+02   -.518E+00 0.409E+00 -.130E+02   -.703E-02 0.550E-02 -.865E-03
   -.109E+00 0.180E+00 0.165E+02   0.105E+00 -.178E+00 -.165E+02   -.992E-02 0.102E-01 -.958E-03
   -.178E+00 -.287E+00 0.165E+02   0.181E+00 0.285E+00 -.165E+02   0.118E-01 -.144E-01 -.124E-01
   0.272E+00 -.990E-01 0.119E+02   -.271E+00 0.977E-01 -.119E+02   0.387E-02 -.274E-02 -.210E-02
   0.921E-01 0.226E+00 0.117E+02   -.925E-01 -.225E+00 -.117E+02   -.464E-02 0.307E-02 0.650E-02
   -.751E+00 0.390E-01 0.135E+02   0.755E+00 -.408E-01 -.135E+02   0.128E-01 0.742E-02 -.253E-02
   -.668E+00 -.295E+00 0.129E+02   0.669E+00 0.295E+00 -.129E+02   -.778E-02 0.883E-02 -.639E-04
   0.262E+00 -.578E+00 0.131E+02   -.261E+00 0.578E+00 -.131E+02   0.373E-02 0.261E-02 -.575E-02
   0.299E-01 -.252E+00 0.121E+02   -.319E-01 0.253E+00 -.121E+02   -.503E-02 0.246E-02 -.111E-02
   -.479E+00 -.460E+00 0.138E+02   0.477E+00 0.461E+00 -.138E+02   -.113E-01 -.784E-02 -.143E-01
   -.361E+00 -.698E+00 0.127E+02   0.362E+00 0.697E+00 -.127E+02   0.520E-03 -.412E-03 0.101E-02
   0.196E-01 0.166E+00 0.115E+02   -.191E-01 -.167E+00 -.115E+02   0.455E-02 -.444E-02 0.776E-02
   0.869E-01 0.133E+00 0.116E+02   -.896E-01 -.132E+00 -.116E+02   -.248E-02 0.475E-02 -.282E-03
   -.337E+00 0.662E-01 0.117E+02   0.340E+00 -.672E-01 -.118E+02   0.431E-02 -.254E-02 0.689E-02
   -.292E+00 -.145E+00 0.117E+02   0.291E+00 0.146E+00 -.117E+02   -.337E-02 0.214E-02 0.446E-02
   -.542E+00 -.311E+00 0.118E+02   0.545E+00 0.309E+00 -.118E+02   -.416E-04 0.869E-03 0.326E-02
   -.365E+00 -.299E+00 0.115E+02   0.366E+00 0.300E+00 -.115E+02   -.329E-02 0.114E-02 0.878E-02
   -.341E+00 -.424E+00 0.117E+02   0.340E+00 0.425E+00 -.117E+02   -.249E-02 0.383E-03 0.417E-02
   -.486E-01 -.127E+00 0.114E+02   0.496E-01 0.126E+00 -.114E+02   0.170E-02 0.848E-03 0.696E-02
   0.133E+00 0.322E+00 0.113E+02   -.134E+00 -.322E+00 -.113E+02   -.377E-02 0.132E-02 0.641E-02
   0.397E+00 0.578E+00 0.118E+02   -.395E+00 -.579E+00 -.118E+02   -.114E-02 -.117E-02 0.673E-02
   0.539E-01 0.523E+00 0.115E+02   -.513E-01 -.525E+00 -.115E+02   0.404E-03 0.950E-04 0.239E-02
   0.143E-01 0.742E+00 0.123E+02   -.140E-01 -.743E+00 -.124E+02   -.738E-02 0.111E-02 0.466E-02
   -.106E+00 0.189E+00 0.118E+02   0.108E+00 -.191E+00 -.118E+02   0.432E-02 -.324E-02 0.258E-02
   -.349E+00 0.471E+00 0.121E+02   0.349E+00 -.471E+00 -.121E+02   -.552E-02 -.232E-03 -.477E-03
   -.123E+00 -.238E+00 0.119E+02   0.124E+00 0.237E+00 -.119E+02   0.564E-02 -.113E-02 0.675E-02
   -.217E+00 0.714E-01 0.115E+02   0.215E+00 -.707E-01 -.115E+02   -.390E-02 0.325E-02 -.208E-02
   0.112E-01 -.139E+00 0.115E+02   -.111E-01 0.139E+00 -.115E+02   0.380E-02 -.297E-02 0.563E-02
   0.225E+00 0.165E+00 0.114E+02   -.227E+00 -.164E+00 -.114E+02   -.903E-03 0.188E-02 0.328E-02
   -.340E-02 0.289E-01 -.157E+03   -.336E-03 -.254E-01 0.158E+03   -.302E-02 0.178E-02 -.338E-02
   -.229E+03 0.156E+03 -.249E+03   0.279E+03 -.190E+03 0.252E+03   -.510E+02 0.347E+02 -.342E+01
   0.229E+03 -.156E+03 -.227E+03   -.279E+03 0.190E+03 0.224E+03   0.510E+02 -.347E+02 0.308E+01
 -----------------------------------------------------------------------------------------------
   -.631E-02 0.132E-01 0.344E+00   0.114E-12 -.853E-13 0.284E-13   0.685E-02 -.139E-01 -.343E+00
 
 
 POSITION                                       TOTAL-FORCE (eV/Angst)
 -----------------------------------------------------------------------------------
     11.98348      0.00342      0.01417         0.003322     -0.001651     -0.000729
     -0.34154      1.42665      0.01100        -0.000493     -0.000161     -0.003274
      2.12355      0.00315      0.01249        -0.001748      0.011089     -0.006038
      2.12326      1.42653      0.00641         0.013631      0.001352     -0.008635
     10.75099      2.13819      0.01213         0.000405     -0.005829      0.000014
     -1.57382      3.56123      0.01110        -0.009102      0.004806     -0.001341
      0.89078      2.13854      0.00548         0.009901     -0.019411      0.001828
      0.89099      3.56147      0.00181        -0.011784     -0.002637      0.010467
      4.58864      0.00346      0.01135         0.003474     -0.015896     -0.003470
      4.58894      1.42623      0.00646        -0.024162      0.013653      0.012910
      9.51854      4.27281      0.01369         0.006601     -0.003131      0.000340
     -2.80632      5.69591      0.01434        -0.006673      0.003457      0.000885
      2.12300      4.27302      0.00000         0.025633     -0.005240      0.018679
      2.12335      5.69594      0.00581        -0.000365      0.009131     -0.003058
      7.05344      0.00333      0.01399         0.009507     -0.005332     -0.000199
      7.05353      1.42635      0.01368        -0.001759      0.005121     -0.003524
      8.28610      6.40752      0.01601         0.002867     -0.001412     -0.000572
     -4.03885      7.83070      0.01636        -0.002253      0.000871      0.000173
      3.35586      6.40753      0.01007         0.005662      0.000469     -0.001221
      3.35599      7.83072      0.01320        -0.003113     -0.000040     -0.000519
     -0.34146      4.27290      0.00723        -0.001816     -0.001552     -0.004708
     -0.34138      5.69591      0.00946        -0.009279      0.006604     -0.001134
      3.35624      2.13791      0.00222        -0.013843      0.012215      0.014452
      3.35573      3.56155      0.00139         0.013820     -0.016259      0.007074
     -1.57395      6.40758      0.01311         0.005371     -0.003945     -0.000461
     -1.57385      7.83068      0.01438        -0.004976      0.003835      0.000231
      5.82093      2.13784      0.01033         0.016014      0.005420     -0.003016
      5.82114      3.56097      0.01156        -0.006652      0.008701     -0.003412
      0.89092      6.40755      0.00907         0.004690      0.002338     -0.002286
      0.89106      7.83068      0.01235        -0.006897      0.003974      0.000510
      4.58871      4.27293      0.00850        -0.013218     -0.006703     -0.010760
      4.58852      5.69606      0.01149         0.001945     -0.001263     -0.003740
      9.51845      0.00337      0.01490         0.004891     -0.004737      0.000321
      9.51855      1.42644      0.01438        -0.005148      0.005505     -0.000099
      8.28593      2.13803      0.01453         0.006790     -0.003414      0.000831
      8.28613      3.56115      0.01464        -0.004485      0.002307      0.000177
      7.05356      4.27269      0.01457         0.002531     -0.001039     -0.000334
      7.05362      5.69588      0.01553        -0.002612      0.001546      0.000181
      5.82112      6.40755      0.01489        -0.003026      0.001583      0.000218
      5.82102      7.83073      0.01579         0.002755      0.000284     -0.000054
      7.05363      8.54227      0.01631        -0.004765      0.001360      0.001328
     -5.27149      9.96549      0.01495         0.000172     -0.001982     -0.001807
     -2.80638      8.54234      0.01558         0.003056     -0.001286     -0.000876
     -2.80627      9.96553      0.01362        -0.006978      0.000030     -0.003467
     -0.34149      8.54239      0.01378         0.005863     -0.004964      0.000452
     -0.34138      9.96550      0.01354        -0.006076     -0.000038     -0.001042
      2.12343      8.54232      0.01336         0.005983     -0.001557      0.000838
      2.12354      9.96544      0.01469        -0.005197      0.003851     -0.001659
      4.58846      8.54235      0.01505         0.003758     -0.002847      0.001178
      4.58853      9.96550      0.01517        -0.002715      0.003385      0.000332
      3.04930      2.68154      8.90899        -0.006573      0.005284      0.032449
      4.02070      2.02068      8.97341        -0.250013      0.169634     -0.033344
      2.07767      3.34267      8.84953         0.257081     -0.175478     -0.001089
 -----------------------------------------------------------------------------------
    total drift:                                0.000537     -0.000666      0.000665


--------------------------------------------------------------------------------------------------------



  FREE ENERGIE OF THE ION-ELECTRON SYSTEM (eV)
  ---------------------------------------------------
  free  energy   TOTEN  =      -470.53832583 eV

  energy  without entropy=     -470.53832583  energy(sigma->0) =     -470.53832583
 


--------------------------------------------------------------------------------------------------------


    POTLOK:  cpu time    0.3954: real time    0.3980


--------------------------------------------------------------------------------------------------------


     LOOP+:  cpu time  143.8753: real time  145.5696
    4ORBIT:  cpu time    0.0000: real time    0.0000

 total amount of memory used by VASP MPI-rank0   215378. kBytes
=======================================================================

   base      :      30000. kBytes
   nonl-proj :      57634. kBytes
   fftplans  :      45914. kBytes
   grid      :      67588. kBytes
   one-center:         43. kBytes
   wavefun   :      14199. kBytes
 
  
  
 General timing and accounting informations for this job:
 ========================================================
  
                  Total CPU time used (sec):      187.156
                            User time (sec):      174.029
                          System time (sec):       13.126
                         Elapsed time (sec):      190.298
  
                   Maximum memory used (kb):      623092.
                   Average memory used (kb):          N/A
  
                          Minor page faults:        62473
                          Major page faults:          112
                 Voluntary context switches:         3753
