 vasp.6.2.1 16May21 (build Nov 06 2021 14:46:37) complex                        
  
 executed on             LinuxIFC date 2025.04.16  17:15:59
 running on  112 total cores
 distrk:  each k-point on  112 cores,    1 groups
 distr:  one band on NCORE=   4 cores,   28 groups


--------------------------------------------------------------------------------------------------------


 INCAR:
   ALGO = Conjugate
   NCORE = 4
   ISMEAR = 0
   SIGMA = 0.01
   PREC = Accurate
   EDIFF = 1E-6
   ENCUT = 1000
   ISIF = 0
   GGA = RE
   IVDW = 11
   LWAVE = .FALSE.
   LCHARGE = .FALSE.
   SYMPREC = 1E-6

 POTCAR:    PAW_PBE C_h 06Feb2004                 
 POTCAR:    PAW_PBE O_h 06Feb2004                 
 -----------------------------------------------------------------------------
|                                                                             |
|           W    W    AA    RRRRR   N    N  II  N    N   GGGG   !!!           |
|           W    W   A  A   R    R  NN   N  II  NN   N  G    G  !!!           |
|           W    W  A    A  R    R  N N  N  II  N N  N  G       !!!           |
|           W WW W  AAAAAA  RRRRR   N  N N  II  N  N N  G  GGG   !            |
|           WW  WW  A    A  R   R   N   NN  II  N   NN  G    G                |
|           W    W  A    A  R    R  N    N  II  N    N   GGGG   !!!           |
|                                                                             |
|     For optimal performance we recommend to set                             |
|       NCORE = 2 up to number-of-cores-per-socket                            |
|     NCORE specifies how many cores store one orbital (NPAR=cpu/NCORE).      |
|     This setting can greatly improve the performance of VASP for DFT.       |
|     The default, NCORE=1 might be grossly inefficient on modern             |
|     multi-core architectures or massively parallel machines. Do your        |
|     own testing! More info at https://www.vasp.at/wiki/index.php/NCORE      |
|     Unfortunately you need to use the default for GW and RPA                |
|     calculations (for HF NCORE is supported but not extensively tested      |
|     yet).                                                                   |
|                                                                             |
 -----------------------------------------------------------------------------

 POTCAR:    PAW_PBE C_h 06Feb2004                 
   VRHFIN =C: s2p2                                                                                  
   LEXCH  = PE                                                                                      
   EATOM  =   147.1560 eV,   10.8157 Ry                                                             
                                                                                                    
   TITEL  = PAW_PBE C_h 06Feb2004                                                                   
   LULTRA =        F    use ultrasoft PP ?                                                          
   IUNSCR =        1    unscreen: 0-lin 1-nonlin 2-no                                               
   RPACOR =    0.800    partial core radius                                                         
   POMASS =   12.011; ZVAL   =    4.000    mass and valenz                                          
   RCORE  =    1.100    outmost cutoff radius                                                       
   RWIGS  =    1.630; RWIGS  =    0.863    wigner-seitz radius (au A)                               
   ENMAX  =  700.000; ENMIN  =  500.000 eV                                                          
   ICORE  =        2    local potential                                                             
   LCOR   =        T    correct aug charges                                                         
   LPAW   =        T    paw PP                                                                      
   EAUG   =  946.768                                                                                
   DEXC   =    0.000                                                                                
   RMAX   =    1.128    core radius for proj-oper                                                   
   RAUG   =    1.300    factor for augmentation sphere                                              
   RDEP   =    1.162    radius for radial grids                                                     
   RDEPT  =    1.088    core radius for aug-charge                                                  
                                                                                                    
   Atomic configuration                                                                             
    4 entries                                                                                       
     n  l   j            E        occ.                                                              
     1  0  0.50      -273.3789   2.0000                                                             
     2  0  0.50       -13.7508   2.0000                                                             
     2  1  0.50        -5.2854   2.0000                                                             
     3  2  1.50        -5.4423   0.0000                                                             
   Description                                                                                      
     l       E           TYP  RCUT    TYP  RCUT                                                     
     0    -13.7508458     23  1.100                                                                 
     0     -8.2022199     23  1.100                                                                 
     1     -5.2854383     23  1.100                                                                 
     1      1.1560700     23  1.100                                                                 
     2     -5.4423304      7  1.100                                                                 
  local pseudopotential read in
  partial core-charges read in
  partial kinetic energy density read in
  atomic valenz-charges read in
  non local Contribution for L=           0  read in
    real space projection operators read in
  non local Contribution for L=           0  read in
    real space projection operators read in
  non local Contribution for L=           1  read in
    real space projection operators read in
  non local Contribution for L=           1  read in
    real space projection operators read in
    PAW grid and wavefunctions read in
 
   number of l-projection  operators is LMAX  =           4
   number of lm-projection operators is LMMAX =           8
 
 POTCAR:    PAW_PBE O_h 06Feb2004                 
   VRHFIN =O: s2p4                                                                                  
   LEXCH  = PE                                                                                      
   EATOM  =   432.3788 eV,   31.7789 Ry                                                             
                                                                                                    
   TITEL  = PAW_PBE O_h 06Feb2004                                                                   
   LULTRA =        F    use ultrasoft PP ?                                                          
   IUNSCR =        1    unscreen: 0-lin 1-nonlin 2-no                                               
   RPACOR =    0.800    partial core radius                                                         
   POMASS =   16.000; ZVAL   =    6.000    mass and valenz                                          
   RCORE  =    1.100    outmost cutoff radius                                                       
   RWIGS  =    1.400; RWIGS  =    0.741    wigner-seitz radius (au A)                               
   ENMAX  =  700.000; ENMIN  =  500.000 eV                                                          
   ICORE  =        2    local potential                                                             
   LCOR   =        T    correct aug charges                                                         
   LPAW   =        T    paw PP                                                                      
   EAUG   =  888.804                                                                                
   DEXC   =    0.000                                                                                
   RMAX   =    1.128    core radius for proj-oper                                                   
   RAUG   =    1.300    factor for augmentation sphere                                              
   RDEP   =    1.125    radius for radial grids                                                     
   RDEPT  =    1.088    core radius for aug-charge                                                  
                                                                                                    
   Atomic configuration                                                                             
    4 entries                                                                                       
     n  l   j            E        occ.                                                              
     1  0  0.50      -514.6923   2.0000                                                             
     2  0  0.50       -23.9615   2.0000                                                             
     2  1  0.50        -9.0305   4.0000                                                             
     3  2  1.50        -9.5241   0.0000                                                             
   Description                                                                                      
     l       E           TYP  RCUT    TYP  RCUT                                                     
     0    -23.9615319     23  1.100                                                                 
     0    -25.3221145     23  1.100                                                                 
     1     -9.0304911     23  1.100                                                                 
     1     -5.4802209     23  1.100                                                                 
     2     -9.5240782      7  1.100                                                                 
  local pseudopotential read in
  partial core-charges read in
  partial kinetic energy density read in
  atomic valenz-charges read in
  non local Contribution for L=           0  read in
    real space projection operators read in
  non local Contribution for L=           0  read in
    real space projection operators read in
  non local Contribution for L=           1  read in
    real space projection operators read in
  non local Contribution for L=           1  read in
    real space projection operators read in
    PAW grid and wavefunctions read in
 
   number of l-projection  operators is LMAX  =           4
   number of lm-projection operators is LMMAX =           8
 
 -----------------------------------------------------------------------------
|                                                                             |
|               ----> ADVICE to this user running VASP <----                  |
|                                                                             |
|     You have a (more or less) 'large supercell' and for larger cells it     |
|     might be more efficient to use real-space projection operators.         |
|     Therefore, try LREAL= Auto in the INCAR file.                           |
|     Mind: For very accurate calculation, you might also keep the            |
|     reciprocal projection scheme (i.e. LREAL=.FALSE.).                      |
|                                                                             |
 -----------------------------------------------------------------------------

 -----------------------------------------------------------------------------
|                                                                             |
|               ----> ADVICE to this user running VASP <----                  |
|                                                                             |
|     You enforced a specific xc type in the INCAR file but a different       |
|     type was found in the POTCAR file.                                      |
|     I HOPE YOU KNOW WHAT YOU ARE DOING!                                     |
|                                                                             |
 -----------------------------------------------------------------------------

  PAW_PBE C_h 06Feb2004                 :
 energy of atom  1       EATOM= -147.1560
 kinetic energy error for atom=    0.0031 (will be added to EATOM!!)
  PAW_PBE O_h 06Feb2004                 :
 energy of atom  2       EATOM= -432.3788
 kinetic energy error for atom=    0.0171 (will be added to EATOM!!)
 
 
 POSCAR:  C  O
  positions in cartesian coordinates
  No initial velocities read in
 exchange correlation table for  LEXCH =       40
   RHO(1)=    0.500       N(1)  =     2000
   RHO(2)=  100.500       N(2)  =     4000
 


--------------------------------------------------------------------------------------------------------


 ion  position               nearest neighbor table
   1  0.972  0.000  0.001-  50 1.42   2 1.42  42 1.42
   2  0.039  0.134  0.000-   5 1.42   7 1.42   1 1.42
   3  0.172  0.000  0.000-  42 1.42  44 1.42   4 1.42
   4  0.239  0.134  0.000-   7 1.42   3 1.42  23 1.42
   5  0.972  0.200  0.000-   6 1.42   2 1.42  34 1.42
   6  0.039  0.334  0.000-   5 1.42  21 1.42  11 1.42
   7  0.172  0.200  0.000-   8 1.42   2 1.42   4 1.42
   8  0.239  0.334  0.000-  13 1.42   7 1.42  21 1.42
   9  0.372  0.000  0.000-  10 1.42  44 1.42  46 1.42
  10  0.439  0.134  0.000-  27 1.42   9 1.42  23 1.42
  11  0.972  0.400  0.001-  12 1.42  36 1.42   6 1.42
  12  0.039  0.534  0.001-  25 1.42  11 1.42  17 1.42
  13  0.372  0.400  0.000-   8 1.42  14 1.42  24 1.42
  14  0.439  0.534  0.000-  13 1.42  29 1.42  19 1.42
  15  0.572  0.000  0.001-  46 1.42  16 1.42  48 1.42
  16  0.639  0.134  0.001-  15 1.42  35 1.42  27 1.42
  17  0.972  0.600  0.001-  38 1.42  18 1.42  12 1.42
  18  0.039  0.734  0.001-  43 1.42  41 1.42  17 1.42
  19  0.572  0.600  0.000-  14 1.42  20 1.42  32 1.42
  20  0.639  0.734  0.001-  49 1.42  19 1.42  47 1.42
  21  0.172  0.400  0.000-  22 1.42   8 1.42   6 1.42
  22  0.239  0.534  0.000-  21 1.42  29 1.42  25 1.42
  23  0.372  0.200  0.000-  10 1.42   4 1.42  24 1.42
  24  0.439  0.334  0.000-  13 1.42  31 1.42  23 1.42
  25  0.172  0.600  0.001-  26 1.42  12 1.42  22 1.42
  26  0.239  0.734  0.001-  25 1.42  45 1.42  43 1.42
  27  0.572  0.200  0.000-  10 1.42  28 1.42  16 1.42
  28  0.639  0.334  0.000-  27 1.42  37 1.42  31 1.42
  29  0.372  0.600  0.000-  22 1.42  14 1.42  30 1.42
  30  0.439  0.734  0.000-  47 1.42  29 1.42  45 1.42
  31  0.572  0.400  0.000-  32 1.42  28 1.42  24 1.42
  32  0.639  0.534  0.000-  31 1.42  39 1.42  19 1.42
  33  0.772  0.000  0.001-  34 1.42  48 1.42  50 1.42
  34  0.839  0.134  0.001-  33 1.42   5 1.42  35 1.42
  35  0.772  0.200  0.001-  36 1.42  16 1.42  34 1.42
  36  0.839  0.334  0.001-  35 1.42  11 1.42  37 1.42
  37  0.772  0.400  0.001-  28 1.42  38 1.42  36 1.42
  38  0.839  0.534  0.001-  17 1.42  37 1.42  39 1.42
  39  0.772  0.600  0.001-  40 1.42  38 1.42  32 1.42
  40  0.839  0.734  0.001-  39 1.42  49 1.42  41 1.42
  41  0.972  0.800  0.001-  18 1.42  42 1.42  40 1.42
  42  0.039  0.934  0.001-   3 1.42  41 1.42   1 1.42
  43  0.172  0.800  0.001-  18 1.42  44 1.42  26 1.42
  44  0.239  0.934  0.001-   9 1.42  43 1.42   3 1.42
  45  0.372  0.800  0.001-  26 1.42  46 1.42  30 1.42
  46  0.439  0.934  0.001-  15 1.42  45 1.42   9 1.42
  47  0.572  0.800  0.001-  30 1.42  48 1.42  20 1.42
  48  0.639  0.934  0.001-  47 1.42  33 1.42  15 1.42
  49  0.772  0.800  0.001-  50 1.42  20 1.42  40 1.42
  50  0.839  0.934  0.001-  49 1.42   1 1.42  33 1.42
  51  0.373  0.251  0.168-  52 1.18  53 1.18
  52  0.421  0.189  0.171-  51 1.18
  53  0.325  0.313  0.166-  51 1.18
 
  LATTYP: Found a hexagonal cell.
 ALAT       =    12.3250000000
 C/A-ratio  =     2.0283975659
  
  Lattice vectors:
  
 A1 = (  12.3250000000,   0.0000000000,   0.0000000000)
 A2 = (  -6.1625000000,  10.6737631016,   0.0000000000)
 A3 = (   0.0000000000,   0.0000000000,  25.0000000000)


Analysis of symmetry for initial positions (statically):
=====================================================================
 Subroutine PRICEL returns:
 Original cell was already a primitive cell.
 

 Routine SETGRP: Setting up the symmetry group for a 
 hexagonal supercell.


 Subroutine GETGRP returns: Found  1 space group operations
 (whereof  1 operations were pure point group operations)
 out of a pool of 24 trial point group operations.


The static configuration has the point symmetry C_1 .


Analysis of symmetry for dynamics (positions and initial velocities):
=====================================================================
 Subroutine PRICEL returns:
 Original cell was already a primitive cell.
 

 Routine SETGRP: Setting up the symmetry group for a 
 hexagonal supercell.


 Subroutine GETGRP returns: Found  1 space group operations
 (whereof  1 operations were pure point group operations)
 out of a pool of 24 trial point group operations.


The dynamic configuration has the point symmetry C_1 .


 Subroutine INISYM returns: Found  1 space group operations
 (whereof  1 operations are pure point group operations),
 and found     1 'primitive' translations


----------------------------------------------------------------------------------------

                                     Primitive cell                                     

  volume of cell :    3288.8533

  direct lattice vectors                    reciprocal lattice vectors
    12.325000000  0.000000000  0.000000000     0.081135903  0.046843835  0.000000000
    -6.162500000 10.673763102  0.000000000     0.000000000  0.093687670  0.000000000
     0.000000000  0.000000000 25.000000000     0.000000000  0.000000000  0.040000000

  length of vectors
    12.325000000 12.325000000 25.000000000     0.093687670  0.093687670  0.040000000

  position of ions in fractional coordinates (direct lattice)
     0.972450841  0.000320818  0.000566711
     0.039118382  0.133659505  0.000440173
     0.172443627  0.000295449  0.000499628
     0.239096278  0.133647917  0.000256468
     0.972452058  0.200322012  0.000485219
     0.039128360  0.333643771  0.000444150
     0.172451764  0.200354552  0.000219167
     0.239124359  0.333665720  0.000072260
     0.372465565  0.000324403  0.000453913
     0.439137473  0.133619939  0.000258338
     0.972449824  0.400309362  0.000547611
     0.039124981  0.533636789  0.000573410
     0.372416176  0.400329481  0.000000000
     0.439099602  0.533638981  0.000232414
     0.572443676  0.000312125  0.000559580
     0.639110207  0.133631751  0.000547275
     0.972452703  0.600305653  0.000640289
     0.039124495  0.733640359  0.000654513
     0.572433471  0.600306242  0.000402895
     0.639111888  0.733641879  0.000527905
     0.172454630  0.400318228  0.000289045
     0.239120185  0.533636548  0.000378509
     0.372459750  0.200295993  0.000088997
     0.439107096  0.333673419  0.000055762
     0.172452155  0.600311506  0.000524340
     0.239123371  0.733638574  0.000575129
     0.572431082  0.200289171  0.000413296
     0.639112773  0.333618630  0.000462376
     0.372439808  0.600308022  0.000362844
     0.439116090  0.733637858  0.000494190
     0.572469358  0.400320504  0.000339918
     0.639119408  0.533650873  0.000459610
     0.772445723  0.000315427  0.000596161
     0.839116277  0.133640203  0.000575306
     0.772440513  0.200307432  0.000581033
     0.839120241  0.333635728  0.000585467
     0.772446320  0.400298367  0.000582978
     0.839118980  0.533633964  0.000621100
     0.772456143  0.600308173  0.000595712
     0.839115033  0.733643180  0.000631512
     0.972455313  0.800305582  0.000652233
     0.039114714  0.933643289  0.000598051
     0.172457971  0.800312211  0.000623372
     0.239134551  0.933647193  0.000544850
     0.372451396  0.800316674  0.000551399
     0.439124489  0.933644769  0.000541430
     0.572441101  0.800310054  0.000534535
     0.639115067  0.933638985  0.000587644
     0.772445098  0.800313187  0.000602062
     0.839116614  0.933644338  0.000606830
     0.373021009  0.251226878  0.168179283
     0.420879805  0.189313152  0.170756158
     0.325156981  0.313167186  0.165801088

  ion indices of the primitive-cell ions
   primitive index   ion index
                 1           1
                 2           2
                 3           3
                 4           4
                 5           5
                 6           6
                 7           7
                 8           8
                 9           9
                10          10
                11          11
                12          12
                13          13
                14          14
                15          15
                16          16
                17          17
                18          18
                19          19
                20          20
                21          21
                22          22
                23          23
                24          24
                25          25
                26          26
                27          27
                28          28
                29          29
                30          30
                31          31
                32          32
                33          33
                34          34
                35          35
                36          36
                37          37
                38          38
                39          39
                40          40
                41          41
                42          42
                43          43
                44          44
                45          45
                46          46
                47          47
                48          48
                49          49
                50          50
                51          51
                52          52
                53          53

----------------------------------------------------------------------------------------

 
 
 KPOINTS: auto                                    

Automatic generation of k-mesh.
 Grid dimensions read from file:
 generate k-points for:    1    1    1

 Generating k-lattice:

  Cartesian coordinates                     Fractional coordinates (reciprocal lattice)
     0.081135903  0.046843835  0.000000000     1.000000000 -0.000000000  0.000000000
     0.000000000  0.093687670  0.000000000     0.000000000  1.000000000  0.000000000
     0.000000000  0.000000000  0.040000000     0.000000000  0.000000000  1.000000000

  Length of vectors
     0.093687670  0.093687670  0.040000000

  Shift w.r.t. Gamma in fractional coordinates (k-lattice)
     0.000000000  0.000000000  0.000000000

 
 Subroutine IBZKPT returns following result:
 ===========================================
 
 Found      1 irreducible k-points:
 
 Following reciprocal coordinates:
            Coordinates               Weight
  0.000000  0.000000  0.000000      1.000000
 
 Following cartesian coordinates:
            Coordinates               Weight
  0.000000  0.000000  0.000000      1.000000
 


--------------------------------------------------------------------------------------------------------




 Dimension of arrays:
   k-points           NKPTS =      1   k-points in BZ     NKDIM =      1   number of bands    NBANDS=    140
   number of dos      NEDOS =    301   number of ions     NIONS =     53
   non local maximal  LDIM  =      4   non local SUM 2l+1 LMDIM =      8
   total plane-waves  NPLWV = ******
   max r-space proj   IRMAX =      1   max aug-charges    IRDMAX=  10008
   dimension x,y,z NGX =   128 NGY =  128 NGZ =  270
   dimension x,y,z NGXF=   256 NGYF=  256 NGZF=  540
   support grid    NGXF=   256 NGYF=  256 NGZF=  540
   ions per type =              51   2
   NGX,Y,Z   is equivalent  to a cutoff of  17.27, 17.27, 17.95 a.u.
   NGXF,Y,Z  is equivalent  to a cutoff of  34.53, 34.53, 35.91 a.u.

 SYSTEM =  unknown system                          
 POSCAR =   C  O                                   

 Startparameter for this run:
   NWRITE =      2    write-flag & timer
   PREC   = accura    normal or accurate (medium, high low for compatibility)
   ISTART =      0    job   : 0-new  1-cont  2-samecut
   ICHARG =      2    charge: 1-file 2-atom 10-const
   ISPIN  =      1    spin polarized calculation?
   LNONCOLLINEAR =      F non collinear calculations
   LSORBIT =      F    spin-orbit coupling
   INIWAV =      1    electr: 0-lowe 1-rand  2-diag
   LASPH  =      F    aspherical Exc in radial PAW
 Electronic Relaxation 1
   ENCUT  = 1000.0 eV  73.50 Ry    8.57 a.u.  31.78 31.78 64.46*2*pi/ulx,y,z
   ENINI  = 1000.0     initial cutoff
   ENAUG  =  946.8 eV  augmentation charge cutoff
   NELM   =     60;   NELMIN=  2; NELMDL= -5     # of ELM steps 
   EDIFF  = 0.1E-05   stopping-criterion for ELM
   LREAL  =      F    real-space projection
   NLSPLINE    = F    spline interpolate recip. space projectors
   LCOMPAT=      F    compatible to vasp.4.4
   GGA_COMPAT  = T    GGA compatible to vasp.4.4-vasp.4.6
   LMAXPAW     = -100 max onsite density
   LMAXMIX     =    2 max onsite mixed and CHGCAR
   VOSKOWN=      0    Vosko Wilk Nusair interpolation
   ROPT   =    0.00000   0.00000
 Ionic relaxation
   EDIFFG = 0.1E-04   stopping-criterion for IOM
   NSW    =      0    number of steps for IOM
   NBLOCK =      1;   KBLOCK =      1    inner block; outer block 
   IBRION =     -1    ionic relax: 0-MD 1-quasi-New 2-CG
   NFREE  =      0    steps in history (QN), initial steepest desc. (CG)
   ISIF   =      0    stress and relaxation
   IWAVPR =     10    prediction:  0-non 1-charg 2-wave 3-comb
   ISYM   =      2    0-nonsym 1-usesym 2-fastsym
   LCORR  =      T    Harris-Foulkes like correction to forces

   POTIM  = 0.5000    time-step for ionic-motion
   TEIN   =    0.0    initial temperature
   TEBEG  =    0.0;   TEEND  =   0.0 temperature during run
   SMASS  =  -3.00    Nose mass-parameter (am)
   estimated Nose-frequenzy (Omega)   =  0.10E-29 period in steps = 0.13E+47 mass=  -0.347E-26a.u.
   SCALEE = 1.0000    scale energy and forces
   NPACO  =    256;   APACO  = 16.0  distance and # of slots for P.C.
   PSTRESS=    0.0 pullay stress

  Mass of Ions in am
   POMASS =  12.01 16.00
  Ionic Valenz
   ZVAL   =   4.00  6.00
  Atomic Wigner-Seitz radii
   RWIGS  =  -1.00 -1.00
  virtual crystal weights 
   VCA    =   1.00  1.00
   NELECT =     216.0000    total number of electrons
   NUPDOWN=      -1.0000    fix difference up-down

 DOS related values:
   EMIN   =  10.00;   EMAX   =-10.00  energy-range for DOS
   EFERMI =   0.00
   ISMEAR =     0;   SIGMA  =   0.01  broadening in eV -4-tet -1-fermi 0-gaus

 Electronic relaxation 2 (details)
   IALGO  =     58    algorithm
   LDIAG  =      T    sub-space diagonalisation (order eigenvalues)
   LSUBROT=      F    optimize rotation matrix (better conditioning)
   TURBO    =      0    0=normal 1=particle mesh
   IRESTART =      0    0=no restart 2=restart with 2 vectors
   NREBOOT  =      0    no. of reboots
   NMIN     =      0    reboot dimension
   EREF     =   0.00    reference energy to select bands
   IMIX   =      4    mixing-type and parameters
     AMIX     =   0.40;   BMIX     =  1.00
     AMIX_MAG =   1.60;   BMIX_MAG =  1.00
     AMIN     =   0.10
     WC   =   100.;   INIMIX=   1;  MIXPRE=   1;  MAXMIX= -45

 Intra band minimization:
   WEIMIN = 0.0000     energy-eigenvalue tresh-hold
   EBREAK =  0.18E-08  absolut break condition
   DEPER  =   0.30     relativ break condition  

   TIME   =   0.40     timestep for ELM

  volume/ion in A,a.u.               =      62.05       418.76
  Fermi-wavevector in a.u.,A,eV,Ry     =   0.660508  1.248179  5.935820  0.436270
  Thomas-Fermi vector in A             =   1.732977
 
 Write flags
   LWAVE        =      F    write WAVECAR
   LDOWNSAMPLE  =      F    k-point downsampling of WAVECAR
   LCHARG       =      T    write CHGCAR
   LVTOT        =      F    write LOCPOT, total local potential
   LVHAR        =      F    write LOCPOT, Hartree potential only
   LELF         =      F    write electronic localiz. function (ELF)
   LORBIT       =      0    0 simple, 1 ext, 2 COOP (PROOUT), +10 PAW based schemes


 Dipole corrections
   LMONO  =      F    monopole corrections only (constant potential shift)
   LDIPOL =      F    correct potential (dipole corrections)
   IDIPOL =      0    1-x, 2-y, 3-z, 4-all directions 
   EPSILON=  1.0000000 bulk dielectric constant

 Exchange correlation treatment:
   GGA     =    RE    GGA type
   LEXCH   =    40    internal setting for exchange type
   VOSKOWN=      0    Vosko Wilk Nusair interpolation
   LHFCALC =     F    Hartree Fock is set to
   LHFONE  =     F    Hartree Fock one center treatment
   AEXX    =    0.0000 exact exchange contribution

 Linear response parameters
   LEPSILON=     F    determine dielectric tensor
   LRPA    =     F    only Hartree local field effects (RPA)
   LNABLA  =     F    use nabla operator in PAW spheres
   LVEL    =     F    velocity operator in full k-point grid
   LINTERFAST=   F  fast interpolation
   KINTER  =     0    interpolate to denser k-point grid
   CSHIFT  =0.1000    complex shift for real part using Kramers Kronig
   OMEGAMAX=  -1.0    maximum frequency
   DEG_THRESHOLD= 0.2000000E-02 threshold for treating states as degnerate
   RTIME   =   -0.100 relaxation time in fs
  (WPLASMAI=    0.000 imaginary part of plasma frequency in eV, 0.658/RTIME)
   DFIELD  = 0.0000000 0.0000000 0.0000000 field for delta impulse in time
 
 Orbital magnetization related:
   ORBITALMAG=     F  switch on orbital magnetization
   LCHIMAG   =     F  perturbation theory with respect to B field
   DQ        =  0.001000  dq finite difference perturbation B field
   LLRAUG    =     F  two centre corrections for induced B field



--------------------------------------------------------------------------------------------------------


 Static calculation
 charge density and potential will be updated during run
 non-spin polarized calculation
 Conjugate gradient for all bands (Freysoldt, et al. PRB 79, 241103 (2009))
 preconditioned conjugated gradient                                        
 perform sub-space diagonalisation
    before iterative eigenvector-optimisation
 modified Broyden-mixing scheme, WC =      100.0
 initial mixing is a Kerker type mixing with AMIX =  0.4000 and BMIX =      1.0000
 Hartree-type preconditioning will be used
 using additional bands           32
 reciprocal scheme for non local part
 use partial core corrections
 no Harris-corrections to forces 
 use gradient corrections 
 use of overlap-Matrix (Vanderbilt PP)
 Gauss-broadening in eV      SIGMA  =   0.01


--------------------------------------------------------------------------------------------------------


  energy-cutoff  :     1000.00
  volume of cell :     3288.85
      direct lattice vectors                 reciprocal lattice vectors
    12.325000000  0.000000000  0.000000000     0.081135903  0.046843835  0.000000000
    -6.162500000 10.673763102  0.000000000     0.000000000  0.093687670  0.000000000
     0.000000000  0.000000000 25.000000000     0.000000000  0.000000000  0.040000000

  length of vectors
    12.325000000 12.325000000 25.000000000     0.093687670  0.093687670  0.040000000


 
 k-points in units of 2pi/SCALE and weight: auto                                    
   0.00000000  0.00000000  0.00000000       1.000
 
 k-points in reciprocal lattice and weights: auto                                    
   0.00000000  0.00000000  0.00000000       1.000
 
 position of ions in fractional coordinates (direct lattice) 
   0.97245084  0.00032082  0.00056671
   0.03911838  0.13365950  0.00044017
   0.17244363  0.00029545  0.00049963
   0.23909628  0.13364792  0.00025647
   0.97245206  0.20032201  0.00048522
   0.03912836  0.33364377  0.00044415
   0.17245176  0.20035455  0.00021917
   0.23912436  0.33366572  0.00007226
   0.37246557  0.00032440  0.00045391
   0.43913747  0.13361994  0.00025834
   0.97244982  0.40030936  0.00054761
   0.03912498  0.53363679  0.00057341
   0.37241618  0.40032948  0.00000000
   0.43909960  0.53363898  0.00023241
   0.57244368  0.00031213  0.00055958
   0.63911021  0.13363175  0.00054727
   0.97245270  0.60030565  0.00064029
   0.03912449  0.73364036  0.00065451
   0.57243347  0.60030624  0.00040289
   0.63911189  0.73364188  0.00052791
   0.17245463  0.40031823  0.00028904
   0.23912018  0.53363655  0.00037851
   0.37245975  0.20029599  0.00008900
   0.43910710  0.33367342  0.00005576
   0.17245216  0.60031151  0.00052434
   0.23912337  0.73363857  0.00057513
   0.57243108  0.20028917  0.00041330
   0.63911277  0.33361863  0.00046238
   0.37243981  0.60030802  0.00036284
   0.43911609  0.73363786  0.00049419
   0.57246936  0.40032050  0.00033992
   0.63911941  0.53365087  0.00045961
   0.77244572  0.00031543  0.00059616
   0.83911628  0.13364020  0.00057531
   0.77244051  0.20030743  0.00058103
   0.83912024  0.33363573  0.00058547
   0.77244632  0.40029837  0.00058298
   0.83911898  0.53363396  0.00062110
   0.77245614  0.60030817  0.00059571
   0.83911503  0.73364318  0.00063151
   0.97245531  0.80030558  0.00065223
   0.03911471  0.93364329  0.00059805
   0.17245797  0.80031221  0.00062337
   0.23913455  0.93364719  0.00054485
   0.37245140  0.80031667  0.00055140
   0.43912449  0.93364477  0.00054143
   0.57244110  0.80031005  0.00053453
   0.63911507  0.93363899  0.00058764
   0.77244510  0.80031319  0.00060206
   0.83911661  0.93364434  0.00060683
   0.37302101  0.25122688  0.16817928
   0.42087980  0.18931315  0.17075616
   0.32515698  0.31316719  0.16580109
 
 position of ions in cartesian coordinates  (Angst):
  11.98347958  0.00342433  0.01416777
  -0.34154264  1.42664989  0.01100432
   2.12354700  0.00315355  0.01249070
   2.12325634  1.42652621  0.00641170
  10.75098721  2.13818970  0.01213047
  -1.57382270  3.56123457  0.01110375
   0.89078307  2.13853702  0.00547917
   0.89099273  3.56146885  0.00180651
   4.58863896  0.00346260  0.01134782
   4.58893648  1.42622757  0.00645846
   9.51853763  4.27280730  0.01369027
  -2.80632132  5.69591267  0.01433526
   2.12299894  4.27302204  0.00000000
   2.12335237  5.69593607  0.00581036
   7.05344483  0.00333155  0.01398950
   7.05352764  1.42635365  0.01368187
   8.28609598  6.40752033  0.01600723
  -4.03884931  7.83070339  0.01636283
   3.35585531  6.40752662  0.01007237
   3.35598594  7.83071962  0.01319763
  -0.34145776  4.27290193  0.00722612
  -0.34137895  5.69591010  0.00946273
   3.35624236  2.13791198  0.00222492
   3.35573251  3.56155103  0.00139405
  -1.57394684  6.40758280  0.01310850
  -1.57385216  7.83068434  0.01437823
   5.82093107  2.13783916  0.01033241
   5.82114012  3.56096622  0.01155939
   0.89092245  6.40754561  0.00907111
   0.89106251  7.83067670  0.01235474
   4.58870974  4.27292622  0.00849795
   4.58852320  5.69606300  0.01149026
   9.51844972  0.00336679  0.01490402
   9.51855036  1.42644387  0.01438264
   8.28593477  2.13803408  0.01452582
   8.28612680  3.56114872  0.01463668
   7.05356221  4.27268994  0.01457444
   7.05362213  5.69588251  0.01552751
   5.82112285  6.40754723  0.01489279
   5.82101669  7.83073350  0.01578780
   7.05362858  8.54227219  0.01630582
  -5.27148792  9.96548729  0.01495127
  -2.80637951  8.54234295  0.01558431
  -2.80626749  9.96552896  0.01362126
  -0.34148805  8.54239058  0.01378498
  -0.34137657  9.96550309  0.01353576
   2.12342586  8.54231992  0.01336337
   2.12354296  9.96544135  0.01469111
   4.58845581  8.54235337  0.01505154
   4.58852904  9.96549848  0.01517076
   3.04929830  2.68153618  4.20448208
   4.02070129  2.02068374  4.26890394
   2.07766701  3.34267235  4.14502721
 


--------------------------------------------------------------------------------------------------------


 k-point   1 :   0.0000 0.0000 0.0000  plane waves:  236157

 maximum and minimum number of plane-waves per node :     59046    59034

 maximum number of plane-waves:    236157
 maximum index in each direction: 
   IXMAX=   31   IYMAX=   31   IZMAX=   64
   IXMIN=  -31   IYMIN=  -31   IZMIN=  -64


 parallel 3D FFT for wavefunctions:
    minimum data exchange during FFTs selected (reduces bandwidth)
 parallel 3D FFT for charge:
    minimum data exchange during FFTs selected (reduces bandwidth)


 total amount of memory used by VASP MPI-rank0   215378. kBytes
=======================================================================

   base      :      30000. kBytes
   nonl-proj :      57634. kBytes
   fftplans  :      45914. kBytes
   grid      :      67588. kBytes
   one-center:         43. kBytes
   wavefun   :      14199. kBytes
 
     INWAV:  cpu time    0.0000: real time    0.0000
 Broyden mixing: mesh for mixing (old mesh)
   NGX = 63   NGY = 63   NGZ =129
  (NGX  =256   NGY  =256   NGZ  =540)
  gives a total of 512001 points

 initial charge density was supplied:
 charge density of overlapping atoms calculated
 number of electron     216.0000000 magnetization 
 keeping initial charge density in first step


--------------------------------------------------------------------------------------------------------


 Maximum index for augmentation-charges          471 (set IRDMAX)


--------------------------------------------------------------------------------------------------------


 First call to EWALD:  gamma=   0.119
 Maximum number of real-space cells 4x 4x 2
 Maximum number of reciprocal cells 2x 2x 4

    FEWALD:  cpu time    0.0028: real time    0.0028


--------------------------------------- Iteration      1(   1)  ---------------------------------------


    POTLOK:  cpu time    0.4008: real time    0.4037
    SETDIJ:  cpu time    0.0047: real time    0.0049
    TRIAL :  cpu time    5.6489: real time    5.7042
    CORREC:  cpu time    0.0006: real time    0.0006
    --------------------------------------------
      LOOP:  cpu time    6.0624: real time    6.1219

 eigenvalue-minimisations  :   280
 total energy-change (2. order) : 0.2774958E+04  (-0.1023668E+05)
 number of electron     216.0000000 magnetization 
 augmentation part      216.0000000 magnetization 

 Free energy of the ion-electron system (eV)
  ---------------------------------------------------
  alpha Z        PSCENC =        47.94900195
  Ewald energy   TEWEN  =     45899.51553853
  -Hartree energ DENC   =    -51968.63327317
  -exchange      EXHF   =         0.00000000
  -V(xc)+E(xc)   XCENC  =       415.91185053
  PAW double counting   =      6538.03749920    -6258.26020123
  entropy T*S    EENTRO =        -0.00000000
  eigenvalues    EBANDS =      -263.87185657
  atomic energy  EATOM  =      8364.30921166
  ---------------------------------------------------
  free energy    TOTEN  =      2774.95777091 eV

  energy without entropy =     2774.95777091  energy(sigma->0) =     2774.95777091


--------------------------------------------------------------------------------------------------------




--------------------------------------- Iteration      1(   2)  ---------------------------------------


    TRIAL :  cpu time    8.1570: real time    8.2297
    CORREC:  cpu time    0.0001: real time    0.0001
    --------------------------------------------
      LOOP:  cpu time    8.2040: real time    8.2807

 eigenvalue-minimisations  :   448
 total energy-change (2. order) :-0.2433144E+04  (-0.2275578E+04)
 number of electron     216.0000000 magnetization 
 augmentation part      216.0000000 magnetization 

 Free energy of the ion-electron system (eV)
  ---------------------------------------------------
  alpha Z        PSCENC =        47.94900195
  Ewald energy   TEWEN  =     45899.51553853
  -Hartree energ DENC   =    -51968.63327317
  -exchange      EXHF   =         0.00000000
  -V(xc)+E(xc)   XCENC  =       415.91185053
  PAW double counting   =      6538.03749920    -6258.26020123
  entropy T*S    EENTRO =        -0.00000000
  eigenvalues    EBANDS =     -2697.01557550
  atomic energy  EATOM  =      8364.30921166
  ---------------------------------------------------
  free energy    TOTEN  =       341.81405198 eV

  energy without entropy =      341.81405198  energy(sigma->0) =      341.81405198


--------------------------------------------------------------------------------------------------------




--------------------------------------- Iteration      1(   3)  ---------------------------------------


    TRIAL :  cpu time    6.8782: real time    6.9376
    CORREC:  cpu time    0.0001: real time    0.0001
    --------------------------------------------
      LOOP:  cpu time    6.9129: real time    6.9733

 eigenvalue-minimisations  :   364
 total energy-change (2. order) :-0.7865079E+03  (-0.7748881E+03)
 number of electron     216.0000000 magnetization 
 augmentation part      216.0000000 magnetization 

 Free energy of the ion-electron system (eV)
  ---------------------------------------------------
  alpha Z        PSCENC =        47.94900195
  Ewald energy   TEWEN  =     45899.51553853
  -Hartree energ DENC   =    -51968.63327317
  -exchange      EXHF   =         0.00000000
  -V(xc)+E(xc)   XCENC  =       415.91185053
  PAW double counting   =      6538.03749920    -6258.26020123
  entropy T*S    EENTRO =        -0.00000000
  eigenvalues    EBANDS =     -3483.52342572
  atomic energy  EATOM  =      8364.30921166
  ---------------------------------------------------
  free energy    TOTEN  =      -444.69379824 eV

  energy without entropy =     -444.69379824  energy(sigma->0) =     -444.69379824


--------------------------------------------------------------------------------------------------------




--------------------------------------- Iteration      1(   4)  ---------------------------------------


    TRIAL :  cpu time    6.8789: real time    6.9400
    CORREC:  cpu time    0.0001: real time    0.0001
    --------------------------------------------
      LOOP:  cpu time    6.9124: real time    6.9751

 eigenvalue-minimisations  :   364
 total energy-change (2. order) :-0.5249857E+02  (-0.5219789E+02)
 number of electron     216.0000000 magnetization 
 augmentation part      216.0000000 magnetization 

 Free energy of the ion-electron system (eV)
  ---------------------------------------------------
  alpha Z        PSCENC =        47.94900195
  Ewald energy   TEWEN  =     45899.51553853
  -Hartree energ DENC   =    -51968.63327317
  -exchange      EXHF   =         0.00000000
  -V(xc)+E(xc)   XCENC  =       415.91185053
  PAW double counting   =      6538.03749920    -6258.26020123
  entropy T*S    EENTRO =        -0.00000000
  eigenvalues    EBANDS =     -3536.02199952
  atomic energy  EATOM  =      8364.30921166
  ---------------------------------------------------
  free energy    TOTEN  =      -497.19237204 eV

  energy without entropy =     -497.19237204  energy(sigma->0) =     -497.19237204


--------------------------------------------------------------------------------------------------------




--------------------------------------- Iteration      1(   5)  ---------------------------------------


    TRIAL :  cpu time    7.3007: real time    7.3708
    CORREC:  cpu time    0.0001: real time    0.0002
    CHARGE:  cpu time    0.3124: real time    0.3164
    --------------------------------------------
      LOOP:  cpu time    7.6638: real time    7.7385

 eigenvalue-minimisations  :   392
 total energy-change (2. order) :-0.1393961E+01  (-0.1389943E+01)
 number of electron     216.0000000 magnetization 
 augmentation part       -0.3169884 magnetization 

 Free energy of the ion-electron system (eV)
  ---------------------------------------------------
  alpha Z        PSCENC =        47.94900195
  Ewald energy   TEWEN  =     45899.51553853
  -Hartree energ DENC   =    -51968.63327317
  -exchange      EXHF   =         0.00000000
  -V(xc)+E(xc)   XCENC  =       415.91185053
  PAW double counting   =      6538.03749920    -6258.26020123
  entropy T*S    EENTRO =        -0.00000000
  eigenvalues    EBANDS =     -3537.41596102
  atomic energy  EATOM  =      8364.30921166
  ---------------------------------------------------
  free energy    TOTEN  =      -498.58633354 eV

  energy without entropy =     -498.58633354  energy(sigma->0) =     -498.58633354


--------------------------------------------------------------------------------------------------------




--------------------------------------- Iteration      1(   6)  ---------------------------------------


    POTLOK:  cpu time    0.3852: real time    0.3881
    SETDIJ:  cpu time    0.0029: real time    0.0030
    TRIAL :  cpu time    2.6926: real time    2.7228
    CORREC:  cpu time    1.0694: real time    1.0796
    CHARGE:  cpu time    0.3124: real time    0.3147
    --------------------------------------------
      LOOP:  cpu time    4.5053: real time    4.5559

 eigenvalue-minimisations  :     0
 total energy-change (2. order) : 0.4846585E+02  (-0.1430858E+02)
 number of electron     216.0000000 magnetization 
 augmentation part       -0.4076027 magnetization 

 Free energy of the ion-electron system (eV)
  ---------------------------------------------------
  alpha Z        PSCENC =        47.94900195
  Ewald energy   TEWEN  =     45899.51553853
  -Hartree energ DENC   =    -53393.96759292
  -exchange      EXHF   =         0.00000000
  -V(xc)+E(xc)   XCENC  =       462.85430841
  PAW double counting   =    104550.72704260  -104276.28660395
  entropy T*S    EENTRO =        -0.00000000
  eigenvalues    EBANDS =     -2105.22138863
  atomic energy  EATOM  =      8364.30921166
  ---------------------------------------------------
  free energy    TOTEN  =      -450.12048235 eV

  energy without entropy =     -450.12048235  energy(sigma->0) =     -450.12048235


--------------------------------------------------------------------------------------------------------




--------------------------------------- Iteration      1(   7)  ---------------------------------------


    POTLOK:  cpu time    0.3844: real time    0.3872
    SETDIJ:  cpu time    0.0030: real time    0.0030
    TRIAL :  cpu time    2.6765: real time    2.7020
    CORREC:  cpu time    1.0773: real time    1.0862
    CHARGE:  cpu time    0.3119: real time    0.3142
    --------------------------------------------
      LOOP:  cpu time    4.4803: real time    4.5452

 eigenvalue-minimisations  :     0
 total energy-change (2. order) :-0.1434344E+02  (-0.1735746E+01)
 number of electron     216.0000000 magnetization 
 augmentation part       -0.4521743 magnetization 

 Free energy of the ion-electron system (eV)
  ---------------------------------------------------
  alpha Z        PSCENC =        47.94900195
  Ewald energy   TEWEN  =     45899.51553853
  -Hartree energ DENC   =    -52904.54112066
  -exchange      EXHF   =         0.00000000
  -V(xc)+E(xc)   XCENC  =       446.80894831
  PAW double counting   =    120628.26495780  -120351.76932060
  entropy T*S    EENTRO =        -0.00000000
  eigenvalues    EBANDS =     -2595.00113737
  atomic energy  EATOM  =      8364.30921166
  ---------------------------------------------------
  free energy    TOTEN  =      -464.46392037 eV

  energy without entropy =     -464.46392037  energy(sigma->0) =     -464.46392037


--------------------------------------------------------------------------------------------------------




--------------------------------------- Iteration      1(   8)  ---------------------------------------


    POTLOK:  cpu time    0.3853: real time    0.3882
    SETDIJ:  cpu time    0.0031: real time    0.0031
    TRIAL :  cpu time    2.6747: real time    2.7009
    CORREC:  cpu time    1.0790: real time    1.0879
    CHARGE:  cpu time    0.3119: real time    0.3143
    --------------------------------------------
      LOOP:  cpu time    4.4869: real time    4.5439

 eigenvalue-minimisations  :     0
 total energy-change (2. order) :-0.1735154E+01  (-0.4531200E+00)
 number of electron     216.0000000 magnetization 
 augmentation part       -0.4671788 magnetization 

 Free energy of the ion-electron system (eV)
  ---------------------------------------------------
  alpha Z        PSCENC =        47.94900195
  Ewald energy   TEWEN  =     45899.51553853
  -Hartree energ DENC   =    -52875.72179073
  -exchange      EXHF   =         0.00000000
  -V(xc)+E(xc)   XCENC  =       446.20557486
  PAW double counting   =    124797.93833804  -124521.15254305
  entropy T*S    EENTRO =        -0.00000000
  eigenvalues    EBANDS =     -2625.24240514
  atomic energy  EATOM  =      8364.30921166
  ---------------------------------------------------
  free energy    TOTEN  =      -466.19907387 eV

  energy without entropy =     -466.19907387  energy(sigma->0) =     -466.19907387


--------------------------------------------------------------------------------------------------------




--------------------------------------- Iteration      1(   9)  ---------------------------------------


    POTLOK:  cpu time    0.3823: real time    0.3848
    SETDIJ:  cpu time    0.0029: real time    0.0029
    TRIAL :  cpu time    2.6805: real time    2.7043
    CORREC:  cpu time    1.0787: real time    1.0874
    CHARGE:  cpu time    0.3119: real time    0.3147
    --------------------------------------------
      LOOP:  cpu time    4.5499: real time    4.5916

 eigenvalue-minimisations  :     0
 total energy-change (2. order) :-0.4529305E+00  (-0.1424659E+00)
 number of electron     216.0000000 magnetization 
 augmentation part       -0.4737279 magnetization 

 Free energy of the ion-electron system (eV)
  ---------------------------------------------------
  alpha Z        PSCENC =        47.94900195
  Ewald energy   TEWEN  =     45899.51553853
  -Hartree energ DENC   =    -52891.62528364
  -exchange      EXHF   =         0.00000000
  -V(xc)+E(xc)   XCENC  =       446.37946207
  PAW double counting   =    127251.40333779  -126974.51755989
  entropy T*S    EENTRO =        -0.00000000
  eigenvalues    EBANDS =     -2610.06571288
  atomic energy  EATOM  =      8364.30921166
  ---------------------------------------------------
  free energy    TOTEN  =      -466.65200440 eV

  energy without entropy =     -466.65200440  energy(sigma->0) =     -466.65200440


--------------------------------------------------------------------------------------------------------




--------------------------------------- Iteration      1(  10)  ---------------------------------------


    POTLOK:  cpu time    0.3848: real time    0.3875
    SETDIJ:  cpu time    0.0031: real time    0.0032
    TRIAL :  cpu time    2.6752: real time    2.6996
    CORREC:  cpu time    1.0789: real time    1.0877
    CHARGE:  cpu time    0.3118: real time    0.3141
    --------------------------------------------
      LOOP:  cpu time    4.5260: real time    4.5701

 eigenvalue-minimisations  :     0
 total energy-change (2. order) :-0.1422743E+00  (-0.5676592E-01)
 number of electron     216.0000000 magnetization 
 augmentation part       -0.4744646 magnetization 

 Free energy of the ion-electron system (eV)
  ---------------------------------------------------
  alpha Z        PSCENC =        47.94900195
  Ewald energy   TEWEN  =     45899.51553853
  -Hartree energ DENC   =    -52893.11122795
  -exchange      EXHF   =         0.00000000
  -V(xc)+E(xc)   XCENC  =       446.30197916
  PAW double counting   =    127439.75079581  -127162.80771797
  entropy T*S    EENTRO =        -0.00000000
  eigenvalues    EBANDS =     -2608.70185993
  atomic energy  EATOM  =      8364.30921166
  ---------------------------------------------------
  free energy    TOTEN  =      -466.79427872 eV

  energy without entropy =     -466.79427872  energy(sigma->0) =     -466.79427872


--------------------------------------------------------------------------------------------------------




--------------------------------------- Iteration      1(  11)  ---------------------------------------


    POTLOK:  cpu time    0.3843: real time    0.3869
    SETDIJ:  cpu time    0.0030: real time    0.0030
    TRIAL :  cpu time    2.6775: real time    2.7035
    CORREC:  cpu time    1.0758: real time    1.0844
    CHARGE:  cpu time    0.3115: real time    0.3138
    --------------------------------------------
      LOOP:  cpu time    4.5118: real time    4.5555

 eigenvalue-minimisations  :     0
 total energy-change (2. order) :-0.5662666E-01  (-0.2275122E-01)
 number of electron     216.0000000 magnetization 
 augmentation part       -0.4742903 magnetization 

 Free energy of the ion-electron system (eV)
  ---------------------------------------------------
  alpha Z        PSCENC =        47.94900195
  Ewald energy   TEWEN  =     45899.51553853
  -Hartree energ DENC   =    -52889.52186889
  -exchange      EXHF   =         0.00000000
  -V(xc)+E(xc)   XCENC  =       446.24253825
  PAW double counting   =    126828.03934833  -126551.09881910
  entropy T*S    EENTRO =        -0.00000000
  eigenvalues    EBANDS =     -2612.28585613
  atomic energy  EATOM  =      8364.30921166
  ---------------------------------------------------
  free energy    TOTEN  =      -466.85090538 eV

  energy without entropy =     -466.85090538  energy(sigma->0) =     -466.85090538


--------------------------------------------------------------------------------------------------------




--------------------------------------- Iteration      1(  12)  ---------------------------------------


    POTLOK:  cpu time    0.3842: real time    0.3867
    SETDIJ:  cpu time    0.0029: real time    0.0029
    TRIAL :  cpu time    2.6764: real time    2.7042
    CORREC:  cpu time    1.0721: real time    1.0823
    CHARGE:  cpu time    0.3111: real time    0.3133
    --------------------------------------------
      LOOP:  cpu time    4.5803: real time    4.6239

 eigenvalue-minimisations  :     0
 total energy-change (2. order) :-0.2266088E-01  (-0.7989977E-02)
 number of electron     216.0000000 magnetization 
 augmentation part       -0.4746137 magnetization 

 Free energy of the ion-electron system (eV)
  ---------------------------------------------------
  alpha Z        PSCENC =        47.94900195
  Ewald energy   TEWEN  =     45899.51553853
  -Hartree energ DENC   =    -52887.88296369
  -exchange      EXHF   =         0.00000000
  -V(xc)+E(xc)   XCENC  =       446.21155999
  PAW double counting   =    126458.36732228  -126181.44305865
  entropy T*S    EENTRO =        -0.00000000
  eigenvalues    EBANDS =     -2613.90017835
  atomic energy  EATOM  =      8364.30921166
  ---------------------------------------------------
  free energy    TOTEN  =      -466.87356626 eV

  energy without entropy =     -466.87356626  energy(sigma->0) =     -466.87356626


--------------------------------------------------------------------------------------------------------




--------------------------------------- Iteration      1(  13)  ---------------------------------------


    POTLOK:  cpu time    0.3797: real time    0.3822
    SETDIJ:  cpu time    0.0029: real time    0.0029
    TRIAL :  cpu time    2.6777: real time    2.7026
    CORREC:  cpu time    1.0742: real time    1.0828
    CHARGE:  cpu time    0.3100: real time    0.3128
    --------------------------------------------
      LOOP:  cpu time    4.5439: real time    4.5838

 eigenvalue-minimisations  :     0
 total energy-change (2. order) :-0.7971275E-02  (-0.2394892E-02)
 number of electron     216.0000000 magnetization 
 augmentation part       -0.4743663 magnetization 

 Free energy of the ion-electron system (eV)
  ---------------------------------------------------
  alpha Z        PSCENC =        47.94900195
  Ewald energy   TEWEN  =     45899.51553853
  -Hartree energ DENC   =    -52887.70314500
  -exchange      EXHF   =         0.00000000
  -V(xc)+E(xc)   XCENC  =       446.20101896
  PAW double counting   =    126393.00464189  -126116.08572578
  entropy T*S    EENTRO =        -0.00000000
  eigenvalues    EBANDS =     -2614.07207976
  atomic energy  EATOM  =      8364.30921166
  ---------------------------------------------------
  free energy    TOTEN  =      -466.88153754 eV

  energy without entropy =     -466.88153754  energy(sigma->0) =     -466.88153754


--------------------------------------------------------------------------------------------------------




--------------------------------------- Iteration      1(  14)  ---------------------------------------


    POTLOK:  cpu time    0.3772: real time    0.3801
    SETDIJ:  cpu time    0.0029: real time    0.0029
    TRIAL :  cpu time    2.6702: real time    2.6996
    CORREC:  cpu time    1.0707: real time    1.0813
    CHARGE:  cpu time    0.3119: real time    0.3148
    --------------------------------------------
      LOOP:  cpu time    4.4844: real time    4.5333

 eigenvalue-minimisations  :     0
 total energy-change (2. order) :-0.2395240E-02  (-0.7125318E-03)
 number of electron     216.0000000 magnetization 
 augmentation part       -0.4741394 magnetization 

 Free energy of the ion-electron system (eV)
  ---------------------------------------------------
  alpha Z        PSCENC =        47.94900195
  Ewald energy   TEWEN  =     45899.51553853
  -Hartree energ DENC   =    -52887.60784983
  -exchange      EXHF   =         0.00000000
  -V(xc)+E(xc)   XCENC  =       446.20052314
  PAW double counting   =    126456.27478972  -126179.35697445
  entropy T*S    EENTRO =        -0.00000000
  eigenvalues    EBANDS =     -2614.16817350
  atomic energy  EATOM  =      8364.30921166
  ---------------------------------------------------
  free energy    TOTEN  =      -466.88393278 eV

  energy without entropy =     -466.88393278  energy(sigma->0) =     -466.88393278


--------------------------------------------------------------------------------------------------------




--------------------------------------- Iteration      1(  15)  ---------------------------------------


    POTLOK:  cpu time    0.3773: real time    0.3804
    SETDIJ:  cpu time    0.0030: real time    0.0030
    TRIAL :  cpu time    2.6702: real time    2.6998
    CORREC:  cpu time    1.0685: real time    1.0770
    CHARGE:  cpu time    0.3107: real time    0.3130
    --------------------------------------------
      LOOP:  cpu time    4.4565: real time    4.5046

 eigenvalue-minimisations  :     0
 total energy-change (2. order) :-0.7145546E-03  (-0.2528350E-03)
 number of electron     216.0000000 magnetization 
 augmentation part       -0.4738606 magnetization 

 Free energy of the ion-electron system (eV)
  ---------------------------------------------------
  alpha Z        PSCENC =        47.94900195
  Ewald energy   TEWEN  =     45899.51553853
  -Hartree energ DENC   =    -52887.26832296
  -exchange      EXHF   =         0.00000000
  -V(xc)+E(xc)   XCENC  =       446.18836904
  PAW double counting   =    126496.04273840  -126219.12356838
  entropy T*S    EENTRO =        -0.00000000
  eigenvalues    EBANDS =     -2614.49761557
  atomic energy  EATOM  =      8364.30921166
  ---------------------------------------------------
  free energy    TOTEN  =      -466.88464733 eV

  energy without entropy =     -466.88464733  energy(sigma->0) =     -466.88464733


--------------------------------------------------------------------------------------------------------




--------------------------------------- Iteration      1(  16)  ---------------------------------------


    POTLOK:  cpu time    0.3757: real time    0.3782
    SETDIJ:  cpu time    0.0029: real time    0.0029
    TRIAL :  cpu time    2.6786: real time    2.7027
    CORREC:  cpu time    1.0705: real time    1.0793
    CHARGE:  cpu time    0.3116: real time    0.3138
    --------------------------------------------
      LOOP:  cpu time    4.4572: real time    4.4961

 eigenvalue-minimisations  :     0
 total energy-change (2. order) :-0.2542001E-03  (-0.1024488E-03)
 number of electron     216.0000000 magnetization 
 augmentation part       -0.4736878 magnetization 

 Free energy of the ion-electron system (eV)
  ---------------------------------------------------
  alpha Z        PSCENC =        47.94900195
  Ewald energy   TEWEN  =     45899.51553853
  -Hartree energ DENC   =    -52887.37200548
  -exchange      EXHF   =         0.00000000
  -V(xc)+E(xc)   XCENC  =       446.19234049
  PAW double counting   =    126475.54063748  -126198.62205549
  entropy T*S    EENTRO =        -0.00000000
  eigenvalues    EBANDS =     -2614.39757068
  atomic energy  EATOM  =      8364.30921166
  ---------------------------------------------------
  free energy    TOTEN  =      -466.88490153 eV

  energy without entropy =     -466.88490153  energy(sigma->0) =     -466.88490153


--------------------------------------------------------------------------------------------------------




--------------------------------------- Iteration      1(  17)  ---------------------------------------


    POTLOK:  cpu time    0.3730: real time    0.3754
    SETDIJ:  cpu time    0.0029: real time    0.0029
    TRIAL :  cpu time    2.6755: real time    2.7000
    CORREC:  cpu time    1.0845: real time    1.0931
    CHARGE:  cpu time    0.3115: real time    0.3140
    --------------------------------------------
      LOOP:  cpu time    4.4855: real time    4.5271

 eigenvalue-minimisations  :     0
 total energy-change (2. order) :-0.1031985E-03  (-0.3993138E-04)
 number of electron     216.0000000 magnetization 
 augmentation part       -0.4736935 magnetization 

 Free energy of the ion-electron system (eV)
  ---------------------------------------------------
  alpha Z        PSCENC =        47.94900195
  Ewald energy   TEWEN  =     45899.51553853
  -Hartree energ DENC   =    -52887.50073767
  -exchange      EXHF   =         0.00000000
  -V(xc)+E(xc)   XCENC  =       446.19602580
  PAW double counting   =    126444.97023273  -126168.05202582
  entropy T*S    EENTRO =        -0.00000000
  eigenvalues    EBANDS =     -2614.27225193
  atomic energy  EATOM  =      8364.30921166
  ---------------------------------------------------
  free energy    TOTEN  =      -466.88500473 eV

  energy without entropy =     -466.88500473  energy(sigma->0) =     -466.88500473


--------------------------------------------------------------------------------------------------------




--------------------------------------- Iteration      1(  18)  ---------------------------------------


    POTLOK:  cpu time    0.3760: real time    0.3784
    SETDIJ:  cpu time    0.0029: real time    0.0030
    TRIAL :  cpu time    2.6767: real time    2.7011
    CORREC:  cpu time    1.0701: real time    1.0788
    CHARGE:  cpu time    0.3113: real time    0.3135
    --------------------------------------------
      LOOP:  cpu time    4.4819: real time    4.5202

 eigenvalue-minimisations  :     0
 total energy-change (2. order) :-0.4002148E-04  (-0.1532762E-04)
 number of electron     216.0000000 magnetization 
 augmentation part       -0.4737452 magnetization 

 Free energy of the ion-electron system (eV)
  ---------------------------------------------------
  alpha Z        PSCENC =        47.94900195
  Ewald energy   TEWEN  =     45899.51553853
  -Hartree energ DENC   =    -52887.48281985
  -exchange      EXHF   =         0.00000000
  -V(xc)+E(xc)   XCENC  =       446.19483875
  PAW double counting   =    126437.71524670  -126160.79663955
  entropy T*S    EENTRO =        -0.00000000
  eigenvalues    EBANDS =     -2614.28942296
  atomic energy  EATOM  =      8364.30921166
  ---------------------------------------------------
  free energy    TOTEN  =      -466.88504475 eV

  energy without entropy =     -466.88504475  energy(sigma->0) =     -466.88504475


--------------------------------------------------------------------------------------------------------




--------------------------------------- Iteration      1(  19)  ---------------------------------------


    POTLOK:  cpu time    0.3766: real time    0.3792
    SETDIJ:  cpu time    0.0029: real time    0.0029
    TRIAL :  cpu time    2.6766: real time    2.7011
    CORREC:  cpu time    1.0779: real time    1.0911
    CHARGE:  cpu time    0.3113: real time    0.3136
    --------------------------------------------
      LOOP:  cpu time    4.4759: real time    4.5292

 eigenvalue-minimisations  :     0
 total energy-change (2. order) :-0.1498885E-04  (-0.5673267E-05)
 number of electron     216.0000000 magnetization 
 augmentation part       -0.4738210 magnetization 

 Free energy of the ion-electron system (eV)
  ---------------------------------------------------
  alpha Z        PSCENC =        47.94900195
  Ewald energy   TEWEN  =     45899.51553853
  -Hartree energ DENC   =    -52887.50290179
  -exchange      EXHF   =         0.00000000
  -V(xc)+E(xc)   XCENC  =       446.19595440
  PAW double counting   =    126443.62891738  -126166.71021408
  entropy T*S    EENTRO =        -0.00000000
  eigenvalues    EBANDS =     -2614.27056779
  atomic energy  EATOM  =      8364.30921166
  ---------------------------------------------------
  free energy    TOTEN  =      -466.88505974 eV

  energy without entropy =     -466.88505974  energy(sigma->0) =     -466.88505974


--------------------------------------------------------------------------------------------------------




--------------------------------------- Iteration      1(  20)  ---------------------------------------


    POTLOK:  cpu time    0.3758: real time    0.3783
    SETDIJ:  cpu time    0.0029: real time    0.0029
    TRIAL :  cpu time    2.6786: real time    2.7032
    CORREC:  cpu time    1.0735: real time    1.0822
    CHARGE:  cpu time    0.3119: real time    0.3141
    --------------------------------------------
      LOOP:  cpu time    4.4745: real time    4.5142

 eigenvalue-minimisations  :     0
 total energy-change (2. order) :-0.5309761E-05  (-0.2098080E-05)
 number of electron     216.0000000 magnetization 
 augmentation part       -0.4738296 magnetization 

 Free energy of the ion-electron system (eV)
  ---------------------------------------------------
  alpha Z        PSCENC =        47.94900195
  Ewald energy   TEWEN  =     45899.51553853
  -Hartree energ DENC   =    -52887.49775471
  -exchange      EXHF   =         0.00000000
  -V(xc)+E(xc)   XCENC  =       446.19523913
  PAW double counting   =    126449.71776978  -126172.79877197
  entropy T*S    EENTRO =        -0.00000000
  eigenvalues    EBANDS =     -2614.27529943
  atomic energy  EATOM  =      8364.30921166
  ---------------------------------------------------
  free energy    TOTEN  =      -466.88506505 eV

  energy without entropy =     -466.88506505  energy(sigma->0) =     -466.88506505


--------------------------------------------------------------------------------------------------------




--------------------------------------- Iteration      1(  21)  ---------------------------------------


    POTLOK:  cpu time    0.3778: real time    0.3805
    SETDIJ:  cpu time    0.0029: real time    0.0029
    TRIAL :  cpu time    2.6740: real time    2.6985
    CORREC:  cpu time    1.0720: real time    1.0808
    CHARGE:  cpu time    0.3097: real time    0.3119
    --------------------------------------------
      LOOP:  cpu time    4.4509: real time    4.5336

 eigenvalue-minimisations  :     0
 total energy-change (2. order) :-0.1929162E-05  (-0.8587091E-06)
 number of electron     216.0000000 magnetization 
 augmentation part       -0.4738386 magnetization 

 Free energy of the ion-electron system (eV)
  ---------------------------------------------------
  alpha Z        PSCENC =        47.94900195
  Ewald energy   TEWEN  =     45899.51553853
  -Hartree energ DENC   =    -52887.52002846
  -exchange      EXHF   =         0.00000000
  -V(xc)+E(xc)   XCENC  =       446.19629777
  PAW double counting   =    126450.91198406  -126173.99313961
  entropy T*S    EENTRO =        -0.00000000
  eigenvalues    EBANDS =     -2614.25393289
  atomic energy  EATOM  =      8364.30921166
  ---------------------------------------------------
  free energy    TOTEN  =      -466.88506698 eV

  energy without entropy =     -466.88506698  energy(sigma->0) =     -466.88506698


--------------------------------------------------------------------------------------------------------




--------------------------------------- Iteration      1(  22)  ---------------------------------------


    POTLOK:  cpu time    0.3743: real time    0.3767
    SETDIJ:  cpu time    0.0029: real time    0.0029
    TRIAL :  cpu time    2.6854: real time    2.7097
    CORREC:  cpu time    1.0701: real time    1.0785
    EDDIAG:  cpu time    0.5948: real time    0.6004
    CHARGE:  cpu time    0.3109: real time    0.3131
    --------------------------------------------
      LOOP:  cpu time    5.0728: real time    5.1179

 eigenvalue-minimisations  :     0
 total energy-change (2. order) :-0.8390925E-06  (-0.4027479E-06)
 number of electron     216.0000000 magnetization 
 augmentation part       -0.4738297 magnetization 

 Free energy of the ion-electron system (eV)
  ---------------------------------------------------
  alpha Z        PSCENC =        47.94900195
  Ewald energy   TEWEN  =     45899.51553853
  -Hartree energ DENC   =    -52887.50360858
  -exchange      EXHF   =         0.00000000
  -V(xc)+E(xc)   XCENC  =       446.19550891
  PAW double counting   =    126449.74316775  -126172.82426311
  entropy T*S    EENTRO =        -0.00000000
  eigenvalues    EBANDS =     -2614.26962494
  atomic energy  EATOM  =      8364.30921166
  ---------------------------------------------------
  free energy    TOTEN  =      -466.88506782 eV

  energy without entropy =     -466.88506782  energy(sigma->0) =     -466.88506782


--------------------------------------------------------------------------------------------------------


  average scaling for gradient   0.9568


 average (electrostatic) potential at core
  the test charge radii are     0.5770  0.5955
  (the norm of the test charge is              1.0000)
       1 -85.7775       2 -85.7753       3 -85.7803       4 -85.7837       5 -85.7729
       6 -85.7713       7 -85.7788       8 -85.7734       9 -85.7741      10 -85.7780
      11 -85.7720      12 -85.7735      13 -85.7774      14 -85.7738      15 -85.7710
      16 -85.7718      17 -85.7743      18 -85.7758      19 -85.7771      20 -85.7744
      21 -85.7703      22 -85.7702      23 -85.7851      24 -85.7846      25 -85.7714
      26 -85.7728      27 -85.7747      28 -85.7789      29 -85.7712      30 -85.7715
      31 -85.7821      32 -85.7788      33 -85.7741      34 -85.7725      35 -85.7721
      36 -85.7734      37 -85.7751      38 -85.7766      39 -85.7769      40 -85.7761
      41 -85.7763      42 -85.7777      43 -85.7742      44 -85.7773      45 -85.7715
      46 -85.7715      47 -85.7733      48 -85.7721      49 -85.7761      50 -85.7747
      51 -89.7187      52-120.3838      53-120.3830
 
 
 
 E-fermi :  -4.1590     XC(G=0):  -1.9040     alpha+bet : -1.6890

 Fermi energy:        -4.1589605546

 k-point     1 :       0.0000    0.0000    0.0000
  band No.  band energies     occupation 
      1     -27.6589      2.00000
      2     -26.6364      2.00000
      3     -22.3426      2.00000
      4     -21.4035      2.00000
      5     -21.4020      2.00000
      6     -21.3996      2.00000
      7     -21.3989      2.00000
      8     -21.3973      2.00000
      9     -21.3972      2.00000
     10     -19.5524      2.00000
     11     -19.5523      2.00000
     12     -19.5518      2.00000
     13     -19.5513      2.00000
     14     -19.5511      2.00000
     15     -19.5508      2.00000
     16     -18.6533      2.00000
     17     -18.6529      2.00000
     18     -18.6527      2.00000
     19     -18.6526      2.00000
     20     -18.6524      2.00000
     21     -18.6519      2.00000
     22     -16.4913      2.00000
     23     -16.4911      2.00000
     24     -16.4907      2.00000
     25     -16.4902      2.00000
     26     -16.4882      2.00000
     27     -16.4881      2.00000
     28     -15.4743      2.00000
     29     -15.4741      2.00000
     30     -15.4735      2.00000
     31     -15.4733      2.00000
     32     -15.4728      2.00000
     33     -15.4727      2.00000
     34     -14.1226      2.00000
     35     -14.1225      2.00000
     36     -14.1221      2.00000
     37     -14.1219      2.00000
     38     -14.1219      2.00000
     39     -14.1211      2.00000
     40     -12.4401      2.00000
     41     -11.7327      2.00000
     42     -11.7326      2.00000
     43     -11.7320      2.00000
     44     -11.7320      2.00000
     45     -11.7314      2.00000
     46     -11.7314      2.00000
     47     -11.6107      2.00000
     48     -11.6106      2.00000
     49     -11.6097      2.00000
     50     -11.6096      2.00000
     51     -11.6082      2.00000
     52     -11.6079      2.00000
     53     -11.2148      2.00000
     54     -11.1319      2.00000
     55     -11.1307      2.00000
     56     -10.3657      2.00000
     57     -10.2255      2.00000
     58     -10.2254      2.00000
     59     -10.2245      2.00000
     60     -10.2241      2.00000
     61     -10.2237      2.00000
     62     -10.2237      2.00000
     63      -9.2564      2.00000
     64      -9.2545      2.00000
     65      -9.2498      2.00000
     66      -9.2495      2.00000
     67      -9.2469      2.00000
     68      -9.2465      2.00000
     69      -8.9437      2.00000
     70      -8.9421      2.00000
     71      -8.9419      2.00000
     72      -8.9407      2.00000
     73      -8.9405      2.00000
     74      -8.9404      2.00000
     75      -8.9098      2.00000
     76      -8.9096      2.00000
     77      -8.9095      2.00000
     78      -8.9089      2.00000
     79      -8.9081      2.00000
     80      -8.9074      2.00000
     81      -7.5926      2.00000
     82      -7.5919      2.00000
     83      -7.2828      2.00000
     84      -7.2824      2.00000
     85      -7.2821      2.00000
     86      -7.2817      2.00000
     87      -7.2794      2.00000
     88      -7.2793      2.00000
     89      -7.1264      2.00000
     90      -7.1263      2.00000
     91      -7.1233      2.00000
     92      -7.1223      2.00000
     93      -7.1222      2.00000
     94      -7.1215      2.00000
     95      -6.2328      2.00000
     96      -6.2313      2.00000
     97      -6.2309      2.00000
     98      -6.2287      2.00000
     99      -6.2284      2.00000
    100      -6.2278      2.00000
    101      -5.7896      2.00000
    102      -5.7874      2.00000
    103      -4.2533      2.00000
    104      -4.2527      2.00000
    105      -4.2516      2.00000
    106      -4.2510      2.00000
    107      -4.2478      2.00000
    108      -4.2476      2.00000
    109      -1.4393      0.00000
    110      -1.4391      0.00000
    111      -1.4361      0.00000
    112      -1.4356      0.00000
    113      -1.4349      0.00000
    114      -1.4346      0.00000
    115       0.1693      0.00000
    116       0.4335      0.00000
    117       0.4345      0.00000
    118       0.4355      0.00000
    119       0.4373      0.00000
    120       0.4377      0.00000
    121       0.4405      0.00000
    122       0.7469      0.00000
    123       0.9410      0.00000
    124       0.9976      0.00000
    125       1.3692      0.00000
    126       1.4546      0.00000
    127       1.6254      0.00000
    128       1.6977      0.00000
    129       1.7112      0.00000
    130       1.7209      0.00000
    131       1.7468      0.00000
    132       1.9732      0.00000
    133       2.1473      0.00000
    134       2.1654      0.00000
    135       2.1681      0.00000
    136       2.1713      0.00000
    137       2.1777      0.00000
    138       2.1799      0.00000
    139       2.2598      0.00000
    140       2.8451      0.00000


--------------------------------------------------------------------------------------------------------


 soft charge-density along one line, spin component           1
         0         1         2         3         4         5         6         7         8         9
 total charge-density along one line
 
 pseudopotential strength for first ion, spin component:           1
 12.722  21.410  -0.000   0.000   0.000  -0.000   0.000   0.000
 21.410  36.029  -0.000   0.000   0.000  -0.000   0.000   0.000
 -0.000  -0.000  -3.100  -0.000   0.000  -5.556  -0.000   0.000
  0.000   0.000  -0.000  -3.101  -0.000  -0.000  -5.558  -0.000
  0.000   0.000   0.000  -0.000  -3.100   0.000  -0.000  -5.556
 -0.000  -0.000  -5.556  -0.000   0.000  -9.936  -0.000   0.000
  0.000   0.000  -0.000  -5.558  -0.000  -0.000  -9.939  -0.000
  0.000   0.000   0.000  -0.000  -5.556   0.000  -0.000  -9.936
 total augmentation occupancy for first ion, spin component:           1
  8.451  -3.031  -0.000  -0.002  -0.000   0.000   0.001  -0.000
 -3.031   1.122   0.000   0.001  -0.000  -0.000  -0.000   0.000
 -0.000   0.000   7.732  -0.008   0.000  -2.679   0.003  -0.000
 -0.002   0.001  -0.008   3.531  -0.000   0.003  -0.988   0.000
 -0.000  -0.000   0.000  -0.000   7.732  -0.000   0.000  -2.678
  0.000  -0.000  -2.679   0.003  -0.000   0.941  -0.001   0.000
  0.001  -0.000   0.003  -0.988   0.000  -0.001   0.282  -0.000
 -0.000   0.000  -0.000   0.000  -2.678   0.000  -0.000   0.941


------------------------ aborting loop because EDIFF is reached ----------------------------------------


    FORLOC:  cpu time    0.0680: real time    0.0686
    FORNL :  cpu time    1.1131: real time    1.1263
    FORCOR:  cpu time    0.3962: real time    0.3989
    OFIELD:  cpu time    0.0018: real time    0.0018

 ---------------------------------------------------------------------------------------------

         DFTD3 V3.0 Rev 1        
 IVDW         = 11
 DF revpbe    
 parameters
 VDW_S6       =    1.0000
 VDW_S8       =    1.0100
 VDW_SR       =    0.9230
 rs18     =    1.0000
 alpha6   =   14.0000
 alpha8   =   16.0000
 k1-k3    =   16.0000    1.3333   -4.0000
 VDW_RADIUS   =   50.2022 A
 VDW_CNRADIUS =   21.1671 A
 Edisp (eV)   -3.73952

 E6    (eV) :    -2.6659
 E8    (eV) :    -1.0736
 % E8        : 28.71
    FORVDW:  cpu time    0.1588: real time    0.1604

 VOLUME and BASIS-vectors are now :
 -----------------------------------------------------------------------------
  energy-cutoff  :     1000.00
  volume of cell :     3288.85
      direct lattice vectors                 reciprocal lattice vectors
    12.325000000  0.000000000  0.000000000     0.081135903  0.046843835  0.000000000
    -6.162500000 10.673763102  0.000000000     0.000000000  0.093687670  0.000000000
     0.000000000  0.000000000 25.000000000     0.000000000  0.000000000  0.040000000

  length of vectors
    12.325000000 12.325000000 25.000000000     0.093687670  0.093687670  0.040000000


 FORCES acting on ions:
    Electron-Ion                     Ewald-Force                    Non-Local-Force
 -----------------------------------------------------------------------------------------------
   0.672E+01 0.586E+01 0.254E+02   -.673E+01 -.586E+01 -.254E+02   0.107E-01 -.208E-02 0.912E-02
   0.103E+02 0.502E+01 0.304E+02   -.103E+02 -.502E+01 -.304E+02   0.135E-01 -.714E-02 -.677E-02
   0.468E+01 0.123E+02 0.349E+02   -.467E+01 -.123E+02 -.349E+02   -.146E-02 0.258E-01 0.131E-01
   0.663E+01 0.963E+01 0.474E+02   -.664E+01 -.964E+01 -.474E+02   0.248E-01 0.720E-02 0.178E-01
   0.722E+01 0.170E+01 0.255E+02   -.722E+01 -.170E+01 -.255E+02   0.368E-02 -.111E-01 -.260E-02
   0.748E+01 -.138E+01 0.259E+02   -.747E+01 0.138E+01 -.259E+02   -.957E-02 0.450E-03 -.117E-01
   0.121E+02 0.455E+01 0.431E+02   -.121E+02 -.453E+01 -.431E+02   0.298E-01 -.312E-01 -.799E-03
   0.117E+02 -.413E+01 0.448E+02   -.117E+02 0.415E+01 -.448E+02   0.732E-02 -.166E-01 -.224E-01
   -.542E+01 0.111E+02 0.351E+02   0.544E+01 -.111E+02 -.351E+02   -.110E-01 -.525E-02 -.152E-01
   -.882E+01 0.744E+01 0.459E+02   0.885E+01 -.746E+01 -.459E+02   -.469E-01 0.287E-01 0.790E-04
   0.184E+01 -.172E+01 0.220E+02   -.183E+01 0.172E+01 -.220E+02   -.822E-04 -.928E-03 -.471E-02
   0.152E+01 -.126E+01 0.209E+02   -.152E+01 0.126E+01 -.209E+02   -.118E-01 0.524E-02 0.241E-02
   0.468E+01 -.103E+02 0.490E+02   -.471E+01 0.103E+02 -.490E+02   0.489E-01 -.209E-01 -.520E-02
   0.244E+01 -.123E+02 0.357E+02   -.246E+01 0.123E+02 -.357E+02   0.150E-01 -.127E-03 -.243E-01
   -.646E+01 0.402E+01 0.249E+02   0.646E+01 -.402E+01 -.249E+02   0.934E-02 -.452E-02 -.245E-02
   -.917E+01 0.267E+01 0.275E+02   0.917E+01 -.267E+01 -.275E+02   -.522E-02 0.985E-02 -.166E-01
   -.107E+01 -.428E+00 0.202E+02   0.108E+01 0.425E+00 -.202E+02   -.502E-02 0.180E-02 0.112E-02
   0.537E+00 0.381E+01 0.212E+02   -.533E+00 -.381E+01 -.212E+02   -.645E-02 0.361E-02 0.914E-02
   -.182E+01 -.110E+02 0.297E+02   0.181E+01 0.110E+02 -.297E+02   0.146E-01 -.678E-02 0.229E-02
   -.879E+00 -.580E+01 0.229E+02   0.871E+00 0.581E+01 -.229E+02   0.457E-02 -.473E-02 -.178E-02
   0.104E+02 -.457E+01 0.321E+02   -.104E+02 0.457E+01 -.321E+02   0.130E-02 -.649E-02 -.338E-01
   0.660E+01 -.559E+01 0.272E+02   -.660E+01 0.559E+01 -.272E+02   -.817E-02 0.786E-02 -.140E-01
   -.227E+01 0.455E+01 0.553E+02   0.228E+01 -.456E+01 -.553E+02   -.220E-01 0.209E-01 0.405E-01
   -.332E+01 -.716E+01 0.537E+02   0.331E+01 0.717E+01 -.537E+02   0.193E-01 -.290E-01 0.267E-01
   0.329E+01 -.138E+01 0.221E+02   -.328E+01 0.138E+01 -.221E+02   -.144E-02 -.600E-03 -.879E-02
   0.675E+00 0.292E+01 0.222E+02   -.670E+00 -.292E+01 -.222E+02   -.996E-02 0.572E-02 0.728E-03
   -.126E+02 0.166E+01 0.375E+02   0.126E+02 -.167E+01 -.375E+02   -.410E-03 0.163E-01 -.120E-01
   -.119E+02 -.485E+01 0.353E+02   0.119E+02 0.484E+01 -.353E+02   -.226E-01 0.164E-01 0.558E-02
   0.398E+01 -.802E+01 0.282E+02   -.398E+01 0.802E+01 -.281E+02   0.104E-01 0.244E-02 -.175E-01
   0.362E+00 -.320E+01 0.232E+02   -.367E+00 0.320E+01 -.232E+02   -.196E-02 0.411E-02 -.816E-02
   -.913E+01 -.967E+01 0.410E+02   0.915E+01 0.968E+01 -.410E+02   -.244E-01 -.152E-01 0.105E-01
   -.577E+01 -.106E+02 0.310E+02   0.578E+01 0.106E+02 -.310E+02   0.606E-03 -.122E-01 0.113E-01
   0.414E+00 0.165E+01 0.208E+02   -.419E+00 -.165E+01 -.208E+02   0.950E-02 -.675E-02 0.443E-02
   0.111E+01 0.164E+01 0.219E+02   -.112E+01 -.164E+01 -.219E+02   -.505E-03 0.211E-02 -.518E-02
   -.454E+01 0.642E+00 0.233E+02   0.454E+01 -.646E+00 -.233E+02   0.529E-02 -.505E-03 -.160E-03
   -.397E+01 -.163E+01 0.229E+02   0.397E+01 0.162E+01 -.229E+02   -.883E-02 0.559E-02 -.585E-03
   -.787E+01 -.409E+01 0.257E+02   0.789E+01 0.408E+01 -.257E+02   -.964E-02 0.273E-02 0.240E-02
   -.478E+01 -.385E+01 0.226E+02   0.479E+01 0.385E+01 -.226E+02   -.872E-02 0.201E-02 0.101E-01
   -.443E+01 -.574E+01 0.238E+02   0.443E+01 0.575E+01 -.238E+02   -.753E-02 -.313E-02 0.777E-02
   -.664E+00 -.142E+01 0.212E+02   0.664E+00 0.142E+01 -.212E+02   0.274E-02 -.117E-02 0.861E-02
   0.166E+01 0.406E+01 0.218E+02   -.166E+01 -.407E+01 -.218E+02   -.482E-02 0.576E-02 0.839E-02
   0.531E+01 0.832E+01 0.265E+02   -.531E+01 -.832E+01 -.265E+02   0.490E-02 0.454E-02 0.132E-01
   0.445E+00 0.703E+01 0.235E+02   -.436E+00 -.704E+01 -.235E+02   -.550E-02 0.569E-02 -.644E-04
   -.696E-01 0.119E+02 0.312E+02   0.841E-01 -.119E+02 -.312E+02   -.187E-01 0.882E-02 0.588E-02
   -.133E+01 0.260E+01 0.231E+02   0.133E+01 -.260E+01 -.231E+02   0.248E-02 -.391E-02 -.505E-02
   -.536E+01 0.670E+01 0.268E+02   0.537E+01 -.670E+01 -.268E+02   -.109E-01 0.156E-02 -.125E-01
   -.104E+01 -.283E+01 0.218E+02   0.104E+01 0.283E+01 -.219E+02   0.112E-01 -.268E-02 0.222E-02
   -.259E+01 0.102E+01 0.211E+02   0.258E+01 -.101E+01 -.211E+02   0.998E-03 0.174E-02 -.745E-02
   0.237E+00 -.177E+01 0.209E+02   -.241E+00 0.177E+01 -.210E+02   0.706E-02 -.416E-02 0.609E-02
   0.279E+01 0.202E+01 0.211E+02   -.279E+01 -.202E+01 -.211E+02   0.480E-02 0.941E-03 0.307E-02
   0.474E-01 -.287E-01 -.364E+03   -.513E-01 0.324E-01 0.364E+03   -.379E-02 0.238E-02 0.107E-02
   -.229E+03 0.156E+03 -.559E+03   0.279E+03 -.190E+03 0.563E+03   -.510E+02 0.347E+02 -.339E+01
   0.229E+03 -.156E+03 -.537E+03   -.279E+03 0.190E+03 0.534E+03   0.510E+02 -.347E+02 0.312E+01
 -----------------------------------------------------------------------------------------------
   -.154E-02 0.103E-01 0.289E+00   0.171E-12 -.142E-12 -.682E-12   0.121E-02 -.101E-01 -.288E+00
 
 
 POSITION                                       TOTAL-FORCE (eV/Angst)
 -----------------------------------------------------------------------------------
     11.98348      0.00342      0.01417         0.002863     -0.000472     -0.000368
     -0.34154      1.42665      0.01100        -0.001492      0.000250     -0.001641
      2.12355      0.00315      0.01249        -0.000364      0.007059     -0.002882
      2.12326      1.42653      0.00641         0.009169      0.001515     -0.001261
     10.75099      2.13819      0.01213         0.000482     -0.004768      0.000787
     -1.57382      3.56123      0.01110        -0.006555      0.005571     -0.000763
      0.89078      2.13854      0.00548         0.006879     -0.013162      0.005169
      0.89099      3.56147      0.00181        -0.011694     -0.000654      0.012674
      4.58864      0.00346      0.01135         0.004474     -0.014745     -0.001747
      4.58894      1.42623      0.00646        -0.018055      0.010430      0.016452
      9.51854      4.27281      0.01369         0.007099     -0.003994      0.000547
     -2.80632      5.69591      0.01434        -0.006359      0.003336      0.001134
      2.12300      4.27302      0.00000         0.018155     -0.003819      0.022044
      2.12335      5.69594      0.00581        -0.001665      0.008094     -0.001102
      7.05344      0.00333      0.01399         0.007963     -0.004276      0.000435
      7.05353      1.42635      0.01368        -0.002544      0.004632     -0.002442
      8.28610      6.40752      0.01601         0.003470     -0.001577     -0.000325
     -4.03885      7.83070      0.01636        -0.001742      0.001168      0.000312
      3.35586      6.40753      0.01007         0.003016     -0.000212     -0.000375
      3.35599      7.83072      0.01320        -0.003404      0.000550     -0.000011
     -0.34146      4.27290      0.00723        -0.000080     -0.001955     -0.003160
     -0.34138      5.69591      0.00946        -0.007960      0.004577     -0.000243
      3.35624      2.13791      0.00222        -0.008719      0.008847      0.023687
      3.35573      3.56155      0.00139         0.009003     -0.012118      0.015559
     -1.57395      6.40758      0.01311         0.006950     -0.004337     -0.000300
     -1.57385      7.83068      0.01438        -0.004623      0.003855      0.000589
      5.82093      2.13784      0.01033         0.015317      0.003476     -0.001121
      5.82114      3.56097      0.01156        -0.004687      0.004908     -0.001363
      0.89092      6.40755      0.00907         0.004305      0.001068     -0.001145
      0.89106      7.83068      0.01235        -0.007297      0.002397      0.000708
      4.58871      4.27293      0.00850        -0.008959     -0.005907     -0.005604
      4.58852      5.69606      0.01149         0.001325      0.001307     -0.001913
      9.51845      0.00337      0.01490         0.004614     -0.004651      0.000549
      9.51855      1.42644      0.01438        -0.004795      0.006338      0.000056
      8.28593      2.13803      0.01453         0.005107     -0.004067      0.001132
      8.28613      3.56115      0.01464        -0.004227      0.001782      0.000585
      7.05356      4.27269      0.01457         0.003470     -0.000963      0.000529
      7.05362      5.69588      0.01553        -0.002336      0.000871      0.000349
      5.82112      6.40755      0.01489        -0.001990      0.001835      0.000647
      5.82102      7.83073      0.01579         0.002467      0.000676      0.000082
      7.05363      8.54227      0.01631        -0.004326      0.000457      0.001596
     -5.27149      9.96549      0.01495        -0.000989     -0.002468     -0.000980
     -2.80638      8.54234      0.01558         0.003412     -0.001766     -0.000293
     -2.80627      9.96553      0.01362        -0.003818      0.000499     -0.002221
     -0.34149      8.54239      0.01378         0.005887     -0.003480      0.000730
     -0.34138      9.96550      0.01354        -0.006088      0.000982     -0.000114
      2.12343      8.54232      0.01336         0.005698     -0.001592      0.001144
      2.12354      9.96544      0.01469        -0.006418      0.004305     -0.001541
      4.58846      8.54235      0.01505         0.003489     -0.002955      0.001280
      4.58853      9.96550      0.01517        -0.003434      0.003238      0.000684
      3.04930      2.68154      4.20448        -0.007535      0.005947     -0.005228
      4.02070      2.02068      4.26890        -0.253816      0.172540     -0.051073
      2.07767      3.34267      4.14503         0.261356     -0.178572     -0.020247
 -----------------------------------------------------------------------------------
    total drift:                               -0.000334      0.000230      0.000797


--------------------------------------------------------------------------------------------------------



  FREE ENERGIE OF THE ION-ELECTRON SYSTEM (eV)
  ---------------------------------------------------
  free  energy   TOTEN  =      -470.62458415 eV

  energy  without entropy=     -470.62458415  energy(sigma->0) =     -470.62458415
 


--------------------------------------------------------------------------------------------------------


    POTLOK:  cpu time    0.3879: real time    0.3906


--------------------------------------------------------------------------------------------------------


     LOOP+:  cpu time  142.1917: real time  143.7048
    4ORBIT:  cpu time    0.0000: real time    0.0000

 total amount of memory used by VASP MPI-rank0   215378. kBytes
=======================================================================

   base      :      30000. kBytes
   nonl-proj :      57634. kBytes
   fftplans  :      45914. kBytes
   grid      :      67588. kBytes
   one-center:         43. kBytes
   wavefun   :      14199. kBytes
 
  
  
 General timing and accounting informations for this job:
 ========================================================
  
                  Total CPU time used (sec):      185.482
                            User time (sec):      172.199
                          System time (sec):       13.283
                         Elapsed time (sec):      188.304
  
                   Maximum memory used (kb):      626288.
                   Average memory used (kb):          N/A
  
                          Minor page faults:        64609
                          Major page faults:           96
                 Voluntary context switches:         3651
