 vasp.6.2.1 16May21 (build Nov 06 2021 14:46:37) complex                        
  
 executed on             LinuxIFC date 2025.03.03  17:33:18
 running on  112 total cores
 distrk:  each k-point on  112 cores,    1 groups
 distr:  one band on NCORE=   4 cores,   28 groups


--------------------------------------------------------------------------------------------------------


 INCAR:
   ALGO = Conjugate
   NCORE = 4
   ISMEAR = 0
   SIGMA = 0.01
   PREC = Accurate
   EDIFF = 1E-6
   ENCUT = 1000
   ISIF = 0
   GGA = RE
   IVDW = 11
   LWAVE = .FALSE.
   LCHARGE = .FALSE.
   SYMPREC = 1E-6

 POTCAR:    PAW_PBE C_h 06Feb2004                 
 POTCAR:    PAW_PBE O_h 06Feb2004                 
 -----------------------------------------------------------------------------
|                                                                             |
|           W    W    AA    RRRRR   N    N  II  N    N   GGGG   !!!           |
|           W    W   A  A   R    R  NN   N  II  NN   N  G    G  !!!           |
|           W    W  A    A  R    R  N N  N  II  N N  N  G       !!!           |
|           W WW W  AAAAAA  RRRRR   N  N N  II  N  N N  G  GGG   !            |
|           WW  WW  A    A  R   R   N   NN  II  N   NN  G    G                |
|           W    W  A    A  R    R  N    N  II  N    N   GGGG   !!!           |
|                                                                             |
|     For optimal performance we recommend to set                             |
|       NCORE = 2 up to number-of-cores-per-socket                            |
|     NCORE specifies how many cores store one orbital (NPAR=cpu/NCORE).      |
|     This setting can greatly improve the performance of VASP for DFT.       |
|     The default, NCORE=1 might be grossly inefficient on modern             |
|     multi-core architectures or massively parallel machines. Do your        |
|     own testing! More info at https://www.vasp.at/wiki/index.php/NCORE      |
|     Unfortunately you need to use the default for GW and RPA                |
|     calculations (for HF NCORE is supported but not extensively tested      |
|     yet).                                                                   |
|                                                                             |
 -----------------------------------------------------------------------------

 POTCAR:    PAW_PBE C_h 06Feb2004                 
   VRHFIN =C: s2p2                                                                                  
   LEXCH  = PE                                                                                      
   EATOM  =   147.1560 eV,   10.8157 Ry                                                             
                                                                                                    
   TITEL  = PAW_PBE C_h 06Feb2004                                                                   
   LULTRA =        F    use ultrasoft PP ?                                                          
   IUNSCR =        1    unscreen: 0-lin 1-nonlin 2-no                                               
   RPACOR =    0.800    partial core radius                                                         
   POMASS =   12.011; ZVAL   =    4.000    mass and valenz                                          
   RCORE  =    1.100    outmost cutoff radius                                                       
   RWIGS  =    1.630; RWIGS  =    0.863    wigner-seitz radius (au A)                               
   ENMAX  =  700.000; ENMIN  =  500.000 eV                                                          
   ICORE  =        2    local potential                                                             
   LCOR   =        T    correct aug charges                                                         
   LPAW   =        T    paw PP                                                                      
   EAUG   =  946.768                                                                                
   DEXC   =    0.000                                                                                
   RMAX   =    1.128    core radius for proj-oper                                                   
   RAUG   =    1.300    factor for augmentation sphere                                              
   RDEP   =    1.162    radius for radial grids                                                     
   RDEPT  =    1.088    core radius for aug-charge                                                  
                                                                                                    
   Atomic configuration                                                                             
    4 entries                                                                                       
     n  l   j            E        occ.                                                              
     1  0  0.50      -273.3789   2.0000                                                             
     2  0  0.50       -13.7508   2.0000                                                             
     2  1  0.50        -5.2854   2.0000                                                             
     3  2  1.50        -5.4423   0.0000                                                             
   Description                                                                                      
     l       E           TYP  RCUT    TYP  RCUT                                                     
     0    -13.7508458     23  1.100                                                                 
     0     -8.2022199     23  1.100                                                                 
     1     -5.2854383     23  1.100                                                                 
     1      1.1560700     23  1.100                                                                 
     2     -5.4423304      7  1.100                                                                 
  local pseudopotential read in
  partial core-charges read in
  partial kinetic energy density read in
  atomic valenz-charges read in
  non local Contribution for L=           0  read in
    real space projection operators read in
  non local Contribution for L=           0  read in
    real space projection operators read in
  non local Contribution for L=           1  read in
    real space projection operators read in
  non local Contribution for L=           1  read in
    real space projection operators read in
    PAW grid and wavefunctions read in
 
   number of l-projection  operators is LMAX  =           4
   number of lm-projection operators is LMMAX =           8
 
 POTCAR:    PAW_PBE O_h 06Feb2004                 
   VRHFIN =O: s2p4                                                                                  
   LEXCH  = PE                                                                                      
   EATOM  =   432.3788 eV,   31.7789 Ry                                                             
                                                                                                    
   TITEL  = PAW_PBE O_h 06Feb2004                                                                   
   LULTRA =        F    use ultrasoft PP ?                                                          
   IUNSCR =        1    unscreen: 0-lin 1-nonlin 2-no                                               
   RPACOR =    0.800    partial core radius                                                         
   POMASS =   16.000; ZVAL   =    6.000    mass and valenz                                          
   RCORE  =    1.100    outmost cutoff radius                                                       
   RWIGS  =    1.400; RWIGS  =    0.741    wigner-seitz radius (au A)                               
   ENMAX  =  700.000; ENMIN  =  500.000 eV                                                          
   ICORE  =        2    local potential                                                             
   LCOR   =        T    correct aug charges                                                         
   LPAW   =        T    paw PP                                                                      
   EAUG   =  888.804                                                                                
   DEXC   =    0.000                                                                                
   RMAX   =    1.128    core radius for proj-oper                                                   
   RAUG   =    1.300    factor for augmentation sphere                                              
   RDEP   =    1.125    radius for radial grids                                                     
   RDEPT  =    1.088    core radius for aug-charge                                                  
                                                                                                    
   Atomic configuration                                                                             
    4 entries                                                                                       
     n  l   j            E        occ.                                                              
     1  0  0.50      -514.6923   2.0000                                                             
     2  0  0.50       -23.9615   2.0000                                                             
     2  1  0.50        -9.0305   4.0000                                                             
     3  2  1.50        -9.5241   0.0000                                                             
   Description                                                                                      
     l       E           TYP  RCUT    TYP  RCUT                                                     
     0    -23.9615319     23  1.100                                                                 
     0    -25.3221145     23  1.100                                                                 
     1     -9.0304911     23  1.100                                                                 
     1     -5.4802209     23  1.100                                                                 
     2     -9.5240782      7  1.100                                                                 
  local pseudopotential read in
  partial core-charges read in
  partial kinetic energy density read in
  atomic valenz-charges read in
  non local Contribution for L=           0  read in
    real space projection operators read in
  non local Contribution for L=           0  read in
    real space projection operators read in
  non local Contribution for L=           1  read in
    real space projection operators read in
  non local Contribution for L=           1  read in
    real space projection operators read in
    PAW grid and wavefunctions read in
 
   number of l-projection  operators is LMAX  =           4
   number of lm-projection operators is LMMAX =           8
 
 -----------------------------------------------------------------------------
|                                                                             |
|               ----> ADVICE to this user running VASP <----                  |
|                                                                             |
|     You have a (more or less) 'large supercell' and for larger cells it     |
|     might be more efficient to use real-space projection operators.         |
|     Therefore, try LREAL= Auto in the INCAR file.                           |
|     Mind: For very accurate calculation, you might also keep the            |
|     reciprocal projection scheme (i.e. LREAL=.FALSE.).                      |
|                                                                             |
 -----------------------------------------------------------------------------

 -----------------------------------------------------------------------------
|                                                                             |
|               ----> ADVICE to this user running VASP <----                  |
|                                                                             |
|     You enforced a specific xc type in the INCAR file but a different       |
|     type was found in the POTCAR file.                                      |
|     I HOPE YOU KNOW WHAT YOU ARE DOING!                                     |
|                                                                             |
 -----------------------------------------------------------------------------

  PAW_PBE C_h 06Feb2004                 :
 energy of atom  1       EATOM= -147.1560
 kinetic energy error for atom=    0.0031 (will be added to EATOM!!)
  PAW_PBE O_h 06Feb2004                 :
 energy of atom  2       EATOM= -432.3788
 kinetic energy error for atom=    0.0171 (will be added to EATOM!!)
 
 
 POSCAR:  C  O
  positions in cartesian coordinates
  No initial velocities read in
 exchange correlation table for  LEXCH =       40
   RHO(1)=    0.500       N(1)  =     2000
   RHO(2)=  100.500       N(2)  =     4000
 


--------------------------------------------------------------------------------------------------------


 ion  position               nearest neighbor table
   1  0.972  0.000  0.001-  50 1.42   2 1.42  42 1.42
   2  0.039  0.134  0.001-   5 1.42   7 1.42   1 1.42
   3  0.172  0.000  0.001-  42 1.42  44 1.42   4 1.42
   4  0.239  0.134  0.000-   7 1.42   3 1.42  23 1.42
   5  0.972  0.200  0.001-   6 1.42   2 1.42  34 1.42
   6  0.039  0.334  0.001-   5 1.42  21 1.42  11 1.42
   7  0.172  0.200  0.000-   8 1.42   2 1.42   4 1.42
   8  0.239  0.334  0.000-  13 1.42   7 1.42  21 1.42
   9  0.372  0.000  0.001-  10 1.42  44 1.42  46 1.42
  10  0.439  0.134  0.000-  27 1.42   9 1.42  23 1.42
  11  0.972  0.400  0.001-  12 1.42  36 1.42   6 1.42
  12  0.039  0.534  0.001-  25 1.42  11 1.42  17 1.42
  13  0.372  0.400  0.000-   8 1.42  14 1.42  24 1.42
  14  0.439  0.534  0.000-  13 1.42  29 1.42  19 1.42
  15  0.572  0.000  0.001-  46 1.42  16 1.42  48 1.42
  16  0.639  0.134  0.001-  15 1.42  35 1.42  27 1.42
  17  0.972  0.600  0.001-  38 1.42  18 1.42  12 1.42
  18  0.039  0.734  0.001-  43 1.42  41 1.42  17 1.42
  19  0.572  0.600  0.001-  14 1.42  20 1.42  32 1.42
  20  0.639  0.734  0.001-  49 1.42  19 1.42  47 1.42
  21  0.172  0.400  0.000-  22 1.42   8 1.42   6 1.42
  22  0.239  0.534  0.000-  21 1.42  29 1.42  25 1.42
  23  0.372  0.200  0.000-  10 1.42   4 1.42  24 1.42
  24  0.439  0.334  0.000-  13 1.42  31 1.42  23 1.42
  25  0.172  0.600  0.001-  26 1.42  12 1.42  22 1.42
  26  0.239  0.734  0.001-  25 1.42  45 1.42  43 1.42
  27  0.572  0.200  0.001-  10 1.42  28 1.42  16 1.42
  28  0.639  0.334  0.001-  27 1.42  37 1.42  31 1.42
  29  0.372  0.600  0.000-  22 1.42  14 1.42  30 1.42
  30  0.439  0.734  0.001-  47 1.42  29 1.42  45 1.42
  31  0.572  0.400  0.000-  32 1.42  28 1.42  24 1.42
  32  0.639  0.534  0.001-  31 1.42  39 1.42  19 1.42
  33  0.772  0.000  0.001-  34 1.42  48 1.42  50 1.42
  34  0.839  0.134  0.001-  33 1.42   5 1.42  35 1.42
  35  0.772  0.200  0.001-  36 1.42  16 1.42  34 1.42
  36  0.839  0.334  0.001-  35 1.42  11 1.42  37 1.42
  37  0.772  0.400  0.001-  28 1.42  38 1.42  36 1.42
  38  0.839  0.534  0.001-  17 1.42  37 1.42  39 1.42
  39  0.772  0.600  0.001-  40 1.42  38 1.42  32 1.42
  40  0.839  0.734  0.001-  39 1.42  49 1.42  41 1.42
  41  0.972  0.800  0.001-  18 1.42  42 1.42  40 1.42
  42  0.039  0.934  0.001-   3 1.42  41 1.42   1 1.42
  43  0.172  0.800  0.001-  18 1.42  44 1.42  26 1.42
  44  0.239  0.934  0.001-   9 1.42  43 1.42   3 1.42
  45  0.372  0.800  0.001-  26 1.42  46 1.42  30 1.42
  46  0.439  0.934  0.001-  15 1.42  45 1.42   9 1.42
  47  0.572  0.800  0.001-  30 1.42  48 1.42  20 1.42
  48  0.639  0.934  0.001-  47 1.42  33 1.42  15 1.42
  49  0.772  0.800  0.001-  50 1.42  20 1.42  40 1.42
  50  0.839  0.934  0.001-  49 1.42   1 1.42  33 1.42
  51  0.373  0.251  0.223-  52 1.18  53 1.18
  52  0.421  0.189  0.226-  51 1.18
  53  0.325  0.313  0.220-  51 1.18
 
  LATTYP: Found a hexagonal cell.
 ALAT       =    12.3250000000
 C/A-ratio  =     1.6227180527
  
  Lattice vectors:
  
 A1 = (  12.3250000000,   0.0000000000,   0.0000000000)
 A2 = (  -6.1625000000,  10.6737631016,   0.0000000000)
 A3 = (   0.0000000000,   0.0000000000,  20.0000000000)


Analysis of symmetry for initial positions (statically):
=====================================================================
 Subroutine PRICEL returns:
 Original cell was already a primitive cell.
 

 Routine SETGRP: Setting up the symmetry group for a 
 hexagonal supercell.


 Subroutine GETGRP returns: Found  1 space group operations
 (whereof  1 operations were pure point group operations)
 out of a pool of 24 trial point group operations.


The static configuration has the point symmetry C_1 .


Analysis of symmetry for dynamics (positions and initial velocities):
=====================================================================
 Subroutine PRICEL returns:
 Original cell was already a primitive cell.
 

 Routine SETGRP: Setting up the symmetry group for a 
 hexagonal supercell.


 Subroutine GETGRP returns: Found  1 space group operations
 (whereof  1 operations were pure point group operations)
 out of a pool of 24 trial point group operations.


The dynamic configuration has the point symmetry C_1 .


 Subroutine INISYM returns: Found  1 space group operations
 (whereof  1 operations are pure point group operations),
 and found     1 'primitive' translations


----------------------------------------------------------------------------------------

                                     Primitive cell                                     

  volume of cell :    2631.0826

  direct lattice vectors                    reciprocal lattice vectors
    12.325000000  0.000000000  0.000000000     0.081135903  0.046843835  0.000000000
    -6.162500000 10.673763102  0.000000000     0.000000000  0.093687670  0.000000000
     0.000000000  0.000000000 20.000000000     0.000000000  0.000000000  0.050000000

  length of vectors
    12.325000000 12.325000000 20.000000000     0.093687670  0.093687670  0.050000000

  position of ions in fractional coordinates (direct lattice)
     0.972450841  0.000320818  0.000708389
     0.039118382  0.133659505  0.000550216
     0.172443627  0.000295449  0.000624535
     0.239096278  0.133647917  0.000320585
     0.972452058  0.200322012  0.000606523
     0.039128360  0.333643771  0.000555187
     0.172451764  0.200354552  0.000273959
     0.239124359  0.333665720  0.000090325
     0.372465565  0.000324403  0.000567391
     0.439137473  0.133619939  0.000322923
     0.972449824  0.400309362  0.000684513
     0.039124981  0.533636789  0.000716763
     0.372416176  0.400329481  0.000000000
     0.439099602  0.533638981  0.000290518
     0.572443676  0.000312125  0.000699475
     0.639110207  0.133631751  0.000684093
     0.972452703  0.600305653  0.000800361
     0.039124495  0.733640359  0.000818141
     0.572433471  0.600306242  0.000503618
     0.639111888  0.733641879  0.000659881
     0.172454630  0.400318228  0.000361306
     0.239120185  0.533636548  0.000473136
     0.372459750  0.200295993  0.000111246
     0.439107096  0.333673419  0.000069702
     0.172452155  0.600311506  0.000655425
     0.239123371  0.733638574  0.000718912
     0.572431082  0.200289171  0.000516621
     0.639112773  0.333618630  0.000577970
     0.372439808  0.600308022  0.000453556
     0.439116090  0.733637858  0.000617737
     0.572469358  0.400320504  0.000424897
     0.639119408  0.533650873  0.000574513
     0.772445723  0.000315427  0.000745201
     0.839116277  0.133640203  0.000719132
     0.772440513  0.200307432  0.000726291
     0.839120241  0.333635728  0.000731834
     0.772446320  0.400298367  0.000728722
     0.839118980  0.533633964  0.000776376
     0.772456143  0.600308173  0.000744639
     0.839115033  0.733643180  0.000789390
     0.972455313  0.800305582  0.000815291
     0.039114714  0.933643289  0.000747563
     0.172457971  0.800312211  0.000779216
     0.239134551  0.933647193  0.000681063
     0.372451396  0.800316674  0.000689249
     0.439124489  0.933644769  0.000676788
     0.572441101  0.800310054  0.000668168
     0.639115067  0.933638985  0.000734556
     0.772445098  0.800313187  0.000752577
     0.839116614  0.933644338  0.000758538
     0.373021009  0.251226878  0.222724679
     0.420879805  0.189313152  0.225945772
     0.325156981  0.313167186  0.219751936

  ion indices of the primitive-cell ions
   primitive index   ion index
                 1           1
                 2           2
                 3           3
                 4           4
                 5           5
                 6           6
                 7           7
                 8           8
                 9           9
                10          10
                11          11
                12          12
                13          13
                14          14
                15          15
                16          16
                17          17
                18          18
                19          19
                20          20
                21          21
                22          22
                23          23
                24          24
                25          25
                26          26
                27          27
                28          28
                29          29
                30          30
                31          31
                32          32
                33          33
                34          34
                35          35
                36          36
                37          37
                38          38
                39          39
                40          40
                41          41
                42          42
                43          43
                44          44
                45          45
                46          46
                47          47
                48          48
                49          49
                50          50
                51          51
                52          52
                53          53

----------------------------------------------------------------------------------------

 
 
 KPOINTS: auto                                    

Automatic generation of k-mesh.
 Grid dimensions read from file:
 generate k-points for:    1    1    1

 Generating k-lattice:

  Cartesian coordinates                     Fractional coordinates (reciprocal lattice)
     0.081135903  0.046843835  0.000000000     1.000000000 -0.000000000  0.000000000
     0.000000000  0.093687670  0.000000000     0.000000000  1.000000000  0.000000000
     0.000000000  0.000000000  0.050000000     0.000000000  0.000000000  1.000000000

  Length of vectors
     0.093687670  0.093687670  0.050000000

  Shift w.r.t. Gamma in fractional coordinates (k-lattice)
     0.000000000  0.000000000  0.000000000

 
 Subroutine IBZKPT returns following result:
 ===========================================
 
 Found      1 irreducible k-points:
 
 Following reciprocal coordinates:
            Coordinates               Weight
  0.000000  0.000000  0.000000      1.000000
 
 Following cartesian coordinates:
            Coordinates               Weight
  0.000000  0.000000  0.000000      1.000000
 


--------------------------------------------------------------------------------------------------------




 Dimension of arrays:
   k-points           NKPTS =      1   k-points in BZ     NKDIM =      1   number of bands    NBANDS=    140
   number of dos      NEDOS =    301   number of ions     NIONS =     53
   non local maximal  LDIM  =      4   non local SUM 2l+1 LMDIM =      8
   total plane-waves  NPLWV = ******
   max r-space proj   IRMAX =      1   max aug-charges    IRDMAX=   9736
   dimension x,y,z NGX =   128 NGY =  128 NGZ =  210
   dimension x,y,z NGXF=   256 NGYF=  256 NGZF=  420
   support grid    NGXF=   256 NGYF=  256 NGZF=  420
   ions per type =              51   2
   NGX,Y,Z   is equivalent  to a cutoff of  17.27, 17.27, 17.46 a.u.
   NGXF,Y,Z  is equivalent  to a cutoff of  34.53, 34.53, 34.91 a.u.

 SYSTEM =  unknown system                          
 POSCAR =   C  O                                   

 Startparameter for this run:
   NWRITE =      2    write-flag & timer
   PREC   = accura    normal or accurate (medium, high low for compatibility)
   ISTART =      0    job   : 0-new  1-cont  2-samecut
   ICHARG =      2    charge: 1-file 2-atom 10-const
   ISPIN  =      1    spin polarized calculation?
   LNONCOLLINEAR =      F non collinear calculations
   LSORBIT =      F    spin-orbit coupling
   INIWAV =      1    electr: 0-lowe 1-rand  2-diag
   LASPH  =      F    aspherical Exc in radial PAW
 Electronic Relaxation 1
   ENCUT  = 1000.0 eV  73.50 Ry    8.57 a.u.  31.78 31.78 51.57*2*pi/ulx,y,z
   ENINI  = 1000.0     initial cutoff
   ENAUG  =  946.8 eV  augmentation charge cutoff
   NELM   =     60;   NELMIN=  2; NELMDL= -5     # of ELM steps 
   EDIFF  = 0.1E-05   stopping-criterion for ELM
   LREAL  =      F    real-space projection
   NLSPLINE    = F    spline interpolate recip. space projectors
   LCOMPAT=      F    compatible to vasp.4.4
   GGA_COMPAT  = T    GGA compatible to vasp.4.4-vasp.4.6
   LMAXPAW     = -100 max onsite density
   LMAXMIX     =    2 max onsite mixed and CHGCAR
   VOSKOWN=      0    Vosko Wilk Nusair interpolation
   ROPT   =    0.00000   0.00000
 Ionic relaxation
   EDIFFG = 0.1E-04   stopping-criterion for IOM
   NSW    =      0    number of steps for IOM
   NBLOCK =      1;   KBLOCK =      1    inner block; outer block 
   IBRION =     -1    ionic relax: 0-MD 1-quasi-New 2-CG
   NFREE  =      0    steps in history (QN), initial steepest desc. (CG)
   ISIF   =      0    stress and relaxation
   IWAVPR =     10    prediction:  0-non 1-charg 2-wave 3-comb
   ISYM   =      2    0-nonsym 1-usesym 2-fastsym
   LCORR  =      T    Harris-Foulkes like correction to forces

   POTIM  = 0.5000    time-step for ionic-motion
   TEIN   =    0.0    initial temperature
   TEBEG  =    0.0;   TEEND  =   0.0 temperature during run
   SMASS  =  -3.00    Nose mass-parameter (am)
   estimated Nose-frequenzy (Omega)   =  0.10E-29 period in steps = 0.13E+47 mass=  -0.347E-26a.u.
   SCALEE = 1.0000    scale energy and forces
   NPACO  =    256;   APACO  = 16.0  distance and # of slots for P.C.
   PSTRESS=    0.0 pullay stress

  Mass of Ions in am
   POMASS =  12.01 16.00
  Ionic Valenz
   ZVAL   =   4.00  6.00
  Atomic Wigner-Seitz radii
   RWIGS  =  -1.00 -1.00
  virtual crystal weights 
   VCA    =   1.00  1.00
   NELECT =     216.0000    total number of electrons
   NUPDOWN=      -1.0000    fix difference up-down

 DOS related values:
   EMIN   =  10.00;   EMAX   =-10.00  energy-range for DOS
   EFERMI =   0.00
   ISMEAR =     0;   SIGMA  =   0.01  broadening in eV -4-tet -1-fermi 0-gaus

 Electronic relaxation 2 (details)
   IALGO  =     58    algorithm
   LDIAG  =      T    sub-space diagonalisation (order eigenvalues)
   LSUBROT=      F    optimize rotation matrix (better conditioning)
   TURBO    =      0    0=normal 1=particle mesh
   IRESTART =      0    0=no restart 2=restart with 2 vectors
   NREBOOT  =      0    no. of reboots
   NMIN     =      0    reboot dimension
   EREF     =   0.00    reference energy to select bands
   IMIX   =      4    mixing-type and parameters
     AMIX     =   0.40;   BMIX     =  1.00
     AMIX_MAG =   1.60;   BMIX_MAG =  1.00
     AMIN     =   0.10
     WC   =   100.;   INIMIX=   1;  MIXPRE=   1;  MAXMIX= -45

 Intra band minimization:
   WEIMIN = 0.0000     energy-eigenvalue tresh-hold
   EBREAK =  0.18E-08  absolut break condition
   DEPER  =   0.30     relativ break condition  

   TIME   =   0.40     timestep for ELM

  volume/ion in A,a.u.               =      49.64       335.01
  Fermi-wavevector in a.u.,A,eV,Ry     =   0.711510  1.344560  6.887909  0.506247
  Thomas-Fermi vector in A             =   1.798641
 
 Write flags
   LWAVE        =      F    write WAVECAR
   LDOWNSAMPLE  =      F    k-point downsampling of WAVECAR
   LCHARG       =      T    write CHGCAR
   LVTOT        =      F    write LOCPOT, total local potential
   LVHAR        =      F    write LOCPOT, Hartree potential only
   LELF         =      F    write electronic localiz. function (ELF)
   LORBIT       =      0    0 simple, 1 ext, 2 COOP (PROOUT), +10 PAW based schemes


 Dipole corrections
   LMONO  =      F    monopole corrections only (constant potential shift)
   LDIPOL =      F    correct potential (dipole corrections)
   IDIPOL =      0    1-x, 2-y, 3-z, 4-all directions 
   EPSILON=  1.0000000 bulk dielectric constant

 Exchange correlation treatment:
   GGA     =    RE    GGA type
   LEXCH   =    40    internal setting for exchange type
   VOSKOWN=      0    Vosko Wilk Nusair interpolation
   LHFCALC =     F    Hartree Fock is set to
   LHFONE  =     F    Hartree Fock one center treatment
   AEXX    =    0.0000 exact exchange contribution

 Linear response parameters
   LEPSILON=     F    determine dielectric tensor
   LRPA    =     F    only Hartree local field effects (RPA)
   LNABLA  =     F    use nabla operator in PAW spheres
   LVEL    =     F    velocity operator in full k-point grid
   LINTERFAST=   F  fast interpolation
   KINTER  =     0    interpolate to denser k-point grid
   CSHIFT  =0.1000    complex shift for real part using Kramers Kronig
   OMEGAMAX=  -1.0    maximum frequency
   DEG_THRESHOLD= 0.2000000E-02 threshold for treating states as degnerate
   RTIME   =   -0.100 relaxation time in fs
  (WPLASMAI=    0.000 imaginary part of plasma frequency in eV, 0.658/RTIME)
   DFIELD  = 0.0000000 0.0000000 0.0000000 field for delta impulse in time
 
 Orbital magnetization related:
   ORBITALMAG=     F  switch on orbital magnetization
   LCHIMAG   =     F  perturbation theory with respect to B field
   DQ        =  0.001000  dq finite difference perturbation B field
   LLRAUG    =     F  two centre corrections for induced B field



--------------------------------------------------------------------------------------------------------


 Static calculation
 charge density and potential will be updated during run
 non-spin polarized calculation
 Conjugate gradient for all bands (Freysoldt, et al. PRB 79, 241103 (2009))
 preconditioned conjugated gradient                                        
 perform sub-space diagonalisation
    before iterative eigenvector-optimisation
 modified Broyden-mixing scheme, WC =      100.0
 initial mixing is a Kerker type mixing with AMIX =  0.4000 and BMIX =      1.0000
 Hartree-type preconditioning will be used
 using additional bands           32
 reciprocal scheme for non local part
 use partial core corrections
 no Harris-corrections to forces 
 use gradient corrections 
 use of overlap-Matrix (Vanderbilt PP)
 Gauss-broadening in eV      SIGMA  =   0.01


--------------------------------------------------------------------------------------------------------


  energy-cutoff  :     1000.00
  volume of cell :     2631.08
      direct lattice vectors                 reciprocal lattice vectors
    12.325000000  0.000000000  0.000000000     0.081135903  0.046843835  0.000000000
    -6.162500000 10.673763102  0.000000000     0.000000000  0.093687670  0.000000000
     0.000000000  0.000000000 20.000000000     0.000000000  0.000000000  0.050000000

  length of vectors
    12.325000000 12.325000000 20.000000000     0.093687670  0.093687670  0.050000000


 
 k-points in units of 2pi/SCALE and weight: auto                                    
   0.00000000  0.00000000  0.00000000       1.000
 
 k-points in reciprocal lattice and weights: auto                                    
   0.00000000  0.00000000  0.00000000       1.000
 
 position of ions in fractional coordinates (direct lattice) 
   0.97245084  0.00032082  0.00070839
   0.03911838  0.13365950  0.00055022
   0.17244363  0.00029545  0.00062454
   0.23909628  0.13364792  0.00032058
   0.97245206  0.20032201  0.00060652
   0.03912836  0.33364377  0.00055519
   0.17245176  0.20035455  0.00027396
   0.23912436  0.33366572  0.00009033
   0.37246557  0.00032440  0.00056739
   0.43913747  0.13361994  0.00032292
   0.97244982  0.40030936  0.00068451
   0.03912498  0.53363679  0.00071676
   0.37241618  0.40032948  0.00000000
   0.43909960  0.53363898  0.00029052
   0.57244368  0.00031213  0.00069947
   0.63911021  0.13363175  0.00068409
   0.97245270  0.60030565  0.00080036
   0.03912449  0.73364036  0.00081814
   0.57243347  0.60030624  0.00050362
   0.63911189  0.73364188  0.00065988
   0.17245463  0.40031823  0.00036131
   0.23912018  0.53363655  0.00047314
   0.37245975  0.20029599  0.00011125
   0.43910710  0.33367342  0.00006970
   0.17245216  0.60031151  0.00065542
   0.23912337  0.73363857  0.00071891
   0.57243108  0.20028917  0.00051662
   0.63911277  0.33361863  0.00057797
   0.37243981  0.60030802  0.00045356
   0.43911609  0.73363786  0.00061774
   0.57246936  0.40032050  0.00042490
   0.63911941  0.53365087  0.00057451
   0.77244572  0.00031543  0.00074520
   0.83911628  0.13364020  0.00071913
   0.77244051  0.20030743  0.00072629
   0.83912024  0.33363573  0.00073183
   0.77244632  0.40029837  0.00072872
   0.83911898  0.53363396  0.00077638
   0.77245614  0.60030817  0.00074464
   0.83911503  0.73364318  0.00078939
   0.97245531  0.80030558  0.00081529
   0.03911471  0.93364329  0.00074756
   0.17245797  0.80031221  0.00077922
   0.23913455  0.93364719  0.00068106
   0.37245140  0.80031667  0.00068925
   0.43912449  0.93364477  0.00067679
   0.57244110  0.80031005  0.00066817
   0.63911507  0.93363899  0.00073456
   0.77244510  0.80031319  0.00075258
   0.83911661  0.93364434  0.00075854
   0.37302101  0.25122688  0.22272468
   0.42087980  0.18931315  0.22594577
   0.32515698  0.31316719  0.21975194
 
 position of ions in cartesian coordinates  (Angst):
  11.98347958  0.00342433  0.01416777
  -0.34154264  1.42664989  0.01100432
   2.12354700  0.00315355  0.01249070
   2.12325634  1.42652621  0.00641170
  10.75098721  2.13818970  0.01213047
  -1.57382270  3.56123457  0.01110375
   0.89078307  2.13853702  0.00547917
   0.89099273  3.56146885  0.00180651
   4.58863896  0.00346260  0.01134782
   4.58893648  1.42622757  0.00645846
   9.51853763  4.27280730  0.01369027
  -2.80632132  5.69591267  0.01433526
   2.12299894  4.27302204  0.00000000
   2.12335237  5.69593607  0.00581036
   7.05344483  0.00333155  0.01398950
   7.05352764  1.42635365  0.01368187
   8.28609598  6.40752033  0.01600723
  -4.03884931  7.83070339  0.01636283
   3.35585531  6.40752662  0.01007237
   3.35598594  7.83071962  0.01319763
  -0.34145776  4.27290193  0.00722612
  -0.34137895  5.69591010  0.00946273
   3.35624236  2.13791198  0.00222492
   3.35573251  3.56155103  0.00139405
  -1.57394684  6.40758280  0.01310850
  -1.57385216  7.83068434  0.01437823
   5.82093107  2.13783916  0.01033241
   5.82114012  3.56096622  0.01155939
   0.89092245  6.40754561  0.00907111
   0.89106251  7.83067670  0.01235474
   4.58870974  4.27292622  0.00849795
   4.58852320  5.69606300  0.01149026
   9.51844972  0.00336679  0.01490402
   9.51855036  1.42644387  0.01438264
   8.28593477  2.13803408  0.01452582
   8.28612680  3.56114872  0.01463668
   7.05356221  4.27268994  0.01457444
   7.05362213  5.69588251  0.01552751
   5.82112285  6.40754723  0.01489279
   5.82101669  7.83073350  0.01578780
   7.05362858  8.54227219  0.01630582
  -5.27148792  9.96548729  0.01495127
  -2.80637951  8.54234295  0.01558431
  -2.80626749  9.96552896  0.01362126
  -0.34148805  8.54239058  0.01378498
  -0.34137657  9.96550309  0.01353576
   2.12342586  8.54231992  0.01336337
   2.12354296  9.96544135  0.01469111
   4.58845581  8.54235337  0.01505154
   4.58852904  9.96549848  0.01517076
   3.04929830  2.68153618  4.45449359
   4.02070129  2.02068374  4.51891545
   2.07766701  3.34267235  4.39503872
 


--------------------------------------------------------------------------------------------------------


 k-point   1 :   0.0000 0.0000 0.0000  plane waves:  189031

 maximum and minimum number of plane-waves per node :     47262    47254

 maximum number of plane-waves:    189031
 maximum index in each direction: 
   IXMAX=   31   IYMAX=   31   IZMAX=   51
   IXMIN=  -31   IYMIN=  -31   IZMIN=  -51


 parallel 3D FFT for wavefunctions:
    minimum data exchange during FFTs selected (reduces bandwidth)
 parallel 3D FFT for charge:
    minimum data exchange during FFTs selected (reduces bandwidth)


 total amount of memory used by VASP MPI-rank0   175916. kBytes
=======================================================================

   base      :      30000. kBytes
   nonl-proj :      46129. kBytes
   fftplans  :      35778. kBytes
   grid      :      52596. kBytes
   one-center:         43. kBytes
   wavefun   :      11370. kBytes
 
     INWAV:  cpu time    0.0000: real time    0.0000
 Broyden mixing: mesh for mixing (old mesh)
   NGX = 63   NGY = 63   NGZ =103
  (NGX  =256   NGY  =256   NGZ  =420)
  gives a total of 408807 points

 initial charge density was supplied:
 charge density of overlapping atoms calculated
 number of electron     216.0000000 magnetization 
 keeping initial charge density in first step


--------------------------------------------------------------------------------------------------------


 Maximum index for augmentation-charges          459 (set IRDMAX)


--------------------------------------------------------------------------------------------------------


 First call to EWALD:  gamma=   0.128
 Maximum number of real-space cells 3x 3x 2
 Maximum number of reciprocal cells 3x 3x 4

    FEWALD:  cpu time    0.0026: real time    0.0027


--------------------------------------- Iteration      1(   1)  ---------------------------------------


    POTLOK:  cpu time    0.2918: real time    0.2943
    SETDIJ:  cpu time    0.0047: real time    0.0048
    TRIAL :  cpu time    4.1673: real time    4.2149
    CORREC:  cpu time    0.0006: real time    0.0006
    --------------------------------------------
      LOOP:  cpu time    4.4705: real time    4.5269

 eigenvalue-minimisations  :   280
 total energy-change (2. order) : 0.2676338E+04  (-0.1114123E+05)
 number of electron     216.0000000 magnetization 
 augmentation part      216.0000000 magnetization 

 Free energy of the ion-electron system (eV)
  ---------------------------------------------------
  alpha Z        PSCENC =        59.93625244
  Ewald energy   TEWEN  =     32604.61742785
  -Hartree energ DENC   =    -38780.03525284
  -exchange      EXHF   =         0.00000000
  -V(xc)+E(xc)   XCENC  =       415.90174357
  PAW double counting   =      6538.03749920    -6258.26020123
  entropy T*S    EENTRO =        -0.00000000
  eigenvalues    EBANDS =      -268.16909267
  atomic energy  EATOM  =      8364.30921166
  ---------------------------------------------------
  free energy    TOTEN  =      2676.33758799 eV

  energy without entropy =     2676.33758799  energy(sigma->0) =     2676.33758799


--------------------------------------------------------------------------------------------------------




--------------------------------------- Iteration      1(   2)  ---------------------------------------


    TRIAL :  cpu time    6.6390: real time    6.7074
    CORREC:  cpu time    0.0001: real time    0.0001
    --------------------------------------------
      LOOP:  cpu time    6.7018: real time    6.7725

 eigenvalue-minimisations  :   504
 total energy-change (2. order) :-0.2482984E+04  (-0.2355224E+04)
 number of electron     216.0000000 magnetization 
 augmentation part      216.0000000 magnetization 

 Free energy of the ion-electron system (eV)
  ---------------------------------------------------
  alpha Z        PSCENC =        59.93625244
  Ewald energy   TEWEN  =     32604.61742785
  -Hartree energ DENC   =    -38780.03525284
  -exchange      EXHF   =         0.00000000
  -V(xc)+E(xc)   XCENC  =       415.90174357
  PAW double counting   =      6538.03749920    -6258.26020123
  entropy T*S    EENTRO =        -0.00000000
  eigenvalues    EBANDS =     -2751.15324640
  atomic energy  EATOM  =      8364.30921166
  ---------------------------------------------------
  free energy    TOTEN  =       193.35343426 eV

  energy without entropy =      193.35343426  energy(sigma->0) =      193.35343426


--------------------------------------------------------------------------------------------------------




--------------------------------------- Iteration      1(   3)  ---------------------------------------


    TRIAL :  cpu time    4.7594: real time    4.8082
    CORREC:  cpu time    0.0001: real time    0.0001
    --------------------------------------------
      LOOP:  cpu time    4.8443: real time    4.8957

 eigenvalue-minimisations  :   336
 total energy-change (2. order) :-0.6588514E+03  (-0.6559411E+03)
 number of electron     216.0000000 magnetization 
 augmentation part      216.0000000 magnetization 

 Free energy of the ion-electron system (eV)
  ---------------------------------------------------
  alpha Z        PSCENC =        59.93625244
  Ewald energy   TEWEN  =     32604.61742785
  -Hartree energ DENC   =    -38780.03525284
  -exchange      EXHF   =         0.00000000
  -V(xc)+E(xc)   XCENC  =       415.90174357
  PAW double counting   =      6538.03749920    -6258.26020123
  entropy T*S    EENTRO =        -0.00000000
  eigenvalues    EBANDS =     -3410.00462004
  atomic energy  EATOM  =      8364.30921166
  ---------------------------------------------------
  free energy    TOTEN  =      -465.49793939 eV

  energy without entropy =     -465.49793939  energy(sigma->0) =     -465.49793939


--------------------------------------------------------------------------------------------------------




--------------------------------------- Iteration      1(   4)  ---------------------------------------


    TRIAL :  cpu time    5.3822: real time    5.4451
    CORREC:  cpu time    0.0001: real time    0.0001
    --------------------------------------------
      LOOP:  cpu time    5.4242: real time    5.4877

 eigenvalue-minimisations  :   392
 total energy-change (2. order) :-0.3242309E+02  (-0.3226274E+02)
 number of electron     216.0000000 magnetization 
 augmentation part      216.0000000 magnetization 

 Free energy of the ion-electron system (eV)
  ---------------------------------------------------
  alpha Z        PSCENC =        59.93625244
  Ewald energy   TEWEN  =     32604.61742785
  -Hartree energ DENC   =    -38780.03525284
  -exchange      EXHF   =         0.00000000
  -V(xc)+E(xc)   XCENC  =       415.90174357
  PAW double counting   =      6538.03749920    -6258.26020123
  entropy T*S    EENTRO =        -0.00000000
  eigenvalues    EBANDS =     -3442.42770872
  atomic energy  EATOM  =      8364.30921166
  ---------------------------------------------------
  free energy    TOTEN  =      -497.92102806 eV

  energy without entropy =     -497.92102806  energy(sigma->0) =     -497.92102806


--------------------------------------------------------------------------------------------------------




--------------------------------------- Iteration      1(   5)  ---------------------------------------


    TRIAL :  cpu time    5.7003: real time    5.7583
    CORREC:  cpu time    0.0001: real time    0.0001
    CHARGE:  cpu time    0.2329: real time    0.2384
    --------------------------------------------
      LOOP:  cpu time    5.9723: real time    6.0363

 eigenvalue-minimisations  :   420
 total energy-change (2. order) :-0.6980598E+00  (-0.6963376E+00)
 number of electron     216.0000000 magnetization 
 augmentation part       -0.3107474 magnetization 

 Free energy of the ion-electron system (eV)
  ---------------------------------------------------
  alpha Z        PSCENC =        59.93625244
  Ewald energy   TEWEN  =     32604.61742785
  -Hartree energ DENC   =    -38780.03525284
  -exchange      EXHF   =         0.00000000
  -V(xc)+E(xc)   XCENC  =       415.90174357
  PAW double counting   =      6538.03749920    -6258.26020123
  entropy T*S    EENTRO =        -0.00000000
  eigenvalues    EBANDS =     -3443.12576851
  atomic energy  EATOM  =      8364.30921166
  ---------------------------------------------------
  free energy    TOTEN  =      -498.61908785 eV

  energy without entropy =     -498.61908785  energy(sigma->0) =     -498.61908785


--------------------------------------------------------------------------------------------------------




--------------------------------------- Iteration      1(   6)  ---------------------------------------


    POTLOK:  cpu time    0.2740: real time    0.2765
    SETDIJ:  cpu time    0.0028: real time    0.0028
    TRIAL :  cpu time    2.0061: real time    2.0277
    CORREC:  cpu time    0.8030: real time    0.8106
    CHARGE:  cpu time    0.2336: real time    0.2356
    --------------------------------------------
      LOOP:  cpu time    3.3556: real time    3.3912

 eigenvalue-minimisations  :     0
 total energy-change (2. order) : 0.4868267E+02  (-0.1446021E+02)
 number of electron     216.0000000 magnetization 
 augmentation part       -0.4041770 magnetization 

 Free energy of the ion-electron system (eV)
  ---------------------------------------------------
  alpha Z        PSCENC =        59.93625244
  Ewald energy   TEWEN  =     32604.61742785
  -Hartree energ DENC   =    -40178.08400978
  -exchange      EXHF   =         0.00000000
  -V(xc)+E(xc)   XCENC  =       462.94808107
  PAW double counting   =    104143.41512093  -103868.99845455
  entropy T*S    EENTRO =        -0.00000000
  eigenvalues    EBANDS =     -2038.08004303
  atomic energy  EATOM  =      8364.30921166
  ---------------------------------------------------
  free energy    TOTEN  =      -449.93641341 eV

  energy without entropy =     -449.93641341  energy(sigma->0) =     -449.93641341


--------------------------------------------------------------------------------------------------------




--------------------------------------- Iteration      1(   7)  ---------------------------------------


    POTLOK:  cpu time    0.2752: real time    0.2774
    SETDIJ:  cpu time    0.0029: real time    0.0030
    TRIAL :  cpu time    1.9996: real time    2.0261
    CORREC:  cpu time    0.8039: real time    0.8107
    CHARGE:  cpu time    0.2337: real time    0.2358
    --------------------------------------------
      LOOP:  cpu time    3.3550: real time    3.3968

 eigenvalue-minimisations  :     0
 total energy-change (2. order) :-0.1449794E+02  (-0.1769141E+01)
 number of electron     216.0000000 magnetization 
 augmentation part       -0.4503686 magnetization 

 Free energy of the ion-electron system (eV)
  ---------------------------------------------------
  alpha Z        PSCENC =        59.93625244
  Ewald energy   TEWEN  =     32604.61742785
  -Hartree energ DENC   =    -39696.40889639
  -exchange      EXHF   =         0.00000000
  -V(xc)+E(xc)   XCENC  =       446.78112474
  PAW double counting   =    120393.13255821  -120116.64648275
  entropy T*S    EENTRO =        -0.00000000
  eigenvalues    EBANDS =     -2520.15554777
  atomic energy  EATOM  =      8364.30921166
  ---------------------------------------------------
  free energy    TOTEN  =      -464.43435201 eV

  energy without entropy =     -464.43435201  energy(sigma->0) =     -464.43435201


--------------------------------------------------------------------------------------------------------




--------------------------------------- Iteration      1(   8)  ---------------------------------------


    POTLOK:  cpu time    0.2758: real time    0.2779
    SETDIJ:  cpu time    0.0030: real time    0.0030
    TRIAL :  cpu time    2.0054: real time    2.0256
    CORREC:  cpu time    0.8036: real time    0.8106
    CHARGE:  cpu time    0.2332: real time    0.2351
    --------------------------------------------
      LOOP:  cpu time    3.4140: real time    3.4472

 eigenvalue-minimisations  :     0
 total energy-change (2. order) :-0.1768172E+01  (-0.4548896E+00)
 number of electron     216.0000000 magnetization 
 augmentation part       -0.4661998 magnetization 

 Free energy of the ion-electron system (eV)
  ---------------------------------------------------
  alpha Z        PSCENC =        59.93625244
  Ewald energy   TEWEN  =     32604.61742785
  -Hartree energ DENC   =    -39666.34431683
  -exchange      EXHF   =         0.00000000
  -V(xc)+E(xc)   XCENC  =       446.16548023
  PAW double counting   =    124656.30352890  -124379.52133983
  entropy T*S    EENTRO =        -0.00000000
  eigenvalues    EBANDS =     -2551.66876854
  atomic energy  EATOM  =      8364.30921166
  ---------------------------------------------------
  free energy    TOTEN  =      -466.20252411 eV

  energy without entropy =     -466.20252411  energy(sigma->0) =     -466.20252411


--------------------------------------------------------------------------------------------------------




--------------------------------------- Iteration      1(   9)  ---------------------------------------


    POTLOK:  cpu time    0.2754: real time    0.2773
    SETDIJ:  cpu time    0.0028: real time    0.0028
    TRIAL :  cpu time    2.0053: real time    2.0262
    CORREC:  cpu time    0.8069: real time    0.8139
    CHARGE:  cpu time    0.2335: real time    0.2354
    --------------------------------------------
      LOOP:  cpu time    3.3613: real time    3.3955

 eigenvalue-minimisations  :     0
 total energy-change (2. order) :-0.4546986E+00  (-0.1405145E+00)
 number of electron     216.0000000 magnetization 
 augmentation part       -0.4732632 magnetization 

 Free energy of the ion-electron system (eV)
  ---------------------------------------------------
  alpha Z        PSCENC =        59.93625244
  Ewald energy   TEWEN  =     32604.61742785
  -Hartree energ DENC   =    -39682.51028161
  -exchange      EXHF   =         0.00000000
  -V(xc)+E(xc)   XCENC  =       446.37129315
  PAW double counting   =    127188.44828591  -126911.56582704
  entropy T*S    EENTRO =        -0.00000000
  eigenvalues    EBANDS =     -2536.26358504
  atomic energy  EATOM  =      8364.30921166
  ---------------------------------------------------
  free energy    TOTEN  =      -466.65722267 eV

  energy without entropy =     -466.65722267  energy(sigma->0) =     -466.65722267


--------------------------------------------------------------------------------------------------------




--------------------------------------- Iteration      1(  10)  ---------------------------------------


    POTLOK:  cpu time    0.2745: real time    0.2764
    SETDIJ:  cpu time    0.0029: real time    0.0029
    TRIAL :  cpu time    2.0058: real time    2.0270
    CORREC:  cpu time    0.8032: real time    0.8110
    CHARGE:  cpu time    0.2338: real time    0.2357
    --------------------------------------------
      LOOP:  cpu time    3.4082: real time    3.4443

 eigenvalue-minimisations  :     0
 total energy-change (2. order) :-0.1403115E+00  (-0.5516757E-01)
 number of electron     216.0000000 magnetization 
 augmentation part       -0.4743682 magnetization 

 Free energy of the ion-electron system (eV)
  ---------------------------------------------------
  alpha Z        PSCENC =        59.93625244
  Ewald energy   TEWEN  =     32604.61742785
  -Hartree energ DENC   =    -39683.91202523
  -exchange      EXHF   =         0.00000000
  -V(xc)+E(xc)   XCENC  =       446.29677113
  PAW double counting   =    127426.16330067  -127149.22165307
  entropy T*S    EENTRO =        -0.00000000
  eigenvalues    EBANDS =     -2534.98681961
  atomic energy  EATOM  =      8364.30921166
  ---------------------------------------------------
  free energy    TOTEN  =      -466.79753415 eV

  energy without entropy =     -466.79753415  energy(sigma->0) =     -466.79753415


--------------------------------------------------------------------------------------------------------




--------------------------------------- Iteration      1(  11)  ---------------------------------------


    POTLOK:  cpu time    0.2757: real time    0.2777
    SETDIJ:  cpu time    0.0028: real time    0.0028
    TRIAL :  cpu time    2.0061: real time    2.0274
    CORREC:  cpu time    0.8033: real time    0.8107
    CHARGE:  cpu time    0.2334: real time    0.2354
    --------------------------------------------
      LOOP:  cpu time    3.3609: real time    3.3952

 eigenvalue-minimisations  :     0
 total energy-change (2. order) :-0.5503972E-01  (-0.2240771E-01)
 number of electron     216.0000000 magnetization 
 augmentation part       -0.4743682 magnetization 

 Free energy of the ion-electron system (eV)
  ---------------------------------------------------
  alpha Z        PSCENC =        59.93625244
  Ewald energy   TEWEN  =     32604.61742785
  -Hartree energ DENC   =    -39680.47051517
  -exchange      EXHF   =         0.00000000
  -V(xc)+E(xc)   XCENC  =       446.23615164
  PAW double counting   =    126839.71391457  -126562.77307204
  entropy T*S    EENTRO =        -0.00000000
  eigenvalues    EBANDS =     -2538.42194483
  atomic energy  EATOM  =      8364.30921166
  ---------------------------------------------------
  free energy    TOTEN  =      -466.85257387 eV

  energy without entropy =     -466.85257387  energy(sigma->0) =     -466.85257387


--------------------------------------------------------------------------------------------------------




--------------------------------------- Iteration      1(  12)  ---------------------------------------


    POTLOK:  cpu time    0.2861: real time    0.2886
    SETDIJ:  cpu time    0.0031: real time    0.0032
    TRIAL :  cpu time    2.0078: real time    2.0323
    CORREC:  cpu time    0.8015: real time    0.8093
    CHARGE:  cpu time    0.2331: real time    0.2351
    --------------------------------------------
      LOOP:  cpu time    3.3781: real time    3.4303

 eigenvalue-minimisations  :     0
 total energy-change (2. order) :-0.2231726E-01  (-0.7949932E-02)
 number of electron     216.0000000 magnetization 
 augmentation part       -0.4747002 magnetization 

 Free energy of the ion-electron system (eV)
  ---------------------------------------------------
  alpha Z        PSCENC =        59.93625244
  Ewald energy   TEWEN  =     32604.61742785
  -Hartree energ DENC   =    -39679.04999922
  -exchange      EXHF   =         0.00000000
  -V(xc)+E(xc)   XCENC  =       446.20794487
  PAW double counting   =    126463.94373381  -126187.01882808
  entropy T*S    EENTRO =        -0.00000000
  eigenvalues    EBANDS =     -2539.82063447
  atomic energy  EATOM  =      8364.30921166
  ---------------------------------------------------
  free energy    TOTEN  =      -466.87489113 eV

  energy without entropy =     -466.87489113  energy(sigma->0) =     -466.87489113


--------------------------------------------------------------------------------------------------------




--------------------------------------- Iteration      1(  13)  ---------------------------------------


    POTLOK:  cpu time    0.2731: real time    0.2750
    SETDIJ:  cpu time    0.0028: real time    0.0028
    TRIAL :  cpu time    2.0040: real time    2.0260
    CORREC:  cpu time    0.7971: real time    0.8047
    CHARGE:  cpu time    0.2337: real time    0.2356
    --------------------------------------------
      LOOP:  cpu time    3.3551: real time    3.3936

 eigenvalue-minimisations  :     0
 total energy-change (2. order) :-0.7929593E-02  (-0.2331461E-02)
 number of electron     216.0000000 magnetization 
 augmentation part       -0.4744350 magnetization 

 Free energy of the ion-electron system (eV)
  ---------------------------------------------------
  alpha Z        PSCENC =        59.93625244
  Ewald energy   TEWEN  =     32604.61742785
  -Hartree energ DENC   =    -39678.98538991
  -exchange      EXHF   =         0.00000000
  -V(xc)+E(xc)   XCENC  =       446.19893198
  PAW double counting   =    126390.99081648  -126114.07148388
  entropy T*S    EENTRO =        -0.00000000
  eigenvalues    EBANDS =     -2539.87858734
  atomic energy  EATOM  =      8364.30921166
  ---------------------------------------------------
  free energy    TOTEN  =      -466.88282072 eV

  energy without entropy =     -466.88282072  energy(sigma->0) =     -466.88282072


--------------------------------------------------------------------------------------------------------




--------------------------------------- Iteration      1(  14)  ---------------------------------------


    POTLOK:  cpu time    0.2737: real time    0.2759
    SETDIJ:  cpu time    0.0029: real time    0.0029
    TRIAL :  cpu time    2.0106: real time    2.0325
    CORREC:  cpu time    0.7935: real time    0.8054
    CHARGE:  cpu time    0.2302: real time    0.2353
    --------------------------------------------
      LOOP:  cpu time    3.3583: real time    3.4001

 eigenvalue-minimisations  :     0
 total energy-change (2. order) :-0.2331598E-02  (-0.6701593E-03)
 number of electron     216.0000000 magnetization 
 augmentation part       -0.4742113 magnetization 

 Free energy of the ion-electron system (eV)
  ---------------------------------------------------
  alpha Z        PSCENC =        59.93625244
  Ewald energy   TEWEN  =     32604.61742785
  -Hartree energ DENC   =    -39678.88255857
  -exchange      EXHF   =         0.00000000
  -V(xc)+E(xc)   XCENC  =       446.19813073
  PAW double counting   =    126451.96164258  -126175.04356101
  entropy T*S    EENTRO =        -0.00000000
  eigenvalues    EBANDS =     -2539.98169801
  atomic energy  EATOM  =      8364.30921166
  ---------------------------------------------------
  free energy    TOTEN  =      -466.88515232 eV

  energy without entropy =     -466.88515232  energy(sigma->0) =     -466.88515232


--------------------------------------------------------------------------------------------------------




--------------------------------------- Iteration      1(  15)  ---------------------------------------


    POTLOK:  cpu time    0.2722: real time    0.2741
    SETDIJ:  cpu time    0.0030: real time    0.0030
    TRIAL :  cpu time    2.0040: real time    2.0278
    CORREC:  cpu time    0.7949: real time    0.8063
    CHARGE:  cpu time    0.2337: real time    0.2356
    --------------------------------------------
      LOOP:  cpu time    3.3855: real time    3.4266

 eigenvalue-minimisations  :     0
 total energy-change (2. order) :-0.6719384E-03  (-0.2373868E-03)
 number of electron     216.0000000 magnetization 
 augmentation part       -0.4739167 magnetization 

 Free energy of the ion-electron system (eV)
  ---------------------------------------------------
  alpha Z        PSCENC =        59.93625244
  Ewald energy   TEWEN  =     32604.61742785
  -Hartree energ DENC   =    -39678.55679516
  -exchange      EXHF   =         0.00000000
  -V(xc)+E(xc)   XCENC  =       446.18602921
  PAW double counting   =    126492.80627394  -126215.88690965
  entropy T*S    EENTRO =        -0.00000000
  eigenvalues    EBANDS =     -2540.29731456
  atomic energy  EATOM  =      8364.30921166
  ---------------------------------------------------
  free energy    TOTEN  =      -466.88582426 eV

  energy without entropy =     -466.88582426  energy(sigma->0) =     -466.88582426


--------------------------------------------------------------------------------------------------------




--------------------------------------- Iteration      1(  16)  ---------------------------------------


    POTLOK:  cpu time    0.2706: real time    0.2725
    SETDIJ:  cpu time    0.0028: real time    0.0028
    TRIAL :  cpu time    2.0063: real time    2.0272
    CORREC:  cpu time    0.7992: real time    0.8065
    CHARGE:  cpu time    0.2341: real time    0.2361
    --------------------------------------------
      LOOP:  cpu time    3.3558: real time    3.3903

 eigenvalue-minimisations  :     0
 total energy-change (2. order) :-0.2388659E-03  (-0.8688309E-04)
 number of electron     216.0000000 magnetization 
 augmentation part       -0.4737350 magnetization 

 Free energy of the ion-electron system (eV)
  ---------------------------------------------------
  alpha Z        PSCENC =        59.93625244
  Ewald energy   TEWEN  =     32604.61742785
  -Hartree energ DENC   =    -39678.65320442
  -exchange      EXHF   =         0.00000000
  -V(xc)+E(xc)   XCENC  =       446.18965347
  PAW double counting   =    126475.91685498  -126198.99804271
  entropy T*S    EENTRO =        -0.00000000
  eigenvalues    EBANDS =     -2540.20421641
  atomic energy  EATOM  =      8364.30921166
  ---------------------------------------------------
  free energy    TOTEN  =      -466.88606313 eV

  energy without entropy =     -466.88606313  energy(sigma->0) =     -466.88606313


--------------------------------------------------------------------------------------------------------




--------------------------------------- Iteration      1(  17)  ---------------------------------------


    POTLOK:  cpu time    0.2706: real time    0.2726
    SETDIJ:  cpu time    0.0031: real time    0.0031
    TRIAL :  cpu time    2.0057: real time    2.0263
    CORREC:  cpu time    0.8009: real time    0.8081
    CHARGE:  cpu time    0.2331: real time    0.2351
    --------------------------------------------
      LOOP:  cpu time    3.3754: real time    3.4094

 eigenvalue-minimisations  :     0
 total energy-change (2. order) :-0.8779659E-04  (-0.3319140E-04)
 number of electron     216.0000000 magnetization 
 augmentation part       -0.4737313 magnetization 

 Free energy of the ion-electron system (eV)
  ---------------------------------------------------
  alpha Z        PSCENC =        59.93625244
  Ewald energy   TEWEN  =     32604.61742785
  -Hartree energ DENC   =    -39678.76558734
  -exchange      EXHF   =         0.00000000
  -V(xc)+E(xc)   XCENC  =       446.19313122
  PAW double counting   =    126447.41255106  -126170.49411873
  entropy T*S    EENTRO =        -0.00000000
  eigenvalues    EBANDS =     -2540.09501908
  atomic energy  EATOM  =      8364.30921166
  ---------------------------------------------------
  free energy    TOTEN  =      -466.88615092 eV

  energy without entropy =     -466.88615092  energy(sigma->0) =     -466.88615092


--------------------------------------------------------------------------------------------------------




--------------------------------------- Iteration      1(  18)  ---------------------------------------


    POTLOK:  cpu time    0.2700: real time    0.2719
    SETDIJ:  cpu time    0.0032: real time    0.0032
    TRIAL :  cpu time    2.0052: real time    2.0266
    CORREC:  cpu time    0.7982: real time    0.8055
    CHARGE:  cpu time    0.2339: real time    0.2358
    --------------------------------------------
      LOOP:  cpu time    3.3411: real time    3.3770

 eigenvalue-minimisations  :     0
 total energy-change (2. order) :-0.3346162E-04  (-0.1246196E-04)
 number of electron     216.0000000 magnetization 
 augmentation part       -0.4737733 magnetization 

 Free energy of the ion-electron system (eV)
  ---------------------------------------------------
  alpha Z        PSCENC =        59.93625244
  Ewald energy   TEWEN  =     32604.61742785
  -Hartree energ DENC   =    -39678.74936709
  -exchange      EXHF   =         0.00000000
  -V(xc)+E(xc)   XCENC  =       446.19190828
  PAW double counting   =    126438.53712877  -126161.61831921
  entropy T*S    EENTRO =        -0.00000000
  eigenvalues    EBANDS =     -2540.11042709
  atomic energy  EATOM  =      8364.30921166
  ---------------------------------------------------
  free energy    TOTEN  =      -466.88618438 eV

  energy without entropy =     -466.88618438  energy(sigma->0) =     -466.88618438


--------------------------------------------------------------------------------------------------------




--------------------------------------- Iteration      1(  19)  ---------------------------------------


    POTLOK:  cpu time    0.2723: real time    0.2742
    SETDIJ:  cpu time    0.0030: real time    0.0030
    TRIAL :  cpu time    2.0066: real time    2.0279
    CORREC:  cpu time    0.8015: real time    0.8088
    CHARGE:  cpu time    0.2333: real time    0.2352
    --------------------------------------------
      LOOP:  cpu time    3.3675: real time    3.4018

 eigenvalue-minimisations  :     0
 total energy-change (2. order) :-0.1219846E-04  (-0.4528338E-05)
 number of electron     216.0000000 magnetization 
 augmentation part       -0.4738466 magnetization 

 Free energy of the ion-electron system (eV)
  ---------------------------------------------------
  alpha Z        PSCENC =        59.93625244
  Ewald energy   TEWEN  =     32604.61742785
  -Hartree energ DENC   =    -39678.77041763
  -exchange      EXHF   =         0.00000000
  -V(xc)+E(xc)   XCENC  =       446.19314675
  PAW double counting   =    126442.93712504  -126166.01826465
  entropy T*S    EENTRO =        -0.00000000
  eigenvalues    EBANDS =     -2540.09067806
  atomic energy  EATOM  =      8364.30921166
  ---------------------------------------------------
  free energy    TOTEN  =      -466.88619658 eV

  energy without entropy =     -466.88619658  energy(sigma->0) =     -466.88619658


--------------------------------------------------------------------------------------------------------




--------------------------------------- Iteration      1(  20)  ---------------------------------------


    POTLOK:  cpu time    0.2692: real time    0.2711
    SETDIJ:  cpu time    0.0029: real time    0.0029
    TRIAL :  cpu time    2.0063: real time    2.0273
    CORREC:  cpu time    0.8092: real time    0.8170
    CHARGE:  cpu time    0.2231: real time    0.2353
    --------------------------------------------
      LOOP:  cpu time    3.3756: real time    3.4238

 eigenvalue-minimisations  :     0
 total energy-change (2. order) :-0.4238987E-05  (-0.1746028E-05)
 number of electron     216.0000000 magnetization 
 augmentation part       -0.4738618 magnetization 

 Free energy of the ion-electron system (eV)
  ---------------------------------------------------
  alpha Z        PSCENC =        59.93625244
  Ewald energy   TEWEN  =     32604.61742785
  -Hartree energ DENC   =    -39678.75720317
  -exchange      EXHF   =         0.00000000
  -V(xc)+E(xc)   XCENC  =       446.19221018
  PAW double counting   =    126448.21426974  -126171.29509809
  entropy T*S    EENTRO =        -0.00000000
  eigenvalues    EBANDS =     -2540.10327145
  atomic energy  EATOM  =      8364.30921166
  ---------------------------------------------------
  free energy    TOTEN  =      -466.88620082 eV

  energy without entropy =     -466.88620082  energy(sigma->0) =     -466.88620082


--------------------------------------------------------------------------------------------------------




--------------------------------------- Iteration      1(  21)  ---------------------------------------


    POTLOK:  cpu time    0.2711: real time    0.2732
    SETDIJ:  cpu time    0.0031: real time    0.0031
    TRIAL :  cpu time    2.0061: real time    2.0272
    CORREC:  cpu time    0.7988: real time    0.8060
    CHARGE:  cpu time    0.2302: real time    0.2351
    --------------------------------------------
      LOOP:  cpu time    3.3686: real time    3.4065

 eigenvalue-minimisations  :     0
 total energy-change (2. order) :-0.1513516E-05  (-0.7144505E-06)
 number of electron     216.0000000 magnetization 
 augmentation part       -0.4738758 magnetization 

 Free energy of the ion-electron system (eV)
  ---------------------------------------------------
  alpha Z        PSCENC =        59.93625244
  Ewald energy   TEWEN  =     32604.61742785
  -Hartree energ DENC   =    -39678.78300046
  -exchange      EXHF   =         0.00000000
  -V(xc)+E(xc)   XCENC  =       446.19340452
  PAW double counting   =    126449.59202031  -126172.67298455
  entropy T*S    EENTRO =        -0.00000000
  eigenvalues    EBANDS =     -2540.07853412
  atomic energy  EATOM  =      8364.30921166
  ---------------------------------------------------
  free energy    TOTEN  =      -466.88620234 eV

  energy without entropy =     -466.88620234  energy(sigma->0) =     -466.88620234


--------------------------------------------------------------------------------------------------------




--------------------------------------- Iteration      1(  22)  ---------------------------------------


    POTLOK:  cpu time    0.2783: real time    0.2804
    SETDIJ:  cpu time    0.0027: real time    0.0028
    TRIAL :  cpu time    2.0069: real time    2.0277
    CORREC:  cpu time    0.8037: real time    0.8110
    EDDIAG:  cpu time    0.4584: real time    0.4628
    CHARGE:  cpu time    0.2388: real time    0.2407
    --------------------------------------------
      LOOP:  cpu time    3.8486: real time    3.8888

 eigenvalue-minimisations  :     0
 total energy-change (2. order) :-0.6790797E-06  (-0.3150505E-06)
 number of electron     216.0000000 magnetization 
 augmentation part       -0.4738685 magnetization 

 Free energy of the ion-electron system (eV)
  ---------------------------------------------------
  alpha Z        PSCENC =        59.93625244
  Ewald energy   TEWEN  =     32604.61742785
  -Hartree energ DENC   =    -39678.76883914
  -exchange      EXHF   =         0.00000000
  -V(xc)+E(xc)   XCENC  =       446.19267187
  PAW double counting   =    126448.90485672  -126171.98574860
  entropy T*S    EENTRO =        -0.00000000
  eigenvalues    EBANDS =     -2540.09203582
  atomic energy  EATOM  =      8364.30921166
  ---------------------------------------------------
  free energy    TOTEN  =      -466.88620301 eV

  energy without entropy =     -466.88620301  energy(sigma->0) =     -466.88620301


--------------------------------------------------------------------------------------------------------


  average scaling for gradient   0.9563


 average (electrostatic) potential at core
  the test charge radii are     0.5770  0.5955
  (the norm of the test charge is              1.0000)
       1 -85.4335       2 -85.4316       3 -85.4358       4 -85.4387       5 -85.4294
       6 -85.4280       7 -85.4348       8 -85.4303       9 -85.4307      10 -85.4342
      11 -85.4285      12 -85.4297      13 -85.4336      14 -85.4304      15 -85.4278
      16 -85.4286      17 -85.4306      18 -85.4320      19 -85.4331      20 -85.4307
      21 -85.4274      22 -85.4271      23 -85.4401      24 -85.4396      25 -85.4280
      26 -85.4292      27 -85.4312      28 -85.4347      29 -85.4280      30 -85.4281
      31 -85.4373      32 -85.4345      33 -85.4303      34 -85.4289      35 -85.4287
      36 -85.4298      37 -85.4314      38 -85.4327      39 -85.4329      40 -85.4323
      41 -85.4324      42 -85.4336      43 -85.4306      44 -85.4334      45 -85.4281
      46 -85.4283      47 -85.4296      48 -85.4286      49 -85.4323      50 -85.4310
      51 -89.3804      52-120.0458      53-120.0450
 
 
 
 E-fermi :  -3.8484     XC(G=0):  -2.3823     alpha+bet : -2.1113

 Fermi energy:        -3.8483925048

 k-point     1 :       0.0000    0.0000    0.0000
  band No.  band energies     occupation 
      1     -27.3204      2.00000
      2     -26.2980      2.00000
      3     -21.9988      2.00000
      4     -21.0590      2.00000
      5     -21.0578      2.00000
      6     -21.0562      2.00000
      7     -21.0553      2.00000
      8     -21.0539      2.00000
      9     -21.0538      2.00000
     10     -19.2083      2.00000
     11     -19.2082      2.00000
     12     -19.2081      2.00000
     13     -19.2076      2.00000
     14     -19.2075      2.00000
     15     -19.2073      2.00000
     16     -18.3095      2.00000
     17     -18.3092      2.00000
     18     -18.3088      2.00000
     19     -18.3088      2.00000
     20     -18.3086      2.00000
     21     -18.3082      2.00000
     22     -16.1473      2.00000
     23     -16.1473      2.00000
     24     -16.1467      2.00000
     25     -16.1463      2.00000
     26     -16.1447      2.00000
     27     -16.1446      2.00000
     28     -15.1303      2.00000
     29     -15.1301      2.00000
     30     -15.1299      2.00000
     31     -15.1298      2.00000
     32     -15.1290      2.00000
     33     -15.1289      2.00000
     34     -13.7788      2.00000
     35     -13.7787      2.00000
     36     -13.7783      2.00000
     37     -13.7781      2.00000
     38     -13.7781      2.00000
     39     -13.7774      2.00000
     40     -12.1008      2.00000
     41     -11.3889      2.00000
     42     -11.3888      2.00000
     43     -11.3883      2.00000
     44     -11.3883      2.00000
     45     -11.3876      2.00000
     46     -11.3875      2.00000
     47     -11.2667      2.00000
     48     -11.2667      2.00000
     49     -11.2659      2.00000
     50     -11.2658      2.00000
     51     -11.2646      2.00000
     52     -11.2643      2.00000
     53     -10.8756      2.00000
     54     -10.7922      2.00000
     55     -10.7918      2.00000
     56     -10.0225      2.00000
     57      -9.8818      2.00000
     58      -9.8817      2.00000
     59      -9.8806      2.00000
     60      -9.8802      2.00000
     61      -9.8799      2.00000
     62      -9.8799      2.00000
     63      -8.9121      2.00000
     64      -8.9102      2.00000
     65      -8.9063      2.00000
     66      -8.9060      2.00000
     67      -8.9036      2.00000
     68      -8.9034      2.00000
     69      -8.5996      2.00000
     70      -8.5983      2.00000
     71      -8.5981      2.00000
     72      -8.5971      2.00000
     73      -8.5969      2.00000
     74      -8.5968      2.00000
     75      -8.5659      2.00000
     76      -8.5657      2.00000
     77      -8.5656      2.00000
     78      -8.5652      2.00000
     79      -8.5645      2.00000
     80      -8.5637      2.00000
     81      -7.2530      2.00000
     82      -7.2528      2.00000
     83      -6.9392      2.00000
     84      -6.9385      2.00000
     85      -6.9382      2.00000
     86      -6.9377      2.00000
     87      -6.9358      2.00000
     88      -6.9357      2.00000
     89      -6.7819      2.00000
     90      -6.7818      2.00000
     91      -6.7797      2.00000
     92      -6.7793      2.00000
     93      -6.7789      2.00000
     94      -6.7788      2.00000
     95      -5.8885      2.00000
     96      -5.8871      2.00000
     97      -5.8868      2.00000
     98      -5.8854      2.00000
     99      -5.8851      2.00000
    100      -5.8844      2.00000
    101      -5.4458      2.00000
    102      -5.4437      2.00000
    103      -3.9090      2.00000
    104      -3.9085      2.00000
    105      -3.9078      2.00000
    106      -3.9072      2.00000
    107      -3.9044      2.00000
    108      -3.9042      2.00000
    109      -1.0950      0.00000
    110      -1.0948      0.00000
    111      -1.0923      0.00000
    112      -1.0919      0.00000
    113      -1.0914      0.00000
    114      -1.0912      0.00000
    115       0.4954      0.00000
    116       0.7777      0.00000
    117       0.7788      0.00000
    118       0.7795      0.00000
    119       0.7809      0.00000
    120       0.7812      0.00000
    121       0.7839      0.00000
    122       1.0772      0.00000
    123       1.2618      0.00000
    124       1.2860      0.00000
    125       1.7082      0.00000
    126       1.8684      0.00000
    127       1.9403      0.00000
    128       2.0583      0.00000
    129       2.0632      0.00000
    130       2.0641      0.00000
    131       2.2783      0.00000
    132       2.5128      0.00000
    133       2.5134      0.00000
    134       2.5155      0.00000
    135       2.5158      0.00000
    136       2.5171      0.00000
    137       2.5533      0.00000
    138       2.7727      0.00000
    139       3.1679      0.00000
    140       3.3758      0.00000


--------------------------------------------------------------------------------------------------------


 soft charge-density along one line, spin component           1
         0         1         2         3         4         5         6         7         8         9
 total charge-density along one line
 
 pseudopotential strength for first ion, spin component:           1
 12.709  21.388  -0.000   0.000   0.000  -0.000   0.000   0.000
 21.388  35.991  -0.000   0.000   0.000  -0.000   0.000   0.000
 -0.000  -0.000  -3.095  -0.000   0.000  -5.547  -0.000   0.000
  0.000   0.000  -0.000  -3.096  -0.000  -0.000  -5.548  -0.000
  0.000   0.000   0.000  -0.000  -3.095   0.000  -0.000  -5.547
 -0.000  -0.000  -5.547  -0.000   0.000  -9.919  -0.000   0.000
  0.000   0.000  -0.000  -5.548  -0.000  -0.000  -9.921  -0.000
  0.000   0.000   0.000  -0.000  -5.547   0.000  -0.000  -9.919
 total augmentation occupancy for first ion, spin component:           1
  8.451  -3.031  -0.000  -0.002  -0.000   0.000   0.001   0.000
 -3.031   1.122   0.000   0.001  -0.000  -0.000  -0.000   0.000
 -0.000   0.000   7.733  -0.008   0.000  -2.679   0.003  -0.000
 -0.002   0.001  -0.008   3.531  -0.000   0.003  -0.988   0.000
 -0.000  -0.000   0.000  -0.000   7.732  -0.000   0.000  -2.678
  0.000  -0.000  -2.679   0.003  -0.000   0.941  -0.001   0.000
  0.001  -0.000   0.003  -0.988   0.000  -0.001   0.282  -0.000
  0.000   0.000  -0.000   0.000  -2.678   0.000  -0.000   0.941


------------------------ aborting loop because EDIFF is reached ----------------------------------------


    FORLOC:  cpu time    0.0502: real time    0.0508
    FORNL :  cpu time    0.7431: real time    0.7521
    FORCOR:  cpu time    0.2898: real time    0.2921
    OFIELD:  cpu time    0.0012: real time    0.0012

 ---------------------------------------------------------------------------------------------

         DFTD3 V3.0 Rev 1        
 IVDW         = 11
 DF revpbe    
 parameters
 VDW_S6       =    1.0000
 VDW_S8       =    1.0100
 VDW_SR       =    0.9230
 rs18     =    1.0000
 alpha6   =   14.0000
 alpha8   =   16.0000
 k1-k3    =   16.0000    1.3333   -4.0000
 VDW_RADIUS   =   50.2022 A
 VDW_CNRADIUS =   21.1671 A
 Edisp (eV)   -3.72126

 E6    (eV) :    -2.6534
 E8    (eV) :    -1.0679
 % E8        : 28.70
    FORVDW:  cpu time    0.1822: real time    0.1839

 VOLUME and BASIS-vectors are now :
 -----------------------------------------------------------------------------
  energy-cutoff  :     1000.00
  volume of cell :     2631.08
      direct lattice vectors                 reciprocal lattice vectors
    12.325000000  0.000000000  0.000000000     0.081135903  0.046843835  0.000000000
    -6.162500000 10.673763102  0.000000000     0.000000000  0.093687670  0.000000000
     0.000000000  0.000000000 20.000000000     0.000000000  0.000000000  0.050000000

  length of vectors
    12.325000000 12.325000000 20.000000000     0.093687670  0.093687670  0.050000000


 FORCES acting on ions:
    Electron-Ion                     Ewald-Force                    Non-Local-Force
 -----------------------------------------------------------------------------------------------
   0.592E+01 0.516E+01 0.211E+02   -.593E+01 -.515E+01 -.211E+02   0.990E-02 -.175E-02 0.871E-02
   0.894E+01 0.435E+01 0.256E+02   -.895E+01 -.435E+01 -.256E+02   0.122E-01 -.639E-02 -.635E-02
   0.400E+01 0.106E+02 0.294E+02   -.400E+01 -.106E+02 -.294E+02   -.123E-02 0.230E-01 0.108E-01
   0.555E+01 0.806E+01 0.401E+02   -.557E+01 -.806E+01 -.401E+02   0.219E-01 0.569E-02 0.116E-01
   0.634E+01 0.150E+01 0.213E+02   -.635E+01 -.149E+01 -.213E+02   0.331E-02 -.102E-01 -.176E-02
   0.655E+01 -.123E+01 0.216E+02   -.655E+01 0.123E+01 -.216E+02   -.850E-02 0.946E-03 -.106E-01
   0.102E+02 0.381E+01 0.365E+02   -.103E+02 -.380E+01 -.365E+02   0.264E-01 -.282E-01 -.412E-03
   0.991E+01 -.351E+01 0.380E+02   -.993E+01 0.353E+01 -.380E+02   0.541E-02 -.145E-01 -.161E-01
   -.467E+01 0.953E+01 0.296E+02   0.469E+01 -.954E+01 -.296E+02   -.929E-02 -.590E-02 -.121E-01
   -.744E+01 0.627E+01 0.388E+02   0.747E+01 -.629E+01 -.388E+02   -.427E-01 0.261E-01 0.392E-02
   0.162E+01 -.154E+01 0.181E+02   -.162E+01 0.154E+01 -.181E+02   0.594E-03 -.144E-02 -.423E-02
   0.136E+01 -.113E+01 0.171E+02   -.136E+01 0.113E+01 -.171E+02   -.112E-01 0.499E-02 0.274E-02
   0.397E+01 -.863E+01 0.416E+02   -.399E+01 0.864E+01 -.416E+02   0.440E-01 -.187E-01 -.125E-02
   0.212E+01 -.106E+02 0.303E+02   -.213E+01 0.106E+02 -.303E+02   0.132E-01 0.347E-03 -.220E-01
   -.569E+01 0.353E+01 0.207E+02   0.569E+01 -.353E+01 -.207E+02   0.864E-02 -.410E-02 -.111E-02
   -.799E+01 0.234E+01 0.230E+02   0.799E+01 -.234E+01 -.230E+02   -.528E-02 0.933E-02 -.146E-01
   -.958E+00 -.382E+00 0.165E+02   0.966E+00 0.379E+00 -.165E+02   -.454E-02 0.169E-02 0.113E-02
   0.472E+00 0.340E+01 0.173E+02   -.468E+00 -.340E+01 -.173E+02   -.599E-02 0.345E-02 0.919E-02
   -.157E+01 -.958E+01 0.250E+02   0.156E+01 0.958E+01 -.250E+02   0.130E-01 -.626E-02 0.196E-02
   -.779E+00 -.515E+01 0.189E+02   0.772E+00 0.515E+01 -.189E+02   0.407E-02 -.435E-02 -.162E-02
   0.899E+01 -.396E+01 0.271E+02   -.899E+01 0.396E+01 -.271E+02   0.167E-02 -.618E-02 -.304E-01
   0.579E+01 -.488E+01 0.228E+02   -.579E+01 0.488E+01 -.228E+02   -.757E-02 0.694E-02 -.124E-01
   -.191E+01 0.378E+01 0.467E+02   0.192E+01 -.379E+01 -.467E+02   -.188E-01 0.183E-01 0.338E-01
   -.273E+01 -.594E+01 0.455E+02   0.273E+01 0.595E+01 -.455E+02   0.174E-01 -.256E-01 0.202E-01
   0.293E+01 -.121E+01 0.182E+02   -.292E+01 0.121E+01 -.182E+02   -.384E-03 -.987E-03 -.827E-02
   0.615E+00 0.259E+01 0.183E+02   -.611E+00 -.259E+01 -.183E+02   -.936E-02 0.553E-02 0.124E-02
   -.107E+02 0.144E+01 0.317E+02   0.108E+02 -.145E+01 -.317E+02   0.117E-02 0.147E-01 -.863E-02
   -.102E+02 -.413E+01 0.298E+02   0.102E+02 0.413E+01 -.298E+02   -.201E-01 0.146E-01 0.532E-02
   0.347E+01 -.699E+01 0.236E+02   -.348E+01 0.699E+01 -.236E+02   0.979E-02 0.188E-02 -.159E-01
   0.313E+00 -.283E+01 0.192E+02   -.318E+00 0.283E+01 -.192E+02   -.241E-02 0.360E-02 -.756E-02
   -.776E+01 -.818E+01 0.347E+02   0.777E+01 0.819E+01 -.347E+02   -.217E-01 -.137E-01 0.607E-02
   -.500E+01 -.921E+01 0.261E+02   0.501E+01 0.922E+01 -.261E+02   0.621E-03 -.102E-01 0.990E-02
   0.373E+00 0.148E+01 0.170E+02   -.378E+00 -.148E+01 -.170E+02   0.896E-02 -.642E-02 0.465E-02
   0.991E+00 0.147E+01 0.180E+02   -.995E+00 -.147E+01 -.180E+02   -.759E-03 0.264E-02 -.480E-02
   -.400E+01 0.582E+00 0.193E+02   0.400E+01 -.585E+00 -.193E+02   0.477E-02 -.894E-03 0.562E-03
   -.350E+01 -.145E+01 0.189E+02   0.351E+01 0.144E+01 -.189E+02   -.831E-02 0.507E-02 -.240E-04
   -.691E+01 -.359E+01 0.214E+02   0.692E+01 0.358E+01 -.214E+02   -.852E-02 0.240E-02 0.263E-02
   -.425E+01 -.341E+01 0.186E+02   0.425E+01 0.341E+01 -.186E+02   -.814E-02 0.184E-02 0.100E-01
   -.392E+01 -.507E+01 0.197E+02   0.392E+01 0.508E+01 -.197E+02   -.682E-02 -.254E-02 0.751E-02
   -.590E+00 -.127E+01 0.174E+02   0.590E+00 0.127E+01 -.174E+02   0.264E-02 -.868E-03 0.858E-02
   0.147E+01 0.361E+01 0.180E+02   -.147E+01 -.362E+01 -.180E+02   -.476E-02 0.518E-02 0.834E-02
   0.466E+01 0.729E+01 0.221E+02   -.466E+01 -.730E+01 -.221E+02   0.394E-02 0.355E-02 0.125E-01
   0.396E+00 0.621E+01 0.194E+02   -.388E+00 -.621E+01 -.194E+02   -.483E-02 0.517E-02 0.276E-03
   -.799E-01 0.103E+02 0.263E+02   0.917E-01 -.103E+02 -.263E+02   -.166E-01 0.799E-02 0.610E-02
   -.117E+01 0.229E+01 0.191E+02   0.118E+01 -.229E+01 -.191E+02   0.269E-02 -.348E-02 -.437E-02
   -.469E+01 0.583E+01 0.224E+02   0.469E+01 -.584E+01 -.224E+02   -.105E-01 0.184E-02 -.107E-01
   -.942E+00 -.253E+01 0.180E+02   0.938E+00 0.253E+01 -.180E+02   0.105E-01 -.257E-02 0.256E-02
   -.230E+01 0.897E+00 0.173E+02   0.230E+01 -.895E+00 -.173E+02   0.668E-04 0.208E-02 -.704E-02
   0.219E+00 -.158E+01 0.171E+02   -.222E+00 0.158E+01 -.171E+02   0.678E-02 -.410E-02 0.606E-02
   0.249E+01 0.180E+01 0.173E+02   -.250E+01 -.180E+01 -.173E+02   0.427E-02 0.953E-03 0.309E-02
   0.388E-01 -.198E-01 -.304E+03   -.428E-01 0.234E-01 0.304E+03   -.348E-02 0.228E-02 -.151E-02
   -.229E+03 0.156E+03 -.468E+03   0.279E+03 -.190E+03 0.472E+03   -.510E+02 0.347E+02 -.340E+01
   0.229E+03 -.156E+03 -.449E+03   -.279E+03 0.190E+03 0.446E+03   0.510E+02 -.347E+02 0.310E+01
 -----------------------------------------------------------------------------------------------
   -.332E-02 0.111E-01 0.309E+00   0.000E+00 0.568E-13 0.000E+00   0.300E-02 -.110E-01 -.308E+00
 
 
 POSITION                                       TOTAL-FORCE (eV/Angst)
 -----------------------------------------------------------------------------------
     11.98348      0.00342      0.01417         0.002929     -0.000687     -0.000411
     -0.34154      1.42665      0.01100        -0.001573      0.000100     -0.001951
      2.12355      0.00315      0.01249        -0.000704      0.007843     -0.003584
      2.12326      1.42653      0.00641         0.010099      0.001203     -0.002941
     10.75099      2.13819      0.01213         0.000361     -0.004884      0.000620
     -1.57382      3.56123      0.01110        -0.007057      0.005396     -0.000895
      0.89078      2.13854      0.00548         0.007350     -0.014832      0.004636
      0.89099      3.56147      0.00181        -0.012360     -0.001024      0.012673
      4.58864      0.00346      0.01135         0.004421     -0.015702     -0.002031
      4.58894      1.42623      0.00646        -0.019300      0.010995      0.016210
      9.51854      4.27281      0.01369         0.007030     -0.003784      0.000537
     -2.80632      5.69591      0.01434        -0.006309      0.003311      0.001090
      2.12300      4.27302      0.00000         0.019956     -0.003863      0.021976
      2.12335      5.69594      0.00581        -0.001511      0.009004     -0.001441
      7.05344      0.00333      0.01399         0.008262     -0.004500      0.000261
      7.05353      1.42635      0.01368        -0.002128      0.004589     -0.002704
      8.28610      6.40752      0.01601         0.003456     -0.001591     -0.000373
     -4.03885      7.83070      0.01636        -0.001773      0.001071      0.000297
      3.35586      6.40753      0.01007         0.003500      0.000001     -0.000577
      3.35599      7.83072      0.01320        -0.003438      0.000506     -0.000095
     -0.34146      4.27290      0.00723        -0.000940     -0.001549     -0.003499
     -0.34138      5.69591      0.00946        -0.008205      0.005008     -0.000484
      3.35624      2.13791      0.00222        -0.010106      0.009679      0.022006
      3.35573      3.56155      0.00139         0.010406     -0.013004      0.013923
     -1.57395      6.40758      0.01311         0.006639     -0.004277     -0.000315
     -1.57385      7.83068      0.01438        -0.004596      0.003818      0.000529
      5.82093      2.13784      0.01033         0.016179      0.004018     -0.001364
      5.82114      3.56097      0.01156        -0.004886      0.005813     -0.001803
      0.89092      6.40755      0.00907         0.004212      0.001394     -0.001425
      0.89106      7.83068      0.01235        -0.007192      0.002736      0.000675
      4.58871      4.27293      0.00850        -0.009828     -0.005925     -0.006810
      4.58852      5.69606      0.01149         0.001424      0.000875     -0.002299
      9.51845      0.00337      0.01490         0.004582     -0.004593      0.000535
      9.51855      1.42644      0.01438        -0.004890      0.006130      0.000046
      8.28593      2.13803      0.01453         0.005461     -0.003927      0.001064
      8.28613      3.56115      0.01464        -0.004168      0.001840      0.000508
      7.05356      4.27269      0.01457         0.003460     -0.001010      0.000366
      7.05362      5.69588      0.01553        -0.002309      0.001005      0.000333
      5.82112      6.40755      0.01489        -0.002145      0.001808      0.000606
      5.82102      7.83073      0.01579         0.002491      0.000638      0.000074
      7.05363      8.54227      0.01631        -0.004397      0.000623      0.001584
     -5.27149      9.96549      0.01495        -0.000835     -0.002443     -0.001076
     -2.80638      8.54234      0.01558         0.003457     -0.001798     -0.000367
     -2.80627      9.96553      0.01362        -0.004404      0.000230     -0.002487
     -0.34149      8.54239      0.01378         0.005856     -0.003808      0.000688
     -0.34138      9.96550      0.01354        -0.005887      0.000634     -0.000334
      2.12343      8.54232      0.01336         0.005635     -0.001554      0.001092
      2.12354      9.96544      0.01469        -0.006170      0.004201     -0.001543
      4.58846      8.54235      0.01505         0.003500     -0.002908      0.001272
      4.58853      9.96550      0.01517        -0.003388      0.003288      0.000648
      3.04930      2.68154      4.45449        -0.007269      0.005778      0.002217
      4.02070      2.02068      4.51892        -0.251970      0.171069     -0.048095
      2.07767      3.34267      4.39504         0.259077     -0.176943     -0.017561
 -----------------------------------------------------------------------------------
    total drift:                               -0.000320      0.000083      0.001105


--------------------------------------------------------------------------------------------------------



  FREE ENERGIE OF THE ION-ELECTRON SYSTEM (eV)
  ---------------------------------------------------
  free  energy   TOTEN  =      -470.60746703 eV

  energy  without entropy=     -470.60746703  energy(sigma->0) =     -470.60746703
 


--------------------------------------------------------------------------------------------------------


    POTLOK:  cpu time    0.2804: real time    0.2826


--------------------------------------------------------------------------------------------------------


     LOOP+:  cpu time  108.1311: real time  109.9026
    4ORBIT:  cpu time    0.0000: real time    0.0000

 total amount of memory used by VASP MPI-rank0   175916. kBytes
=======================================================================

   base      :      30000. kBytes
   nonl-proj :      46129. kBytes
   fftplans  :      35778. kBytes
   grid      :      52596. kBytes
   one-center:         43. kBytes
   wavefun   :      11370. kBytes
 
  
  
 General timing and accounting informations for this job:
 ========================================================
  
                  Total CPU time used (sec):      144.402
                            User time (sec):      133.918
                          System time (sec):       10.483
                         Elapsed time (sec):      147.945
  
                   Maximum memory used (kb):      519180.
                   Average memory used (kb):          N/A
  
                          Minor page faults:        52814
                          Major page faults:           96
                 Voluntary context switches:         3536
