 vasp.6.2.1 16May21 (build Nov 06 2021 14:46:37) complex                        
  
 executed on             LinuxIFC date 2025.03.03  17:23:14
 running on  112 total cores
 distrk:  each k-point on  112 cores,    1 groups
 distr:  one band on NCORE=   4 cores,   28 groups


--------------------------------------------------------------------------------------------------------


 INCAR:
   ALGO = Conjugate
   NCORE = 4
   ISMEAR = 0
   SIGMA = 0.01
   PREC = Accurate
   EDIFF = 1E-6
   ENCUT = 1000
   ISIF = 0
   GGA = RE
   IVDW = 11
   LWAVE = .FALSE.
   LCHARGE = .FALSE.
   SYMPREC = 1E-6

 POTCAR:    PAW_PBE C_h 06Feb2004                 
 POTCAR:    PAW_PBE O_h 06Feb2004                 
 -----------------------------------------------------------------------------
|                                                                             |
|           W    W    AA    RRRRR   N    N  II  N    N   GGGG   !!!           |
|           W    W   A  A   R    R  NN   N  II  NN   N  G    G  !!!           |
|           W    W  A    A  R    R  N N  N  II  N N  N  G       !!!           |
|           W WW W  AAAAAA  RRRRR   N  N N  II  N  N N  G  GGG   !            |
|           WW  WW  A    A  R   R   N   NN  II  N   NN  G    G                |
|           W    W  A    A  R    R  N    N  II  N    N   GGGG   !!!           |
|                                                                             |
|     For optimal performance we recommend to set                             |
|       NCORE = 2 up to number-of-cores-per-socket                            |
|     NCORE specifies how many cores store one orbital (NPAR=cpu/NCORE).      |
|     This setting can greatly improve the performance of VASP for DFT.       |
|     The default, NCORE=1 might be grossly inefficient on modern             |
|     multi-core architectures or massively parallel machines. Do your        |
|     own testing! More info at https://www.vasp.at/wiki/index.php/NCORE      |
|     Unfortunately you need to use the default for GW and RPA                |
|     calculations (for HF NCORE is supported but not extensively tested      |
|     yet).                                                                   |
|                                                                             |
 -----------------------------------------------------------------------------

 POTCAR:    PAW_PBE C_h 06Feb2004                 
   VRHFIN =C: s2p2                                                                                  
   LEXCH  = PE                                                                                      
   EATOM  =   147.1560 eV,   10.8157 Ry                                                             
                                                                                                    
   TITEL  = PAW_PBE C_h 06Feb2004                                                                   
   LULTRA =        F    use ultrasoft PP ?                                                          
   IUNSCR =        1    unscreen: 0-lin 1-nonlin 2-no                                               
   RPACOR =    0.800    partial core radius                                                         
   POMASS =   12.011; ZVAL   =    4.000    mass and valenz                                          
   RCORE  =    1.100    outmost cutoff radius                                                       
   RWIGS  =    1.630; RWIGS  =    0.863    wigner-seitz radius (au A)                               
   ENMAX  =  700.000; ENMIN  =  500.000 eV                                                          
   ICORE  =        2    local potential                                                             
   LCOR   =        T    correct aug charges                                                         
   LPAW   =        T    paw PP                                                                      
   EAUG   =  946.768                                                                                
   DEXC   =    0.000                                                                                
   RMAX   =    1.128    core radius for proj-oper                                                   
   RAUG   =    1.300    factor for augmentation sphere                                              
   RDEP   =    1.162    radius for radial grids                                                     
   RDEPT  =    1.088    core radius for aug-charge                                                  
                                                                                                    
   Atomic configuration                                                                             
    4 entries                                                                                       
     n  l   j            E        occ.                                                              
     1  0  0.50      -273.3789   2.0000                                                             
     2  0  0.50       -13.7508   2.0000                                                             
     2  1  0.50        -5.2854   2.0000                                                             
     3  2  1.50        -5.4423   0.0000                                                             
   Description                                                                                      
     l       E           TYP  RCUT    TYP  RCUT                                                     
     0    -13.7508458     23  1.100                                                                 
     0     -8.2022199     23  1.100                                                                 
     1     -5.2854383     23  1.100                                                                 
     1      1.1560700     23  1.100                                                                 
     2     -5.4423304      7  1.100                                                                 
  local pseudopotential read in
  partial core-charges read in
  partial kinetic energy density read in
  atomic valenz-charges read in
  non local Contribution for L=           0  read in
    real space projection operators read in
  non local Contribution for L=           0  read in
    real space projection operators read in
  non local Contribution for L=           1  read in
    real space projection operators read in
  non local Contribution for L=           1  read in
    real space projection operators read in
    PAW grid and wavefunctions read in
 
   number of l-projection  operators is LMAX  =           4
   number of lm-projection operators is LMMAX =           8
 
 POTCAR:    PAW_PBE O_h 06Feb2004                 
   VRHFIN =O: s2p4                                                                                  
   LEXCH  = PE                                                                                      
   EATOM  =   432.3788 eV,   31.7789 Ry                                                             
                                                                                                    
   TITEL  = PAW_PBE O_h 06Feb2004                                                                   
   LULTRA =        F    use ultrasoft PP ?                                                          
   IUNSCR =        1    unscreen: 0-lin 1-nonlin 2-no                                               
   RPACOR =    0.800    partial core radius                                                         
   POMASS =   16.000; ZVAL   =    6.000    mass and valenz                                          
   RCORE  =    1.100    outmost cutoff radius                                                       
   RWIGS  =    1.400; RWIGS  =    0.741    wigner-seitz radius (au A)                               
   ENMAX  =  700.000; ENMIN  =  500.000 eV                                                          
   ICORE  =        2    local potential                                                             
   LCOR   =        T    correct aug charges                                                         
   LPAW   =        T    paw PP                                                                      
   EAUG   =  888.804                                                                                
   DEXC   =    0.000                                                                                
   RMAX   =    1.128    core radius for proj-oper                                                   
   RAUG   =    1.300    factor for augmentation sphere                                              
   RDEP   =    1.125    radius for radial grids                                                     
   RDEPT  =    1.088    core radius for aug-charge                                                  
                                                                                                    
   Atomic configuration                                                                             
    4 entries                                                                                       
     n  l   j            E        occ.                                                              
     1  0  0.50      -514.6923   2.0000                                                             
     2  0  0.50       -23.9615   2.0000                                                             
     2  1  0.50        -9.0305   4.0000                                                             
     3  2  1.50        -9.5241   0.0000                                                             
   Description                                                                                      
     l       E           TYP  RCUT    TYP  RCUT                                                     
     0    -23.9615319     23  1.100                                                                 
     0    -25.3221145     23  1.100                                                                 
     1     -9.0304911     23  1.100                                                                 
     1     -5.4802209     23  1.100                                                                 
     2     -9.5240782      7  1.100                                                                 
  local pseudopotential read in
  partial core-charges read in
  partial kinetic energy density read in
  atomic valenz-charges read in
  non local Contribution for L=           0  read in
    real space projection operators read in
  non local Contribution for L=           0  read in
    real space projection operators read in
  non local Contribution for L=           1  read in
    real space projection operators read in
  non local Contribution for L=           1  read in
    real space projection operators read in
    PAW grid and wavefunctions read in
 
   number of l-projection  operators is LMAX  =           4
   number of lm-projection operators is LMMAX =           8
 
 -----------------------------------------------------------------------------
|                                                                             |
|               ----> ADVICE to this user running VASP <----                  |
|                                                                             |
|     You have a (more or less) 'large supercell' and for larger cells it     |
|     might be more efficient to use real-space projection operators.         |
|     Therefore, try LREAL= Auto in the INCAR file.                           |
|     Mind: For very accurate calculation, you might also keep the            |
|     reciprocal projection scheme (i.e. LREAL=.FALSE.).                      |
|                                                                             |
 -----------------------------------------------------------------------------

 -----------------------------------------------------------------------------
|                                                                             |
|               ----> ADVICE to this user running VASP <----                  |
|                                                                             |
|     You enforced a specific xc type in the INCAR file but a different       |
|     type was found in the POTCAR file.                                      |
|     I HOPE YOU KNOW WHAT YOU ARE DOING!                                     |
|                                                                             |
 -----------------------------------------------------------------------------

  PAW_PBE C_h 06Feb2004                 :
 energy of atom  1       EATOM= -147.1560
 kinetic energy error for atom=    0.0031 (will be added to EATOM!!)
  PAW_PBE O_h 06Feb2004                 :
 energy of atom  2       EATOM= -432.3788
 kinetic energy error for atom=    0.0171 (will be added to EATOM!!)
 
 
 POSCAR:  C  O
  positions in cartesian coordinates
  No initial velocities read in
 exchange correlation table for  LEXCH =       40
   RHO(1)=    0.500       N(1)  =     2000
   RHO(2)=  100.500       N(2)  =     4000
 


--------------------------------------------------------------------------------------------------------


 ion  position               nearest neighbor table
   1  0.972  0.000  0.001-  50 1.42   2 1.42  42 1.42
   2  0.039  0.134  0.001-   5 1.42   7 1.42   1 1.42
   3  0.172  0.000  0.001-  42 1.42  44 1.42   4 1.42
   4  0.239  0.134  0.000-   7 1.42   3 1.42  23 1.42
   5  0.972  0.200  0.001-   6 1.42   2 1.42  34 1.42
   6  0.039  0.334  0.001-   5 1.42  21 1.42  11 1.42
   7  0.172  0.200  0.000-   8 1.42   2 1.42   4 1.42
   8  0.239  0.334  0.000-  13 1.42   7 1.42  21 1.42
   9  0.372  0.000  0.001-  10 1.42  44 1.42  46 1.42
  10  0.439  0.134  0.000-  27 1.42   9 1.42  23 1.42
  11  0.972  0.400  0.001-  12 1.42  36 1.42   6 1.42
  12  0.039  0.534  0.001-  25 1.42  11 1.42  17 1.42
  13  0.372  0.400  0.000-   8 1.42  14 1.42  24 1.42
  14  0.439  0.534  0.000-  13 1.42  29 1.42  19 1.42
  15  0.572  0.000  0.001-  46 1.42  16 1.42  48 1.42
  16  0.639  0.134  0.001-  15 1.42  35 1.42  27 1.42
  17  0.972  0.600  0.001-  38 1.42  18 1.42  12 1.42
  18  0.039  0.734  0.001-  43 1.42  41 1.42  17 1.42
  19  0.572  0.600  0.001-  14 1.42  20 1.42  32 1.42
  20  0.639  0.734  0.001-  49 1.42  19 1.42  47 1.42
  21  0.172  0.400  0.000-  22 1.42   8 1.42   6 1.42
  22  0.239  0.534  0.000-  21 1.42  29 1.42  25 1.42
  23  0.372  0.200  0.000-  10 1.42   4 1.42  24 1.42
  24  0.439  0.334  0.000-  13 1.42  31 1.42  23 1.42
  25  0.172  0.600  0.001-  26 1.42  12 1.42  22 1.42
  26  0.239  0.734  0.001-  25 1.42  45 1.42  43 1.42
  27  0.572  0.200  0.001-  10 1.42  28 1.42  16 1.42
  28  0.639  0.334  0.001-  27 1.42  37 1.42  31 1.42
  29  0.372  0.600  0.000-  22 1.42  14 1.42  30 1.42
  30  0.439  0.734  0.001-  47 1.42  29 1.42  45 1.42
  31  0.572  0.400  0.000-  32 1.42  28 1.42  24 1.42
  32  0.639  0.534  0.001-  31 1.42  39 1.42  19 1.42
  33  0.772  0.000  0.001-  34 1.42  48 1.42  50 1.42
  34  0.839  0.134  0.001-  33 1.42   5 1.42  35 1.42
  35  0.772  0.200  0.001-  36 1.42  16 1.42  34 1.42
  36  0.839  0.334  0.001-  35 1.42  11 1.42  37 1.42
  37  0.772  0.400  0.001-  28 1.42  38 1.42  36 1.42
  38  0.839  0.534  0.001-  17 1.42  37 1.42  39 1.42
  39  0.772  0.600  0.001-  40 1.42  38 1.42  32 1.42
  40  0.839  0.734  0.001-  39 1.42  49 1.42  41 1.42
  41  0.972  0.800  0.001-  18 1.42  42 1.42  40 1.42
  42  0.039  0.934  0.001-   3 1.42  41 1.42   1 1.42
  43  0.172  0.800  0.001-  18 1.42  44 1.42  26 1.42
  44  0.239  0.934  0.001-   9 1.42  43 1.42   3 1.42
  45  0.372  0.800  0.001-  26 1.42  46 1.42  30 1.42
  46  0.439  0.934  0.001-  15 1.42  45 1.42   9 1.42
  47  0.572  0.800  0.001-  30 1.42  48 1.42  20 1.42
  48  0.639  0.934  0.001-  47 1.42  33 1.42  15 1.42
  49  0.772  0.800  0.001-  50 1.42  20 1.42  40 1.42
  50  0.839  0.934  0.001-  49 1.42   1 1.42  33 1.42
  51  0.373  0.251  0.177-  52 1.18  53 1.18
  52  0.421  0.189  0.180-  51 1.18
  53  0.325  0.313  0.174-  51 1.18
 
  LATTYP: Found a hexagonal cell.
 ALAT       =    12.3250000000
 C/A-ratio  =     1.6227180527
  
  Lattice vectors:
  
 A1 = (  12.3250000000,   0.0000000000,   0.0000000000)
 A2 = (  -6.1625000000,  10.6737631016,   0.0000000000)
 A3 = (   0.0000000000,   0.0000000000,  20.0000000000)


Analysis of symmetry for initial positions (statically):
=====================================================================
 Subroutine PRICEL returns:
 Original cell was already a primitive cell.
 

 Routine SETGRP: Setting up the symmetry group for a 
 hexagonal supercell.


 Subroutine GETGRP returns: Found  1 space group operations
 (whereof  1 operations were pure point group operations)
 out of a pool of 24 trial point group operations.


The static configuration has the point symmetry C_1 .


Analysis of symmetry for dynamics (positions and initial velocities):
=====================================================================
 Subroutine PRICEL returns:
 Original cell was already a primitive cell.
 

 Routine SETGRP: Setting up the symmetry group for a 
 hexagonal supercell.


 Subroutine GETGRP returns: Found  1 space group operations
 (whereof  1 operations were pure point group operations)
 out of a pool of 24 trial point group operations.


The dynamic configuration has the point symmetry C_1 .


 Subroutine INISYM returns: Found  1 space group operations
 (whereof  1 operations are pure point group operations),
 and found     1 'primitive' translations


----------------------------------------------------------------------------------------

                                     Primitive cell                                     

  volume of cell :    2631.0826

  direct lattice vectors                    reciprocal lattice vectors
    12.325000000  0.000000000  0.000000000     0.081135903  0.046843835  0.000000000
    -6.162500000 10.673763102  0.000000000     0.000000000  0.093687670  0.000000000
     0.000000000  0.000000000 20.000000000     0.000000000  0.000000000  0.050000000

  length of vectors
    12.325000000 12.325000000 20.000000000     0.093687670  0.093687670  0.050000000

  position of ions in fractional coordinates (direct lattice)
     0.972450841  0.000320818  0.000708389
     0.039118382  0.133659505  0.000550216
     0.172443627  0.000295449  0.000624535
     0.239096278  0.133647917  0.000320585
     0.972452058  0.200322012  0.000606523
     0.039128360  0.333643771  0.000555187
     0.172451764  0.200354552  0.000273959
     0.239124359  0.333665720  0.000090325
     0.372465565  0.000324403  0.000567391
     0.439137473  0.133619939  0.000322923
     0.972449824  0.400309362  0.000684513
     0.039124981  0.533636789  0.000716763
     0.372416176  0.400329481  0.000000000
     0.439099602  0.533638981  0.000290518
     0.572443676  0.000312125  0.000699475
     0.639110207  0.133631751  0.000684093
     0.972452703  0.600305653  0.000800361
     0.039124495  0.733640359  0.000818141
     0.572433471  0.600306242  0.000503618
     0.639111888  0.733641879  0.000659881
     0.172454630  0.400318228  0.000361306
     0.239120185  0.533636548  0.000473136
     0.372459750  0.200295993  0.000111246
     0.439107096  0.333673419  0.000069702
     0.172452155  0.600311506  0.000655425
     0.239123371  0.733638574  0.000718912
     0.572431082  0.200289171  0.000516621
     0.639112773  0.333618630  0.000577970
     0.372439808  0.600308022  0.000453556
     0.439116090  0.733637858  0.000617737
     0.572469358  0.400320504  0.000424897
     0.639119408  0.533650873  0.000574513
     0.772445723  0.000315427  0.000745201
     0.839116277  0.133640203  0.000719132
     0.772440513  0.200307432  0.000726291
     0.839120241  0.333635728  0.000731834
     0.772446320  0.400298367  0.000728722
     0.839118980  0.533633964  0.000776376
     0.772456143  0.600308173  0.000744639
     0.839115033  0.733643180  0.000789390
     0.972455313  0.800305582  0.000815291
     0.039114714  0.933643289  0.000747563
     0.172457971  0.800312211  0.000779216
     0.239134551  0.933647193  0.000681063
     0.372451396  0.800316674  0.000689249
     0.439124489  0.933644769  0.000676788
     0.572441101  0.800310054  0.000668168
     0.639115067  0.933638985  0.000734556
     0.772445098  0.800313187  0.000752577
     0.839116614  0.933644338  0.000758538
     0.373021009  0.251226878  0.176776696
     0.420879805  0.189313152  0.179997789
     0.325156981  0.313167186  0.173803952

  ion indices of the primitive-cell ions
   primitive index   ion index
                 1           1
                 2           2
                 3           3
                 4           4
                 5           5
                 6           6
                 7           7
                 8           8
                 9           9
                10          10
                11          11
                12          12
                13          13
                14          14
                15          15
                16          16
                17          17
                18          18
                19          19
                20          20
                21          21
                22          22
                23          23
                24          24
                25          25
                26          26
                27          27
                28          28
                29          29
                30          30
                31          31
                32          32
                33          33
                34          34
                35          35
                36          36
                37          37
                38          38
                39          39
                40          40
                41          41
                42          42
                43          43
                44          44
                45          45
                46          46
                47          47
                48          48
                49          49
                50          50
                51          51
                52          52
                53          53

----------------------------------------------------------------------------------------

 
 
 KPOINTS: auto                                    

Automatic generation of k-mesh.
 Grid dimensions read from file:
 generate k-points for:    1    1    1

 Generating k-lattice:

  Cartesian coordinates                     Fractional coordinates (reciprocal lattice)
     0.081135903  0.046843835  0.000000000     1.000000000 -0.000000000  0.000000000
     0.000000000  0.093687670  0.000000000     0.000000000  1.000000000  0.000000000
     0.000000000  0.000000000  0.050000000     0.000000000  0.000000000  1.000000000

  Length of vectors
     0.093687670  0.093687670  0.050000000

  Shift w.r.t. Gamma in fractional coordinates (k-lattice)
     0.000000000  0.000000000  0.000000000

 
 Subroutine IBZKPT returns following result:
 ===========================================
 
 Found      1 irreducible k-points:
 
 Following reciprocal coordinates:
            Coordinates               Weight
  0.000000  0.000000  0.000000      1.000000
 
 Following cartesian coordinates:
            Coordinates               Weight
  0.000000  0.000000  0.000000      1.000000
 


--------------------------------------------------------------------------------------------------------




 Dimension of arrays:
   k-points           NKPTS =      1   k-points in BZ     NKDIM =      1   number of bands    NBANDS=    140
   number of dos      NEDOS =    301   number of ions     NIONS =     53
   non local maximal  LDIM  =      4   non local SUM 2l+1 LMDIM =      8
   total plane-waves  NPLWV = ******
   max r-space proj   IRMAX =      1   max aug-charges    IRDMAX=   9736
   dimension x,y,z NGX =   128 NGY =  128 NGZ =  210
   dimension x,y,z NGXF=   256 NGYF=  256 NGZF=  420
   support grid    NGXF=   256 NGYF=  256 NGZF=  420
   ions per type =              51   2
   NGX,Y,Z   is equivalent  to a cutoff of  17.27, 17.27, 17.46 a.u.
   NGXF,Y,Z  is equivalent  to a cutoff of  34.53, 34.53, 34.91 a.u.

 SYSTEM =  unknown system                          
 POSCAR =   C  O                                   

 Startparameter for this run:
   NWRITE =      2    write-flag & timer
   PREC   = accura    normal or accurate (medium, high low for compatibility)
   ISTART =      0    job   : 0-new  1-cont  2-samecut
   ICHARG =      2    charge: 1-file 2-atom 10-const
   ISPIN  =      1    spin polarized calculation?
   LNONCOLLINEAR =      F non collinear calculations
   LSORBIT =      F    spin-orbit coupling
   INIWAV =      1    electr: 0-lowe 1-rand  2-diag
   LASPH  =      F    aspherical Exc in radial PAW
 Electronic Relaxation 1
   ENCUT  = 1000.0 eV  73.50 Ry    8.57 a.u.  31.78 31.78 51.57*2*pi/ulx,y,z
   ENINI  = 1000.0     initial cutoff
   ENAUG  =  946.8 eV  augmentation charge cutoff
   NELM   =     60;   NELMIN=  2; NELMDL= -5     # of ELM steps 
   EDIFF  = 0.1E-05   stopping-criterion for ELM
   LREAL  =      F    real-space projection
   NLSPLINE    = F    spline interpolate recip. space projectors
   LCOMPAT=      F    compatible to vasp.4.4
   GGA_COMPAT  = T    GGA compatible to vasp.4.4-vasp.4.6
   LMAXPAW     = -100 max onsite density
   LMAXMIX     =    2 max onsite mixed and CHGCAR
   VOSKOWN=      0    Vosko Wilk Nusair interpolation
   ROPT   =    0.00000   0.00000
 Ionic relaxation
   EDIFFG = 0.1E-04   stopping-criterion for IOM
   NSW    =      0    number of steps for IOM
   NBLOCK =      1;   KBLOCK =      1    inner block; outer block 
   IBRION =     -1    ionic relax: 0-MD 1-quasi-New 2-CG
   NFREE  =      0    steps in history (QN), initial steepest desc. (CG)
   ISIF   =      0    stress and relaxation
   IWAVPR =     10    prediction:  0-non 1-charg 2-wave 3-comb
   ISYM   =      2    0-nonsym 1-usesym 2-fastsym
   LCORR  =      T    Harris-Foulkes like correction to forces

   POTIM  = 0.5000    time-step for ionic-motion
   TEIN   =    0.0    initial temperature
   TEBEG  =    0.0;   TEEND  =   0.0 temperature during run
   SMASS  =  -3.00    Nose mass-parameter (am)
   estimated Nose-frequenzy (Omega)   =  0.10E-29 period in steps = 0.13E+47 mass=  -0.347E-26a.u.
   SCALEE = 1.0000    scale energy and forces
   NPACO  =    256;   APACO  = 16.0  distance and # of slots for P.C.
   PSTRESS=    0.0 pullay stress

  Mass of Ions in am
   POMASS =  12.01 16.00
  Ionic Valenz
   ZVAL   =   4.00  6.00
  Atomic Wigner-Seitz radii
   RWIGS  =  -1.00 -1.00
  virtual crystal weights 
   VCA    =   1.00  1.00
   NELECT =     216.0000    total number of electrons
   NUPDOWN=      -1.0000    fix difference up-down

 DOS related values:
   EMIN   =  10.00;   EMAX   =-10.00  energy-range for DOS
   EFERMI =   0.00
   ISMEAR =     0;   SIGMA  =   0.01  broadening in eV -4-tet -1-fermi 0-gaus

 Electronic relaxation 2 (details)
   IALGO  =     58    algorithm
   LDIAG  =      T    sub-space diagonalisation (order eigenvalues)
   LSUBROT=      F    optimize rotation matrix (better conditioning)
   TURBO    =      0    0=normal 1=particle mesh
   IRESTART =      0    0=no restart 2=restart with 2 vectors
   NREBOOT  =      0    no. of reboots
   NMIN     =      0    reboot dimension
   EREF     =   0.00    reference energy to select bands
   IMIX   =      4    mixing-type and parameters
     AMIX     =   0.40;   BMIX     =  1.00
     AMIX_MAG =   1.60;   BMIX_MAG =  1.00
     AMIN     =   0.10
     WC   =   100.;   INIMIX=   1;  MIXPRE=   1;  MAXMIX= -45

 Intra band minimization:
   WEIMIN = 0.0000     energy-eigenvalue tresh-hold
   EBREAK =  0.18E-08  absolut break condition
   DEPER  =   0.30     relativ break condition  

   TIME   =   0.40     timestep for ELM

  volume/ion in A,a.u.               =      49.64       335.01
  Fermi-wavevector in a.u.,A,eV,Ry     =   0.711510  1.344560  6.887909  0.506247
  Thomas-Fermi vector in A             =   1.798641
 
 Write flags
   LWAVE        =      F    write WAVECAR
   LDOWNSAMPLE  =      F    k-point downsampling of WAVECAR
   LCHARG       =      T    write CHGCAR
   LVTOT        =      F    write LOCPOT, total local potential
   LVHAR        =      F    write LOCPOT, Hartree potential only
   LELF         =      F    write electronic localiz. function (ELF)
   LORBIT       =      0    0 simple, 1 ext, 2 COOP (PROOUT), +10 PAW based schemes


 Dipole corrections
   LMONO  =      F    monopole corrections only (constant potential shift)
   LDIPOL =      F    correct potential (dipole corrections)
   IDIPOL =      0    1-x, 2-y, 3-z, 4-all directions 
   EPSILON=  1.0000000 bulk dielectric constant

 Exchange correlation treatment:
   GGA     =    RE    GGA type
   LEXCH   =    40    internal setting for exchange type
   VOSKOWN=      0    Vosko Wilk Nusair interpolation
   LHFCALC =     F    Hartree Fock is set to
   LHFONE  =     F    Hartree Fock one center treatment
   AEXX    =    0.0000 exact exchange contribution

 Linear response parameters
   LEPSILON=     F    determine dielectric tensor
   LRPA    =     F    only Hartree local field effects (RPA)
   LNABLA  =     F    use nabla operator in PAW spheres
   LVEL    =     F    velocity operator in full k-point grid
   LINTERFAST=   F  fast interpolation
   KINTER  =     0    interpolate to denser k-point grid
   CSHIFT  =0.1000    complex shift for real part using Kramers Kronig
   OMEGAMAX=  -1.0    maximum frequency
   DEG_THRESHOLD= 0.2000000E-02 threshold for treating states as degnerate
   RTIME   =   -0.100 relaxation time in fs
  (WPLASMAI=    0.000 imaginary part of plasma frequency in eV, 0.658/RTIME)
   DFIELD  = 0.0000000 0.0000000 0.0000000 field for delta impulse in time
 
 Orbital magnetization related:
   ORBITALMAG=     F  switch on orbital magnetization
   LCHIMAG   =     F  perturbation theory with respect to B field
   DQ        =  0.001000  dq finite difference perturbation B field
   LLRAUG    =     F  two centre corrections for induced B field



--------------------------------------------------------------------------------------------------------


 Static calculation
 charge density and potential will be updated during run
 non-spin polarized calculation
 Conjugate gradient for all bands (Freysoldt, et al. PRB 79, 241103 (2009))
 preconditioned conjugated gradient                                        
 perform sub-space diagonalisation
    before iterative eigenvector-optimisation
 modified Broyden-mixing scheme, WC =      100.0
 initial mixing is a Kerker type mixing with AMIX =  0.4000 and BMIX =      1.0000
 Hartree-type preconditioning will be used
 using additional bands           32
 reciprocal scheme for non local part
 use partial core corrections
 no Harris-corrections to forces 
 use gradient corrections 
 use of overlap-Matrix (Vanderbilt PP)
 Gauss-broadening in eV      SIGMA  =   0.01


--------------------------------------------------------------------------------------------------------


  energy-cutoff  :     1000.00
  volume of cell :     2631.08
      direct lattice vectors                 reciprocal lattice vectors
    12.325000000  0.000000000  0.000000000     0.081135903  0.046843835  0.000000000
    -6.162500000 10.673763102  0.000000000     0.000000000  0.093687670  0.000000000
     0.000000000  0.000000000 20.000000000     0.000000000  0.000000000  0.050000000

  length of vectors
    12.325000000 12.325000000 20.000000000     0.093687670  0.093687670  0.050000000


 
 k-points in units of 2pi/SCALE and weight: auto                                    
   0.00000000  0.00000000  0.00000000       1.000
 
 k-points in reciprocal lattice and weights: auto                                    
   0.00000000  0.00000000  0.00000000       1.000
 
 position of ions in fractional coordinates (direct lattice) 
   0.97245084  0.00032082  0.00070839
   0.03911838  0.13365950  0.00055022
   0.17244363  0.00029545  0.00062454
   0.23909628  0.13364792  0.00032058
   0.97245206  0.20032201  0.00060652
   0.03912836  0.33364377  0.00055519
   0.17245176  0.20035455  0.00027396
   0.23912436  0.33366572  0.00009033
   0.37246557  0.00032440  0.00056739
   0.43913747  0.13361994  0.00032292
   0.97244982  0.40030936  0.00068451
   0.03912498  0.53363679  0.00071676
   0.37241618  0.40032948  0.00000000
   0.43909960  0.53363898  0.00029052
   0.57244368  0.00031213  0.00069947
   0.63911021  0.13363175  0.00068409
   0.97245270  0.60030565  0.00080036
   0.03912449  0.73364036  0.00081814
   0.57243347  0.60030624  0.00050362
   0.63911189  0.73364188  0.00065988
   0.17245463  0.40031823  0.00036131
   0.23912018  0.53363655  0.00047314
   0.37245975  0.20029599  0.00011125
   0.43910710  0.33367342  0.00006970
   0.17245216  0.60031151  0.00065542
   0.23912337  0.73363857  0.00071891
   0.57243108  0.20028917  0.00051662
   0.63911277  0.33361863  0.00057797
   0.37243981  0.60030802  0.00045356
   0.43911609  0.73363786  0.00061774
   0.57246936  0.40032050  0.00042490
   0.63911941  0.53365087  0.00057451
   0.77244572  0.00031543  0.00074520
   0.83911628  0.13364020  0.00071913
   0.77244051  0.20030743  0.00072629
   0.83912024  0.33363573  0.00073183
   0.77244632  0.40029837  0.00072872
   0.83911898  0.53363396  0.00077638
   0.77245614  0.60030817  0.00074464
   0.83911503  0.73364318  0.00078939
   0.97245531  0.80030558  0.00081529
   0.03911471  0.93364329  0.00074756
   0.17245797  0.80031221  0.00077922
   0.23913455  0.93364719  0.00068106
   0.37245140  0.80031667  0.00068925
   0.43912449  0.93364477  0.00067679
   0.57244110  0.80031005  0.00066817
   0.63911507  0.93363899  0.00073456
   0.77244510  0.80031319  0.00075258
   0.83911661  0.93364434  0.00075854
   0.37302101  0.25122688  0.17677670
   0.42087980  0.18931315  0.17999779
   0.32515698  0.31316719  0.17380395
 
 position of ions in cartesian coordinates  (Angst):
  11.98347958  0.00342433  0.01416777
  -0.34154264  1.42664989  0.01100432
   2.12354700  0.00315355  0.01249070
   2.12325634  1.42652621  0.00641170
  10.75098721  2.13818970  0.01213047
  -1.57382270  3.56123457  0.01110375
   0.89078307  2.13853702  0.00547917
   0.89099273  3.56146885  0.00180651
   4.58863896  0.00346260  0.01134782
   4.58893648  1.42622757  0.00645846
   9.51853763  4.27280730  0.01369027
  -2.80632132  5.69591267  0.01433526
   2.12299894  4.27302204  0.00000000
   2.12335237  5.69593607  0.00581036
   7.05344483  0.00333155  0.01398950
   7.05352764  1.42635365  0.01368187
   8.28609598  6.40752033  0.01600723
  -4.03884931  7.83070339  0.01636283
   3.35585531  6.40752662  0.01007237
   3.35598594  7.83071962  0.01319763
  -0.34145776  4.27290193  0.00722612
  -0.34137895  5.69591010  0.00946273
   3.35624236  2.13791198  0.00222492
   3.35573251  3.56155103  0.00139405
  -1.57394684  6.40758280  0.01310850
  -1.57385216  7.83068434  0.01437823
   5.82093107  2.13783916  0.01033241
   5.82114012  3.56096622  0.01155939
   0.89092245  6.40754561  0.00907111
   0.89106251  7.83067670  0.01235474
   4.58870974  4.27292622  0.00849795
   4.58852320  5.69606300  0.01149026
   9.51844972  0.00336679  0.01490402
   9.51855036  1.42644387  0.01438264
   8.28593477  2.13803408  0.01452582
   8.28612680  3.56114872  0.01463668
   7.05356221  4.27268994  0.01457444
   7.05362213  5.69588251  0.01552751
   5.82112285  6.40754723  0.01489279
   5.82101669  7.83073350  0.01578780
   7.05362858  8.54227219  0.01630582
  -5.27148792  9.96548729  0.01495127
  -2.80637951  8.54234295  0.01558431
  -2.80626749  9.96552896  0.01362126
  -0.34148805  8.54239058  0.01378498
  -0.34137657  9.96550309  0.01353576
   2.12342586  8.54231992  0.01336337
   2.12354296  9.96544135  0.01469111
   4.58845581  8.54235337  0.01505154
   4.58852904  9.96549848  0.01517076
   3.04929830  2.68153618  3.53553391
   4.02070129  2.02068374  3.59995577
   2.07766701  3.34267235  3.47607904
 


--------------------------------------------------------------------------------------------------------


 k-point   1 :   0.0000 0.0000 0.0000  plane waves:  189031

 maximum and minimum number of plane-waves per node :     47262    47254

 maximum number of plane-waves:    189031
 maximum index in each direction: 
   IXMAX=   31   IYMAX=   31   IZMAX=   51
   IXMIN=  -31   IYMIN=  -31   IZMIN=  -51


 parallel 3D FFT for wavefunctions:
    minimum data exchange during FFTs selected (reduces bandwidth)
 parallel 3D FFT for charge:
    minimum data exchange during FFTs selected (reduces bandwidth)


 total amount of memory used by VASP MPI-rank0   175916. kBytes
=======================================================================

   base      :      30000. kBytes
   nonl-proj :      46129. kBytes
   fftplans  :      35778. kBytes
   grid      :      52596. kBytes
   one-center:         43. kBytes
   wavefun   :      11370. kBytes
 
     INWAV:  cpu time    0.0000: real time    0.0000
 Broyden mixing: mesh for mixing (old mesh)
   NGX = 63   NGY = 63   NGZ =103
  (NGX  =256   NGY  =256   NGZ  =420)
  gives a total of 408807 points

 initial charge density was supplied:
 charge density of overlapping atoms calculated
 number of electron     216.0000000 magnetization 
 keeping initial charge density in first step


--------------------------------------------------------------------------------------------------------


 Maximum index for augmentation-charges          459 (set IRDMAX)


--------------------------------------------------------------------------------------------------------


 First call to EWALD:  gamma=   0.128
 Maximum number of real-space cells 3x 3x 2
 Maximum number of reciprocal cells 3x 3x 4

    FEWALD:  cpu time    0.0026: real time    0.0026


--------------------------------------- Iteration      1(   1)  ---------------------------------------


    POTLOK:  cpu time    0.2942: real time    0.2968
    SETDIJ:  cpu time    0.0050: real time    0.0053
    TRIAL :  cpu time    4.2129: real time    4.2609
    CORREC:  cpu time    0.0005: real time    0.0007
    --------------------------------------------
      LOOP:  cpu time    4.5189: real time    4.5755

 eigenvalue-minimisations  :   280
 total energy-change (2. order) : 0.2680738E+04  (-0.1114223E+05)
 number of electron     216.0000000 magnetization 
 augmentation part      216.0000000 magnetization 

 Free energy of the ion-electron system (eV)
  ---------------------------------------------------
  alpha Z        PSCENC =        59.93625244
  Ewald energy   TEWEN  =     33820.06779040
  -Hartree energ DENC   =    -39995.28311885
  -exchange      EXHF   =         0.00000000
  -V(xc)+E(xc)   XCENC  =       416.00767650
  PAW double counting   =      6538.03749920    -6258.26020123
  entropy T*S    EENTRO =        -0.00000000
  eigenvalues    EBANDS =      -264.07690353
  atomic energy  EATOM  =      8364.30921166
  ---------------------------------------------------
  free energy    TOTEN  =      2680.73820659 eV

  energy without entropy =     2680.73820659  energy(sigma->0) =     2680.73820659


--------------------------------------------------------------------------------------------------------




--------------------------------------- Iteration      1(   2)  ---------------------------------------


    TRIAL :  cpu time    6.7245: real time    6.7945
    CORREC:  cpu time    0.0001: real time    0.0001
    --------------------------------------------
      LOOP:  cpu time    6.7562: real time    6.8307

 eigenvalue-minimisations  :   504
 total energy-change (2. order) :-0.2485954E+04  (-0.2363725E+04)
 number of electron     216.0000000 magnetization 
 augmentation part      216.0000000 magnetization 

 Free energy of the ion-electron system (eV)
  ---------------------------------------------------
  alpha Z        PSCENC =        59.93625244
  Ewald energy   TEWEN  =     33820.06779040
  -Hartree energ DENC   =    -39995.28311885
  -exchange      EXHF   =         0.00000000
  -V(xc)+E(xc)   XCENC  =       416.00767650
  PAW double counting   =      6538.03749920    -6258.26020123
  entropy T*S    EENTRO =        -0.00000000
  eigenvalues    EBANDS =     -2750.03121265
  atomic energy  EATOM  =      8364.30921166
  ---------------------------------------------------
  free energy    TOTEN  =       194.78389747 eV

  energy without entropy =      194.78389747  energy(sigma->0) =      194.78389747


--------------------------------------------------------------------------------------------------------




--------------------------------------- Iteration      1(   3)  ---------------------------------------


    TRIAL :  cpu time    5.1360: real time    5.1908
    CORREC:  cpu time    0.0001: real time    0.0001
    --------------------------------------------
      LOOP:  cpu time    5.2323: real time    5.2883

 eigenvalue-minimisations  :   364
 total energy-change (2. order) :-0.6602562E+03  (-0.6578938E+03)
 number of electron     216.0000000 magnetization 
 augmentation part      216.0000000 magnetization 

 Free energy of the ion-electron system (eV)
  ---------------------------------------------------
  alpha Z        PSCENC =        59.93625244
  Ewald energy   TEWEN  =     33820.06779040
  -Hartree energ DENC   =    -39995.28311885
  -exchange      EXHF   =         0.00000000
  -V(xc)+E(xc)   XCENC  =       416.00767650
  PAW double counting   =      6538.03749920    -6258.26020123
  entropy T*S    EENTRO =        -0.00000000
  eigenvalues    EBANDS =     -3410.28738889
  atomic energy  EATOM  =      8364.30921166
  ---------------------------------------------------
  free energy    TOTEN  =      -465.47227877 eV

  energy without entropy =     -465.47227877  energy(sigma->0) =     -465.47227877


--------------------------------------------------------------------------------------------------------




--------------------------------------- Iteration      1(   4)  ---------------------------------------


    TRIAL :  cpu time    5.4528: real time    5.5098
    CORREC:  cpu time    0.0001: real time    0.0001
    --------------------------------------------
      LOOP:  cpu time    5.5526: real time    5.6130

 eigenvalue-minimisations  :   392
 total energy-change (2. order) :-0.3234572E+02  (-0.3222342E+02)
 number of electron     216.0000000 magnetization 
 augmentation part      216.0000000 magnetization 

 Free energy of the ion-electron system (eV)
  ---------------------------------------------------
  alpha Z        PSCENC =        59.93625244
  Ewald energy   TEWEN  =     33820.06779040
  -Hartree energ DENC   =    -39995.28311885
  -exchange      EXHF   =         0.00000000
  -V(xc)+E(xc)   XCENC  =       416.00767650
  PAW double counting   =      6538.03749920    -6258.26020123
  entropy T*S    EENTRO =        -0.00000000
  eigenvalues    EBANDS =     -3442.63310525
  atomic energy  EATOM  =      8364.30921166
  ---------------------------------------------------
  free energy    TOTEN  =      -497.81799513 eV

  energy without entropy =     -497.81799513  energy(sigma->0) =     -497.81799513


--------------------------------------------------------------------------------------------------------




--------------------------------------- Iteration      1(   5)  ---------------------------------------


    TRIAL :  cpu time    5.7631: real time    5.8240
    CORREC:  cpu time    0.0001: real time    0.0002
    CHARGE:  cpu time    0.2338: real time    0.2375
    --------------------------------------------
      LOOP:  cpu time    6.0814: real time    6.1469

 eigenvalue-minimisations  :   420
 total energy-change (2. order) :-0.6945979E+00  (-0.6928221E+00)
 number of electron     216.0000000 magnetization 
 augmentation part       -0.3110767 magnetization 

 Free energy of the ion-electron system (eV)
  ---------------------------------------------------
  alpha Z        PSCENC =        59.93625244
  Ewald energy   TEWEN  =     33820.06779040
  -Hartree energ DENC   =    -39995.28311885
  -exchange      EXHF   =         0.00000000
  -V(xc)+E(xc)   XCENC  =       416.00767650
  PAW double counting   =      6538.03749920    -6258.26020123
  entropy T*S    EENTRO =        -0.00000000
  eigenvalues    EBANDS =     -3443.32770317
  atomic energy  EATOM  =      8364.30921166
  ---------------------------------------------------
  free energy    TOTEN  =      -498.51259305 eV

  energy without entropy =     -498.51259305  energy(sigma->0) =     -498.51259305


--------------------------------------------------------------------------------------------------------




--------------------------------------- Iteration      1(   6)  ---------------------------------------


    POTLOK:  cpu time    0.2730: real time    0.2755
    SETDIJ:  cpu time    0.0031: real time    0.0031
    TRIAL :  cpu time    2.0252: real time    2.0474
    CORREC:  cpu time    0.8012: real time    0.8085
    CHARGE:  cpu time    0.2323: real time    0.2342
    --------------------------------------------
      LOOP:  cpu time    3.3753: real time    3.4122

 eigenvalue-minimisations  :     0
 total energy-change (2. order) : 0.4857200E+02  (-0.1447296E+02)
 number of electron     216.0000000 magnetization 
 augmentation part       -0.4040654 magnetization 

 Free energy of the ion-electron system (eV)
  ---------------------------------------------------
  alpha Z        PSCENC =        59.93625244
  Ewald energy   TEWEN  =     33820.06779040
  -Hartree energ DENC   =    -41393.62113799
  -exchange      EXHF   =         0.00000000
  -V(xc)+E(xc)   XCENC  =       462.92211546
  PAW double counting   =    104148.71835927  -103874.29962513
  entropy T*S    EENTRO =        -0.00000000
  eigenvalues    EBANDS =     -2037.97356195
  atomic energy  EATOM  =      8364.30921166
  ---------------------------------------------------
  free energy    TOTEN  =      -449.94059583 eV

  energy without entropy =     -449.94059583  energy(sigma->0) =     -449.94059583


--------------------------------------------------------------------------------------------------------




--------------------------------------- Iteration      1(   7)  ---------------------------------------


    POTLOK:  cpu time    0.2727: real time    0.2748
    SETDIJ:  cpu time    0.0030: real time    0.0030
    TRIAL :  cpu time    2.0034: real time    2.0250
    CORREC:  cpu time    0.8017: real time    0.8091
    CHARGE:  cpu time    0.2331: real time    0.2354
    --------------------------------------------
      LOOP:  cpu time    3.3964: real time    3.4305

 eigenvalue-minimisations  :     0
 total energy-change (2. order) :-0.1450579E+02  (-0.1730854E+01)
 number of electron     216.0000000 magnetization 
 augmentation part       -0.4508187 magnetization 

 Free energy of the ion-electron system (eV)
  ---------------------------------------------------
  alpha Z        PSCENC =        59.93625244
  Ewald energy   TEWEN  =     33820.06779040
  -Hartree energ DENC   =    -40909.81426778
  -exchange      EXHF   =         0.00000000
  -V(xc)+E(xc)   XCENC  =       446.81192925
  PAW double counting   =    120428.43376029  -120151.94368998
  entropy T*S    EENTRO =        -0.00000000
  eigenvalues    EBANDS =     -2522.24737388
  atomic energy  EATOM  =      8364.30921166
  ---------------------------------------------------
  free energy    TOTEN  =      -464.44638759 eV

  energy without entropy =     -464.44638759  energy(sigma->0) =     -464.44638759


--------------------------------------------------------------------------------------------------------




--------------------------------------- Iteration      1(   8)  ---------------------------------------


    POTLOK:  cpu time    0.2731: real time    0.2753
    SETDIJ:  cpu time    0.0032: real time    0.0032
    TRIAL :  cpu time    2.0027: real time    2.0265
    CORREC:  cpu time    0.8009: real time    0.8095
    CHARGE:  cpu time    0.2330: real time    0.2353
    --------------------------------------------
      LOOP:  cpu time    3.3766: real time    3.4535

 eigenvalue-minimisations  :     0
 total energy-change (2. order) :-0.1730654E+01  (-0.4437446E+00)
 number of electron     216.0000000 magnetization 
 augmentation part       -0.4662059 magnetization 

 Free energy of the ion-electron system (eV)
  ---------------------------------------------------
  alpha Z        PSCENC =        59.93625244
  Ewald energy   TEWEN  =     33820.06779040
  -Hartree energ DENC   =    -40883.34319940
  -exchange      EXHF   =         0.00000000
  -V(xc)+E(xc)   XCENC  =       446.23227097
  PAW double counting   =    124720.49630631  -124443.71379444
  entropy T*S    EENTRO =        -0.00000000
  eigenvalues    EBANDS =     -2550.16187909
  atomic energy  EATOM  =      8364.30921166
  ---------------------------------------------------
  free energy    TOTEN  =      -466.17704115 eV

  energy without entropy =     -466.17704115  energy(sigma->0) =     -466.17704115


--------------------------------------------------------------------------------------------------------




--------------------------------------- Iteration      1(   9)  ---------------------------------------


    POTLOK:  cpu time    0.2723: real time    0.2746
    SETDIJ:  cpu time    0.0031: real time    0.0031
    TRIAL :  cpu time    1.9992: real time    2.0238
    CORREC:  cpu time    0.7986: real time    0.8071
    CHARGE:  cpu time    0.2327: real time    0.2351
    --------------------------------------------
      LOOP:  cpu time    3.4007: real time    3.4418

 eigenvalue-minimisations  :     0
 total energy-change (2. order) :-0.4435105E+00  (-0.1366209E+00)
 number of electron     216.0000000 magnetization 
 augmentation part       -0.4730044 magnetization 

 Free energy of the ion-electron system (eV)
  ---------------------------------------------------
  alpha Z        PSCENC =        59.93625244
  Ewald energy   TEWEN  =     33820.06779040
  -Hartree energ DENC   =    -40897.97200498
  -exchange      EXHF   =         0.00000000
  -V(xc)+E(xc)   XCENC  =       446.40161564
  PAW double counting   =    127197.06419626  -126920.18096364
  entropy T*S    EENTRO =        -0.00000000
  eigenvalues    EBANDS =     -2536.24664940
  atomic energy  EATOM  =      8364.30921166
  ---------------------------------------------------
  free energy    TOTEN  =      -466.62055161 eV

  energy without entropy =     -466.62055161  energy(sigma->0) =     -466.62055161


--------------------------------------------------------------------------------------------------------




--------------------------------------- Iteration      1(  10)  ---------------------------------------


    POTLOK:  cpu time    0.2738: real time    0.2758
    SETDIJ:  cpu time    0.0031: real time    0.0031
    TRIAL :  cpu time    2.0081: real time    2.0291
    CORREC:  cpu time    0.8012: real time    0.8087
    CHARGE:  cpu time    0.2333: real time    0.2352
    --------------------------------------------
      LOOP:  cpu time    3.3779: real time    3.4223

 eigenvalue-minimisations  :     0
 total energy-change (2. order) :-0.1364293E+00  (-0.5282728E-01)
 number of electron     216.0000000 magnetization 
 augmentation part       -0.4741368 magnetization 

 Free energy of the ion-electron system (eV)
  ---------------------------------------------------
  alpha Z        PSCENC =        59.93625244
  Ewald energy   TEWEN  =     33820.06779040
  -Hartree energ DENC   =    -40899.34268456
  -exchange      EXHF   =         0.00000000
  -V(xc)+E(xc)   XCENC  =       446.33561002
  PAW double counting   =    127415.66291140  -127138.72309039
  entropy T*S    EENTRO =        -0.00000000
  eigenvalues    EBANDS =     -2535.00298189
  atomic energy  EATOM  =      8364.30921166
  ---------------------------------------------------
  free energy    TOTEN  =      -466.75698092 eV

  energy without entropy =     -466.75698092  energy(sigma->0) =     -466.75698092


--------------------------------------------------------------------------------------------------------




--------------------------------------- Iteration      1(  11)  ---------------------------------------


    POTLOK:  cpu time    0.2735: real time    0.2757
    SETDIJ:  cpu time    0.0031: real time    0.0032
    TRIAL :  cpu time    2.0034: real time    2.0242
    CORREC:  cpu time    0.7993: real time    0.8065
    CHARGE:  cpu time    0.2326: real time    0.2346
    --------------------------------------------
      LOOP:  cpu time    3.3258: real time    3.3849

 eigenvalue-minimisations  :     0
 total energy-change (2. order) :-0.5267228E-01  (-0.2109584E-01)
 number of electron     216.0000000 magnetization 
 augmentation part       -0.4741064 magnetization 

 Free energy of the ion-electron system (eV)
  ---------------------------------------------------
  alpha Z        PSCENC =        59.93625244
  Ewald energy   TEWEN  =     33820.06779040
  -Hartree energ DENC   =    -40896.20935347
  -exchange      EXHF   =         0.00000000
  -V(xc)+E(xc)   XCENC  =       446.27884070
  PAW double counting   =    126845.07355942  -126568.13476202
  entropy T*S    EENTRO =        -0.00000000
  eigenvalues    EBANDS =     -2538.13119233
  atomic energy  EATOM  =      8364.30921166
  ---------------------------------------------------
  free energy    TOTEN  =      -466.80965319 eV

  energy without entropy =     -466.80965319  energy(sigma->0) =     -466.80965319


--------------------------------------------------------------------------------------------------------




--------------------------------------- Iteration      1(  12)  ---------------------------------------


    POTLOK:  cpu time    0.2724: real time    0.2744
    SETDIJ:  cpu time    0.0030: real time    0.0030
    TRIAL :  cpu time    2.0025: real time    2.0233
    CORREC:  cpu time    0.7972: real time    0.8049
    CHARGE:  cpu time    0.2495: real time    0.2516
    --------------------------------------------
      LOOP:  cpu time    3.3941: real time    3.4274

 eigenvalue-minimisations  :     0
 total energy-change (2. order) :-0.2100183E-01  (-0.7397162E-02)
 number of electron     216.0000000 magnetization 
 augmentation part       -0.4744570 magnetization 

 Free energy of the ion-electron system (eV)
  ---------------------------------------------------
  alpha Z        PSCENC =        59.93625244
  Ewald energy   TEWEN  =     33820.06779040
  -Hartree energ DENC   =    -40894.71458950
  -exchange      EXHF   =         0.00000000
  -V(xc)+E(xc)   XCENC  =       446.25109338
  PAW double counting   =    126475.38713717  -126198.46391380
  entropy T*S    EENTRO =        -0.00000000
  eigenvalues    EBANDS =     -2539.60363679
  atomic energy  EATOM  =      8364.30921166
  ---------------------------------------------------
  free energy    TOTEN  =      -466.83065503 eV

  energy without entropy =     -466.83065503  energy(sigma->0) =     -466.83065503


--------------------------------------------------------------------------------------------------------




--------------------------------------- Iteration      1(  13)  ---------------------------------------


    POTLOK:  cpu time    0.2714: real time    0.2734
    SETDIJ:  cpu time    0.0031: real time    0.0031
    TRIAL :  cpu time    2.0025: real time    2.0258
    CORREC:  cpu time    0.7978: real time    0.8050
    CHARGE:  cpu time    0.2336: real time    0.2355
    --------------------------------------------
      LOOP:  cpu time    3.3684: real time    3.4176

 eigenvalue-minimisations  :     0
 total energy-change (2. order) :-0.7379417E-02  (-0.2146220E-02)
 number of electron     216.0000000 magnetization 
 augmentation part       -0.4742323 magnetization 

 Free energy of the ion-electron system (eV)
  ---------------------------------------------------
  alpha Z        PSCENC =        59.93625244
  Ewald energy   TEWEN  =     33820.06779040
  -Hartree energ DENC   =    -40894.48410298
  -exchange      EXHF   =         0.00000000
  -V(xc)+E(xc)   XCENC  =       446.23921959
  PAW double counting   =    126405.37589764  -126128.45786896
  entropy T*S    EENTRO =        -0.00000000
  eigenvalues    EBANDS =     -2539.82443423
  atomic energy  EATOM  =      8364.30921166
  ---------------------------------------------------
  free energy    TOTEN  =      -466.83803444 eV

  energy without entropy =     -466.83803444  energy(sigma->0) =     -466.83803444


--------------------------------------------------------------------------------------------------------




--------------------------------------- Iteration      1(  14)  ---------------------------------------


    POTLOK:  cpu time    0.2707: real time    0.2727
    SETDIJ:  cpu time    0.0028: real time    0.0028
    TRIAL :  cpu time    2.0031: real time    2.0239
    CORREC:  cpu time    0.7983: real time    0.8054
    CHARGE:  cpu time    0.2330: real time    0.2350
    --------------------------------------------
      LOOP:  cpu time    3.3366: real time    3.3810

 eigenvalue-minimisations  :     0
 total energy-change (2. order) :-0.2146861E-02  (-0.5747736E-03)
 number of electron     216.0000000 magnetization 
 augmentation part       -0.4739816 magnetization 

 Free energy of the ion-electron system (eV)
  ---------------------------------------------------
  alpha Z        PSCENC =        59.93625244
  Ewald energy   TEWEN  =     33820.06779040
  -Hartree energ DENC   =    -40894.39251205
  -exchange      EXHF   =         0.00000000
  -V(xc)+E(xc)   XCENC  =       446.23860205
  PAW double counting   =    126468.13831125  -126191.22146949
  entropy T*S    EENTRO =        -0.00000000
  eigenvalues    EBANDS =     -2539.91636757
  atomic energy  EATOM  =      8364.30921166
  ---------------------------------------------------
  free energy    TOTEN  =      -466.84018131 eV

  energy without entropy =     -466.84018131  energy(sigma->0) =     -466.84018131


--------------------------------------------------------------------------------------------------------




--------------------------------------- Iteration      1(  15)  ---------------------------------------


    POTLOK:  cpu time    0.2702: real time    0.2721
    SETDIJ:  cpu time    0.0028: real time    0.0028
    TRIAL :  cpu time    2.0074: real time    2.0282
    CORREC:  cpu time    0.7957: real time    0.8029
    CHARGE:  cpu time    0.2338: real time    0.2357
    --------------------------------------------
      LOOP:  cpu time    3.3327: real time    3.3648

 eigenvalue-minimisations  :     0
 total energy-change (2. order) :-0.5764494E-03  (-0.1848612E-03)
 number of electron     216.0000000 magnetization 
 augmentation part       -0.4737288 magnetization 

 Free energy of the ion-electron system (eV)
  ---------------------------------------------------
  alpha Z        PSCENC =        59.93625244
  Ewald energy   TEWEN  =     33820.06779040
  -Hartree energ DENC   =    -40894.13106220
  -exchange      EXHF   =         0.00000000
  -V(xc)+E(xc)   XCENC  =       446.22972537
  PAW double counting   =    126506.73026064  -126229.81257957
  entropy T*S    EENTRO =        -0.00000000
  eigenvalues    EBANDS =     -2540.17035648
  atomic energy  EATOM  =      8364.30921166
  ---------------------------------------------------
  free energy    TOTEN  =      -466.84075775 eV

  energy without entropy =     -466.84075775  energy(sigma->0) =     -466.84075775


--------------------------------------------------------------------------------------------------------




--------------------------------------- Iteration      1(  16)  ---------------------------------------


    POTLOK:  cpu time    0.2691: real time    0.2712
    SETDIJ:  cpu time    0.0029: real time    0.0029
    TRIAL :  cpu time    2.0020: real time    2.0228
    CORREC:  cpu time    0.7938: real time    0.8011
    CHARGE:  cpu time    0.2327: real time    0.2346
    --------------------------------------------
      LOOP:  cpu time    3.3393: real time    3.3759

 eigenvalue-minimisations  :     0
 total energy-change (2. order) :-0.1862824E-03  (-0.6038652E-04)
 number of electron     216.0000000 magnetization 
 augmentation part       -0.4735581 magnetization 

 Free energy of the ion-electron system (eV)
  ---------------------------------------------------
  alpha Z        PSCENC =        59.93625244
  Ewald energy   TEWEN  =     33820.06779040
  -Hartree energ DENC   =    -40894.16601614
  -exchange      EXHF   =         0.00000000
  -V(xc)+E(xc)   XCENC  =       446.23062072
  PAW double counting   =    126493.37008403  -126216.45264685
  entropy T*S    EENTRO =        -0.00000000
  eigenvalues    EBANDS =     -2540.13624031
  atomic energy  EATOM  =      8364.30921166
  ---------------------------------------------------
  free energy    TOTEN  =      -466.84094404 eV

  energy without entropy =     -466.84094404  energy(sigma->0) =     -466.84094404


--------------------------------------------------------------------------------------------------------




--------------------------------------- Iteration      1(  17)  ---------------------------------------


    POTLOK:  cpu time    0.2676: real time    0.2695
    SETDIJ:  cpu time    0.0028: real time    0.0028
    TRIAL :  cpu time    2.0035: real time    2.0244
    CORREC:  cpu time    0.7966: real time    0.8044
    CHARGE:  cpu time    0.2327: real time    0.2346
    --------------------------------------------
      LOOP:  cpu time    3.3580: real time    3.4002

 eigenvalue-minimisations  :     0
 total energy-change (2. order) :-0.6115693E-04  (-0.2299486E-04)
 number of electron     216.0000000 magnetization 
 augmentation part       -0.4735457 magnetization 

 Free energy of the ion-electron system (eV)
  ---------------------------------------------------
  alpha Z        PSCENC =        59.93625244
  Ewald energy   TEWEN  =     33820.06779040
  -Hartree energ DENC   =    -40894.28555812
  -exchange      EXHF   =         0.00000000
  -V(xc)+E(xc)   XCENC  =       446.23455066
  PAW double counting   =    126469.96058631  -126193.04366573
  entropy T*S    EENTRO =        -0.00000000
  eigenvalues    EBANDS =     -2540.02017281
  atomic energy  EATOM  =      8364.30921166
  ---------------------------------------------------
  free energy    TOTEN  =      -466.84100519 eV

  energy without entropy =     -466.84100519  energy(sigma->0) =     -466.84100519


--------------------------------------------------------------------------------------------------------




--------------------------------------- Iteration      1(  18)  ---------------------------------------


    POTLOK:  cpu time    0.2677: real time    0.2695
    SETDIJ:  cpu time    0.0027: real time    0.0027
    TRIAL :  cpu time    1.9996: real time    2.0233
    CORREC:  cpu time    0.7939: real time    0.8014
    CHARGE:  cpu time    0.2333: real time    0.2352
    --------------------------------------------
      LOOP:  cpu time    3.3399: real time    3.3844

 eigenvalue-minimisations  :     0
 total energy-change (2. order) :-0.2334290E-04  (-0.9261644E-05)
 number of electron     216.0000000 magnetization 
 augmentation part       -0.4735719 magnetization 

 Free energy of the ion-electron system (eV)
  ---------------------------------------------------
  alpha Z        PSCENC =        59.93625244
  Ewald energy   TEWEN  =     33820.06779040
  -Hartree energ DENC   =    -40894.26559708
  -exchange      EXHF   =         0.00000000
  -V(xc)+E(xc)   XCENC  =       446.23318536
  PAW double counting   =    126462.28189485  -126185.36463900
  entropy T*S    EENTRO =        -0.00000000
  eigenvalues    EBANDS =     -2540.03912716
  atomic energy  EATOM  =      8364.30921166
  ---------------------------------------------------
  free energy    TOTEN  =      -466.84102854 eV

  energy without entropy =     -466.84102854  energy(sigma->0) =     -466.84102854


--------------------------------------------------------------------------------------------------------




--------------------------------------- Iteration      1(  19)  ---------------------------------------


    POTLOK:  cpu time    0.2680: real time    0.2700
    SETDIJ:  cpu time    0.0030: real time    0.0030
    TRIAL :  cpu time    2.0029: real time    2.0246
    CORREC:  cpu time    0.8039: real time    0.8112
    CHARGE:  cpu time    0.2331: real time    0.2350
    --------------------------------------------
      LOOP:  cpu time    3.4012: real time    3.4377

 eigenvalue-minimisations  :     0
 total energy-change (2. order) :-0.9129493E-05  (-0.3786590E-05)
 number of electron     216.0000000 magnetization 
 augmentation part       -0.4736316 magnetization 

 Free energy of the ion-electron system (eV)
  ---------------------------------------------------
  alpha Z        PSCENC =        59.93625244
  Ewald energy   TEWEN  =     33820.06779040
  -Hartree energ DENC   =    -40894.28199273
  -exchange      EXHF   =         0.00000000
  -V(xc)+E(xc)   XCENC  =       446.23416144
  PAW double counting   =    126465.66125178  -126188.74395389
  entropy T*S    EENTRO =        -0.00000000
  eigenvalues    EBANDS =     -2540.02375876
  atomic energy  EATOM  =      8364.30921166
  ---------------------------------------------------
  free energy    TOTEN  =      -466.84103767 eV

  energy without entropy =     -466.84103767  energy(sigma->0) =     -466.84103767


--------------------------------------------------------------------------------------------------------




--------------------------------------- Iteration      1(  20)  ---------------------------------------


    POTLOK:  cpu time    0.2685: real time    0.2706
    SETDIJ:  cpu time    0.0029: real time    0.0029
    TRIAL :  cpu time    2.0042: real time    2.0252
    CORREC:  cpu time    0.7967: real time    0.8041
    CHARGE:  cpu time    0.2332: real time    0.2352
    --------------------------------------------
      LOOP:  cpu time    3.3522: real time    3.3872

 eigenvalue-minimisations  :     0
 total energy-change (2. order) :-0.3517998E-05  (-0.1461126E-05)
 number of electron     216.0000000 magnetization 
 augmentation part       -0.4736486 magnetization 

 Free energy of the ion-electron system (eV)
  ---------------------------------------------------
  alpha Z        PSCENC =        59.93625244
  Ewald energy   TEWEN  =     33820.06779040
  -Hartree energ DENC   =    -40894.27824645
  -exchange      EXHF   =         0.00000000
  -V(xc)+E(xc)   XCENC  =       446.23365210
  PAW double counting   =    126470.67837861  -126193.76083083
  entropy T*S    EENTRO =        -0.00000000
  eigenvalues    EBANDS =     -2540.02724911
  atomic energy  EATOM  =      8364.30921166
  ---------------------------------------------------
  free energy    TOTEN  =      -466.84104118 eV

  energy without entropy =     -466.84104118  energy(sigma->0) =     -466.84104118


--------------------------------------------------------------------------------------------------------




--------------------------------------- Iteration      1(  21)  ---------------------------------------


    POTLOK:  cpu time    0.2682: real time    0.2702
    SETDIJ:  cpu time    0.0030: real time    0.0030
    TRIAL :  cpu time    2.0069: real time    2.0274
    CORREC:  cpu time    0.7950: real time    0.8023
    CHARGE:  cpu time    0.2333: real time    0.2352
    --------------------------------------------
      LOOP:  cpu time    3.3240: real time    3.3579

 eigenvalue-minimisations  :     0
 total energy-change (2. order) :-0.1242093E-05  (-0.5681458E-06)
 number of electron     216.0000000 magnetization 
 augmentation part       -0.4736585 magnetization 

 Free energy of the ion-electron system (eV)
  ---------------------------------------------------
  alpha Z        PSCENC =        59.93625244
  Ewald energy   TEWEN  =     33820.06779040
  -Hartree energ DENC   =    -40894.29648360
  -exchange      EXHF   =         0.00000000
  -V(xc)+E(xc)   XCENC  =       446.23443926
  PAW double counting   =    126472.20251021  -126195.28503193
  entropy T*S    EENTRO =        -0.00000000
  eigenvalues    EBANDS =     -2540.00973087
  atomic energy  EATOM  =      8364.30921166
  ---------------------------------------------------
  free energy    TOTEN  =      -466.84104243 eV

  energy without entropy =     -466.84104243  energy(sigma->0) =     -466.84104243


--------------------------------------------------------------------------------------------------------




--------------------------------------- Iteration      1(  22)  ---------------------------------------


    POTLOK:  cpu time    0.2776: real time    0.2801
    SETDIJ:  cpu time    0.0028: real time    0.0028
    TRIAL :  cpu time    2.0019: real time    2.0229
    CORREC:  cpu time    0.7978: real time    0.8051
    EDDIAG:  cpu time    0.4585: real time    0.4630
    CHARGE:  cpu time    0.2330: real time    0.2349
    --------------------------------------------
      LOOP:  cpu time    3.8385: real time    3.8769

 eigenvalue-minimisations  :     0
 total energy-change (2. order) :-0.5390757E-06  (-0.2637997E-06)
 number of electron     216.0000000 magnetization 
 augmentation part       -0.4736539 magnetization 

 Free energy of the ion-electron system (eV)
  ---------------------------------------------------
  alpha Z        PSCENC =        59.93625244
  Ewald energy   TEWEN  =     33820.06779040
  -Hartree energ DENC   =    -40894.28746130
  -exchange      EXHF   =         0.00000000
  -V(xc)+E(xc)   XCENC  =       446.23400775
  PAW double counting   =    126471.67252972  -126194.75501420
  entropy T*S    EENTRO =        -0.00000000
  eigenvalues    EBANDS =     -2540.01835944
  atomic energy  EATOM  =      8364.30921166
  ---------------------------------------------------
  free energy    TOTEN  =      -466.84104297 eV

  energy without entropy =     -466.84104297  energy(sigma->0) =     -466.84104297


--------------------------------------------------------------------------------------------------------


  average scaling for gradient   0.9417


 average (electrostatic) potential at core
  the test charge radii are     0.5770  0.5955
  (the norm of the test charge is              1.0000)
       1 -85.4367       2 -85.4330       3 -85.4410       4 -85.4465       5 -85.4301
       6 -85.4276       7 -85.4376       8 -85.4274       9 -85.4302      10 -85.4351
      11 -85.4294      12 -85.4321      13 -85.4339      14 -85.4298      15 -85.4273
      16 -85.4278      17 -85.4323      18 -85.4341      19 -85.4360      20 -85.4323
      21 -85.4249      22 -85.4259      23 -85.4478      24 -85.4468      25 -85.4286
      26 -85.4304      27 -85.4308      28 -85.4385      29 -85.4273      30 -85.4286
      31 -85.4441      32 -85.4386      33 -85.4329      34 -85.4300      35 -85.4290
      36 -85.4311      37 -85.4331      38 -85.4353      39 -85.4356      40 -85.4343
      41 -85.4347      42 -85.4369      43 -85.4319      44 -85.4363      45 -85.4284
      46 -85.4277      47 -85.4316      48 -85.4297      49 -85.4345      50 -85.4329
      51 -89.3466      52-120.0093      53-120.0087
 
 
 
 E-fermi :  -3.8436     XC(G=0):  -2.3475     alpha+bet : -2.1113

 Fermi energy:        -3.8435932093

 k-point     1 :       0.0000    0.0000    0.0000
  band No.  band energies     occupation 
      1     -27.2890      2.00000
      2     -26.2661      2.00000
      3     -22.0009      2.00000
      4     -21.0651      2.00000
      5     -21.0615      2.00000
      6     -21.0569      2.00000
      7     -21.0567      2.00000
      8     -21.0544      2.00000
      9     -21.0538      2.00000
     10     -19.2126      2.00000
     11     -19.2121      2.00000
     12     -19.2093      2.00000
     13     -19.2093      2.00000
     14     -19.2080      2.00000
     15     -19.2080      2.00000
     16     -18.3125      2.00000
     17     -18.3120      2.00000
     18     -18.3114      2.00000
     19     -18.3102      2.00000
     20     -18.3097      2.00000
     21     -18.3095      2.00000
     22     -16.1508      2.00000
     23     -16.1502      2.00000
     24     -16.1490      2.00000
     25     -16.1484      2.00000
     26     -16.1455      2.00000
     27     -16.1453      2.00000
     28     -15.1337      2.00000
     29     -15.1333      2.00000
     30     -15.1311      2.00000
     31     -15.1310      2.00000
     32     -15.1306      2.00000
     33     -15.1305      2.00000
     34     -13.7810      2.00000
     35     -13.7810      2.00000
     36     -13.7806      2.00000
     37     -13.7799      2.00000
     38     -13.7798      2.00000
     39     -13.7790      2.00000
     40     -12.0754      2.00000
     41     -11.3912      2.00000
     42     -11.3912      2.00000
     43     -11.3899      2.00000
     44     -11.3898      2.00000
     45     -11.3897      2.00000
     46     -11.3895      2.00000
     47     -11.2697      2.00000
     48     -11.2695      2.00000
     49     -11.2679      2.00000
     50     -11.2678      2.00000
     51     -11.2657      2.00000
     52     -11.2654      2.00000
     53     -10.8506      2.00000
     54     -10.7818      2.00000
     55     -10.7641      2.00000
     56     -10.0165      2.00000
     57      -9.8833      2.00000
     58      -9.8832      2.00000
     59      -9.8830      2.00000
     60      -9.8829      2.00000
     61      -9.8818      2.00000
     62      -9.8817      2.00000
     63      -8.9138      2.00000
     64      -8.9093      2.00000
     65      -8.9072      2.00000
     66      -8.9060      2.00000
     67      -8.9036      2.00000
     68      -8.9017      2.00000
     69      -8.6030      2.00000
     70      -8.6006      2.00000
     71      -8.6002      2.00000
     72      -8.5987      2.00000
     73      -8.5983      2.00000
     74      -8.5976      2.00000
     75      -8.5685      2.00000
     76      -8.5684      2.00000
     77      -8.5681      2.00000
     78      -8.5665      2.00000
     79      -8.5657      2.00000
     80      -8.5651      2.00000
     81      -7.2391      2.00000
     82      -7.2269      2.00000
     83      -6.9410      2.00000
     84      -6.9409      2.00000
     85      -6.9408      2.00000
     86      -6.9400      2.00000
     87      -6.9369      2.00000
     88      -6.9369      2.00000
     89      -6.7870      2.00000
     90      -6.7867      2.00000
     91      -6.7796      2.00000
     92      -6.7787      2.00000
     93      -6.7780      2.00000
     94      -6.7625      2.00000
     95      -5.8935      2.00000
     96      -5.8912      2.00000
     97      -5.8892      2.00000
     98      -5.8851      2.00000
     99      -5.8845      2.00000
    100      -5.8802      2.00000
    101      -5.4478      2.00000
    102      -5.4456      2.00000
    103      -3.9143      2.00000
    104      -3.9125      2.00000
    105      -3.9099      2.00000
    106      -3.9091      2.00000
    107      -3.9045      2.00000
    108      -3.9042      2.00000
    109      -1.1007      0.00000
    110      -1.1001      0.00000
    111      -1.0944      0.00000
    112      -1.0934      0.00000
    113      -1.0918      0.00000
    114      -1.0911      0.00000
    115       0.5718      0.00000
    116       0.7722      0.00000
    117       0.7733      0.00000
    118       0.7754      0.00000
    119       0.7798      0.00000
    120       0.7806      0.00000
    121       0.7829      0.00000
    122       1.1624      0.00000
    123       1.3591      0.00000
    124       1.3617      0.00000
    125       1.7439      0.00000
    126       1.8854      0.00000
    127       1.9842      0.00000
    128       2.0606      0.00000
    129       2.0695      0.00000
    130       2.0738      0.00000
    131       2.1050      0.00000
    132       2.5076      0.00000
    133       2.5098      0.00000
    134       2.5151      0.00000
    135       2.5168      0.00000
    136       2.5171      0.00000
    137       2.5175      0.00000
    138       2.9253      0.00000
    139       3.1001      0.00000
    140       3.3507      0.00000


--------------------------------------------------------------------------------------------------------


 soft charge-density along one line, spin component           1
         0         1         2         3         4         5         6         7         8         9
 total charge-density along one line
 
 pseudopotential strength for first ion, spin component:           1
 12.710  21.388  -0.000   0.000   0.000  -0.000   0.000   0.000
 21.388  35.992  -0.000   0.000   0.000  -0.000   0.000   0.000
 -0.000  -0.000  -3.095  -0.000   0.000  -5.547  -0.000   0.000
  0.000   0.000  -0.000  -3.096  -0.000  -0.000  -5.548  -0.000
  0.000   0.000   0.000  -0.000  -3.095   0.000  -0.000  -5.547
 -0.000  -0.000  -5.547  -0.000   0.000  -9.919  -0.000   0.000
  0.000   0.000  -0.000  -5.548  -0.000  -0.000  -9.921  -0.000
  0.000   0.000   0.000  -0.000  -5.547   0.000  -0.000  -9.919
 total augmentation occupancy for first ion, spin component:           1
  8.451  -3.031  -0.000  -0.002   0.000   0.000   0.001  -0.000
 -3.031   1.122   0.000   0.001  -0.000  -0.000  -0.000   0.000
 -0.000   0.000   7.732  -0.008   0.000  -2.678   0.003  -0.000
 -0.002   0.001  -0.008   3.531  -0.000   0.003  -0.988   0.000
  0.000  -0.000   0.000  -0.000   7.732  -0.000   0.000  -2.678
  0.000  -0.000  -2.678   0.003  -0.000   0.941  -0.001   0.000
  0.001  -0.000   0.003  -0.988   0.000  -0.001   0.282  -0.000
 -0.000   0.000  -0.000   0.000  -2.678   0.000  -0.000   0.941


------------------------ aborting loop because EDIFF is reached ----------------------------------------


    FORLOC:  cpu time    0.0499: real time    0.0504
    FORNL :  cpu time    0.7414: real time    0.7508
    FORCOR:  cpu time    0.2907: real time    0.2930
    OFIELD:  cpu time    0.0010: real time    0.0010

 ---------------------------------------------------------------------------------------------

         DFTD3 V3.0 Rev 1        
 IVDW         = 11
 DF revpbe    
 parameters
 VDW_S6       =    1.0000
 VDW_S8       =    1.0100
 VDW_SR       =    0.9230
 rs18     =    1.0000
 alpha6   =   14.0000
 alpha8   =   16.0000
 k1-k3    =   16.0000    1.3333   -4.0000
 VDW_RADIUS   =   50.2022 A
 VDW_CNRADIUS =   21.1671 A
 Edisp (eV)   -3.84371

 E6    (eV) :    -2.7360
 E8    (eV) :    -1.1077
 % E8        : 28.82
    FORVDW:  cpu time    0.1799: real time    0.1816

 VOLUME and BASIS-vectors are now :
 -----------------------------------------------------------------------------
  energy-cutoff  :     1000.00
  volume of cell :     2631.08
      direct lattice vectors                 reciprocal lattice vectors
    12.325000000  0.000000000  0.000000000     0.081135903  0.046843835  0.000000000
    -6.162500000 10.673763102  0.000000000     0.000000000  0.093687670  0.000000000
     0.000000000  0.000000000 20.000000000     0.000000000  0.000000000  0.050000000

  length of vectors
    12.325000000 12.325000000 20.000000000     0.093687670  0.093687670  0.050000000


 FORCES acting on ions:
    Electron-Ion                     Ewald-Force                    Non-Local-Force
 -----------------------------------------------------------------------------------------------
   0.936E+01 0.820E+01 0.227E+02   -.937E+01 -.820E+01 -.227E+02   0.130E-01 -.361E-02 0.109E-01
   0.150E+02 0.737E+01 0.294E+02   -.150E+02 -.736E+01 -.294E+02   0.178E-01 -.103E-01 -.852E-02
   0.716E+01 0.185E+02 0.359E+02   -.716E+01 -.185E+02 -.359E+02   -.229E-02 0.371E-01 0.211E-01
   0.109E+02 0.159E+02 0.550E+02   -.109E+02 -.159E+02 -.551E+02   0.392E-01 0.144E-01 0.420E-01
   0.101E+02 0.239E+01 0.228E+02   -.101E+02 -.239E+01 -.228E+02   0.417E-02 -.144E-01 -.445E-02
   0.106E+02 -.186E+01 0.232E+02   -.106E+02 0.186E+01 -.232E+02   -.145E-01 -.150E-02 -.141E-01
   0.191E+02 0.750E+01 0.480E+02   -.191E+02 -.747E+01 -.480E+02   0.426E-01 -.462E-01 -.918E-02
   0.186E+02 -.643E+01 0.505E+02   -.187E+02 0.645E+01 -.504E+02   0.990E-02 -.239E-01 -.625E-01
   -.808E+01 0.169E+02 0.365E+02   0.810E+01 -.169E+02 -.365E+02   -.167E-01 -.513E-02 -.306E-01
   -.141E+02 0.120E+02 0.531E+02   0.141E+02 -.120E+02 -.531E+02   -.629E-01 0.377E-01 -.344E-01
   0.252E+01 -.228E+01 0.184E+02   -.251E+01 0.227E+01 -.184E+02   -.265E-02 0.119E-02 -.530E-02
   0.204E+01 -.166E+01 0.171E+02   -.203E+01 0.166E+01 -.171E+02   -.139E-01 0.609E-02 0.199E-02
   0.732E+01 -.168E+02 0.570E+02   -.738E+01 0.169E+02 -.570E+02   0.705E-01 -.264E-01 -.409E-01
   0.355E+01 -.186E+02 0.366E+02   -.357E+01 0.186E+02 -.366E+02   0.216E-01 -.810E-04 -.354E-01
   -.906E+01 0.568E+01 0.222E+02   0.905E+01 -.568E+01 -.222E+02   0.124E-01 -.636E-02 -.596E-02
   -.132E+02 0.377E+01 0.258E+02   0.132E+02 -.378E+01 -.258E+02   -.361E-02 0.110E-01 -.230E-01
   -.141E+01 -.572E+00 0.164E+02   0.142E+01 0.569E+00 -.164E+02   -.593E-02 0.154E-02 0.109E-02
   0.751E+00 0.512E+01 0.175E+02   -.746E+00 -.512E+01 -.175E+02   -.778E-02 0.393E-02 0.907E-02
   -.269E+01 -.158E+02 0.282E+02   0.267E+01 0.158E+02 -.282E+02   0.210E-01 -.759E-02 0.419E-02
   -.120E+01 -.789E+01 0.194E+02   0.119E+01 0.790E+01 -.194E+02   0.572E-02 -.571E-02 -.173E-02
   0.154E+02 -.671E+01 0.316E+02   -.154E+02 0.672E+01 -.316E+02   -.211E-02 -.639E-02 -.457E-01
   0.935E+01 -.802E+01 0.249E+02   -.935E+01 0.801E+01 -.249E+02   -.109E-01 0.121E-01 -.177E-01
   -.360E+01 0.767E+01 0.682E+02   0.364E+01 -.771E+01 -.683E+02   -.408E-01 0.358E-01 0.570E-01
   -.582E+01 -.121E+02 0.651E+02   0.579E+01 0.122E+02 -.652E+02   0.301E-01 -.466E-01 0.460E-01
   0.445E+01 -.193E+01 0.185E+02   -.443E+01 0.192E+01 -.185E+02   -.563E-02 0.800E-03 -.952E-02
   0.853E+00 0.397E+01 0.187E+02   -.847E+00 -.397E+01 -.187E+02   -.119E-01 0.618E-02 -.277E-03
   -.193E+02 0.238E+01 0.401E+02   0.193E+02 -.240E+01 -.401E+02   -.323E-02 0.228E-01 -.311E-01
   -.179E+02 -.752E+01 0.365E+02   0.180E+02 0.750E+01 -.365E+02   -.313E-01 0.247E-01 0.551E-02
   0.567E+01 -.115E+02 0.261E+02   -.568E+01 0.115E+02 -.261E+02   0.117E-01 0.544E-02 -.218E-01
   0.527E+00 -.439E+01 0.198E+02   -.534E+00 0.438E+01 -.198E+02   -.177E-03 0.653E-02 -.905E-02
   -.143E+02 -.153E+02 0.448E+02   0.143E+02 0.153E+02 -.448E+02   -.361E-01 -.220E-01 0.272E-01
   -.844E+01 -.154E+02 0.301E+02   0.844E+01 0.154E+02 -.301E+02   0.146E-03 -.205E-01 0.161E-01
   0.534E+00 0.217E+01 0.170E+02   -.540E+00 -.217E+01 -.170E+02   0.112E-01 -.772E-02 0.412E-02
   0.149E+01 0.218E+01 0.183E+02   -.149E+01 -.217E+01 -.183E+02   0.164E-03 -.310E-03 -.575E-02
   -.634E+01 0.826E+00 0.201E+02   0.634E+01 -.831E+00 -.201E+02   0.787E-02 0.865E-03 -.168E-02
   -.548E+01 -.221E+01 0.195E+02   0.549E+01 0.220E+01 -.195E+02   -.103E-01 0.735E-02 -.183E-02
   -.111E+02 -.576E+01 0.232E+02   0.111E+02 0.575E+01 -.232E+02   -.132E-01 0.368E-02 0.143E-02
   -.650E+01 -.526E+01 0.192E+02   0.651E+01 0.526E+01 -.192E+02   -.103E-01 0.265E-02 0.105E-01
   -.607E+01 -.792E+01 0.207E+02   0.608E+01 0.793E+01 -.207E+02   -.994E-02 -.549E-02 0.826E-02
   -.900E+00 -.191E+01 0.175E+02   0.899E+00 0.191E+01 -.175E+02   0.282E-02 -.189E-02 0.866E-02
   0.228E+01 0.550E+01 0.183E+02   -.228E+01 -.551E+01 -.183E+02   -.484E-02 0.797E-02 0.846E-02
   0.748E+01 0.117E+02 0.242E+02   -.749E+01 -.117E+02 -.242E+02   0.845E-02 0.844E-02 0.150E-01
   0.606E+00 0.970E+01 0.204E+02   -.596E+00 -.971E+01 -.204E+02   -.739E-02 0.735E-02 -.883E-03
   0.173E-01 0.176E+02 0.308E+02   0.680E-02 -.176E+02 -.308E+02   -.272E-01 0.108E-01 0.527E-02
   -.184E+01 0.364E+01 0.197E+02   0.184E+01 -.363E+01 -.197E+02   0.182E-02 -.599E-02 -.626E-02
   -.764E+01 0.966E+01 0.247E+02   0.764E+01 -.965E+01 -.247E+02   -.111E-01 -.311E-03 -.177E-01
   -.136E+01 -.378E+01 0.181E+02   0.136E+01 0.379E+01 -.181E+02   0.132E-01 -.279E-02 0.164E-02
   -.350E+01 0.141E+01 0.174E+02   0.348E+01 -.140E+01 -.174E+02   0.470E-02 0.368E-03 -.809E-02
   0.289E+00 -.235E+01 0.171E+02   -.293E+00 0.235E+01 -.171E+02   0.783E-02 -.411E-02 0.613E-02
   0.372E+01 0.272E+01 0.173E+02   -.373E+01 -.272E+01 -.174E+02   0.606E-02 0.145E-02 0.331E-02
   0.901E-01 -.653E-01 -.355E+03   -.927E-01 0.677E-01 0.355E+03   -.583E-02 0.346E-02 0.930E-02
   -.229E+03 0.155E+03 -.544E+03   0.279E+03 -.190E+03 0.547E+03   -.509E+02 0.347E+02 -.326E+01
   0.229E+03 -.156E+03 -.524E+03   -.279E+03 0.190E+03 0.521E+03   0.509E+02 -.347E+02 0.325E+01
 -----------------------------------------------------------------------------------------------
   0.801E-02 0.634E-02 0.148E+00   0.568E-13 0.284E-13 0.114E-12   -.828E-02 -.628E-02 -.147E+00
 
 
 POSITION                                       TOTAL-FORCE (eV/Angst)
 -----------------------------------------------------------------------------------
     11.98348      0.00342      0.01417         0.002581      0.000289     -0.000047
     -0.34154      1.42665      0.01100         0.000122      0.001217     -0.000395
      2.12355      0.00315      0.01249         0.001212      0.003387      0.000543
      2.12326      1.42653      0.00641         0.005115      0.004228      0.004859
     10.75099      2.13819      0.01213         0.000858     -0.004376      0.001557
     -1.57382      3.56123      0.01110        -0.004913      0.006285     -0.000036
      0.89078      2.13854      0.00548         0.005081     -0.004629      0.005400
      0.89099      3.56147      0.00181        -0.006992      0.001640      0.007415
      4.58864      0.00346      0.01135         0.004786     -0.006900     -0.001213
      4.58894      1.42623      0.00646        -0.012218      0.007790      0.010814
      9.51854      4.27281      0.01369         0.007320     -0.005373      0.000625
     -2.80632      5.69591      0.01434        -0.007111      0.003830      0.001234
      2.12300      4.27302      0.00000         0.009397     -0.003145      0.013924
      2.12335      5.69594      0.00581        -0.002252      0.000669     -0.000383
      7.05344      0.00333      0.01399         0.006696     -0.003283      0.001237
      7.05353      1.42635      0.01368        -0.004700      0.005077     -0.001390
      8.28610      6.40752      0.01601         0.003524     -0.001694     -0.000228
     -4.03885      7.83070      0.01636        -0.001907      0.001831      0.000387
      3.35586      6.40753      0.01007         0.001564     -0.000876      0.000656
      3.35599      7.83072      0.01320        -0.003102      0.000377      0.000316
     -0.34146      4.27290      0.00723         0.005411     -0.004660     -0.002053
     -0.34138      5.69591      0.00946        -0.007011      0.003141      0.001025
      3.35624      2.13791      0.00222        -0.001754      0.004532      0.018647
      3.35573      3.56155      0.00139         0.001774     -0.007280      0.014696
     -1.57395      6.40758      0.01311         0.008466     -0.004281     -0.000290
     -1.57385      7.83068      0.01438        -0.004760      0.004098      0.000753
      5.82093      2.13784      0.01033         0.008515     -0.000412     -0.001208
      5.82114      3.56097      0.01156        -0.004353      0.001452      0.000723
      0.89092      6.40755      0.00907         0.004620     -0.000302      0.000201
      0.89106      7.83068      0.01235        -0.007866      0.001077      0.000763
      4.58871      4.27293      0.00850        -0.005351     -0.006587     -0.000102
      4.58852      5.69606      0.01149         0.000776      0.003034     -0.000174
      9.51845      0.00337      0.01490         0.005051     -0.005075      0.000655
      9.51855      1.42644      0.01438        -0.004511      0.007551      0.000081
      8.28593      2.13803      0.01453         0.003936     -0.004766      0.001382
      8.28613      3.56115      0.01464        -0.004489      0.001686      0.000825
      7.05356      4.27269      0.01457         0.002962     -0.000927      0.001118
      7.05362      5.69588      0.01553        -0.002501      0.000504      0.000437
      5.82112      6.40755      0.01489        -0.001459      0.001629      0.000756
      5.82102      7.83073      0.01579         0.001895      0.001158      0.000104
      7.05363      8.54227      0.01631        -0.003691     -0.000153      0.001669
     -5.27149      9.96549      0.01495        -0.001197     -0.002343     -0.000560
     -2.80638      8.54234      0.01558         0.002995     -0.001307      0.000080
     -2.80627      9.96553      0.01362        -0.002362      0.001674     -0.000662
     -0.34149      8.54239      0.01378         0.005991     -0.002278      0.000916
     -0.34138      9.96550      0.01354        -0.007037      0.002547      0.000847
      2.12343      8.54232      0.01336         0.006042     -0.001572      0.001249
      2.12354      9.96544      0.01469        -0.007372      0.004480     -0.001558
      4.58846      8.54235      0.01505         0.003978     -0.003393      0.001341
      4.58853      9.96550      0.01517        -0.003377      0.003210      0.000891
      3.04930      2.68154      3.53553        -0.008402      0.005773     -0.027893
      4.02070      2.02068      3.59996        -0.265511      0.182353     -0.047396
      2.07767      3.34267      3.47608         0.275532     -0.190904     -0.012538
 -----------------------------------------------------------------------------------
    total drift:                               -0.000273      0.000059      0.001236


--------------------------------------------------------------------------------------------------------



  FREE ENERGIE OF THE ION-ELECTRON SYSTEM (eV)
  ---------------------------------------------------
  free  energy   TOTEN  =      -470.68475034 eV

  energy  without entropy=     -470.68475034  energy(sigma->0) =     -470.68475034
 


--------------------------------------------------------------------------------------------------------


    POTLOK:  cpu time    0.2780: real time    0.2803


--------------------------------------------------------------------------------------------------------


     LOOP+:  cpu time  108.6660: real time  110.1920
    4ORBIT:  cpu time    0.0000: real time    0.0000

 total amount of memory used by VASP MPI-rank0   175916. kBytes
=======================================================================

   base      :      30000. kBytes
   nonl-proj :      46129. kBytes
   fftplans  :      35778. kBytes
   grid      :      52596. kBytes
   one-center:         43. kBytes
   wavefun   :      11370. kBytes
 
  
  
 General timing and accounting informations for this job:
 ========================================================
  
                  Total CPU time used (sec):      144.034
                            User time (sec):      131.063
                          System time (sec):       12.972
                         Elapsed time (sec):      147.211
  
                   Maximum memory used (kb):      519656.
                   Average memory used (kb):          N/A
  
                          Minor page faults:        53396
                          Major page faults:          120
                 Voluntary context switches:         3632
