 vasp.6.2.1 16May21 (build Nov 06 2021 14:46:37) complex                        
  
 executed on             LinuxIFC date 2025.05.13  19:37:33
 running on  112 total cores
 distrk:  each k-point on  112 cores,    1 groups
 distr:  one band on NCORE=   4 cores,   28 groups


--------------------------------------------------------------------------------------------------------


 INCAR:
   ALGO = Conjugate
   NCORE = 4
   ISMEAR = 0
   SIGMA = 0.01
   PREC = Accurate
   EDIFF = 1E-6
   ENCUT = 1000
   ISIF = 0
   GGA = RE
   IVDW = 11
   LWAVE = .FALSE.
   LCHARGE = .FALSE.
   SYMPREC = 1E-6

 POTCAR:    PAW_PBE C_h 06Feb2004                 
 POTCAR:    PAW_PBE O_h 06Feb2004                 
 -----------------------------------------------------------------------------
|                                                                             |
|           W    W    AA    RRRRR   N    N  II  N    N   GGGG   !!!           |
|           W    W   A  A   R    R  NN   N  II  NN   N  G    G  !!!           |
|           W    W  A    A  R    R  N N  N  II  N N  N  G       !!!           |
|           W WW W  AAAAAA  RRRRR   N  N N  II  N  N N  G  GGG   !            |
|           WW  WW  A    A  R   R   N   NN  II  N   NN  G    G                |
|           W    W  A    A  R    R  N    N  II  N    N   GGGG   !!!           |
|                                                                             |
|     For optimal performance we recommend to set                             |
|       NCORE = 2 up to number-of-cores-per-socket                            |
|     NCORE specifies how many cores store one orbital (NPAR=cpu/NCORE).      |
|     This setting can greatly improve the performance of VASP for DFT.       |
|     The default, NCORE=1 might be grossly inefficient on modern             |
|     multi-core architectures or massively parallel machines. Do your        |
|     own testing! More info at https://www.vasp.at/wiki/index.php/NCORE      |
|     Unfortunately you need to use the default for GW and RPA                |
|     calculations (for HF NCORE is supported but not extensively tested      |
|     yet).                                                                   |
|                                                                             |
 -----------------------------------------------------------------------------

 POTCAR:    PAW_PBE C_h 06Feb2004                 
   VRHFIN =C: s2p2                                                                                  
   LEXCH  = PE                                                                                      
   EATOM  =   147.1560 eV,   10.8157 Ry                                                             
                                                                                                    
   TITEL  = PAW_PBE C_h 06Feb2004                                                                   
   LULTRA =        F    use ultrasoft PP ?                                                          
   IUNSCR =        1    unscreen: 0-lin 1-nonlin 2-no                                               
   RPACOR =    0.800    partial core radius                                                         
   POMASS =   12.011; ZVAL   =    4.000    mass and valenz                                          
   RCORE  =    1.100    outmost cutoff radius                                                       
   RWIGS  =    1.630; RWIGS  =    0.863    wigner-seitz radius (au A)                               
   ENMAX  =  700.000; ENMIN  =  500.000 eV                                                          
   ICORE  =        2    local potential                                                             
   LCOR   =        T    correct aug charges                                                         
   LPAW   =        T    paw PP                                                                      
   EAUG   =  946.768                                                                                
   DEXC   =    0.000                                                                                
   RMAX   =    1.128    core radius for proj-oper                                                   
   RAUG   =    1.300    factor for augmentation sphere                                              
   RDEP   =    1.162    radius for radial grids                                                     
   RDEPT  =    1.088    core radius for aug-charge                                                  
                                                                                                    
   Atomic configuration                                                                             
    4 entries                                                                                       
     n  l   j            E        occ.                                                              
     1  0  0.50      -273.3789   2.0000                                                             
     2  0  0.50       -13.7508   2.0000                                                             
     2  1  0.50        -5.2854   2.0000                                                             
     3  2  1.50        -5.4423   0.0000                                                             
   Description                                                                                      
     l       E           TYP  RCUT    TYP  RCUT                                                     
     0    -13.7508458     23  1.100                                                                 
     0     -8.2022199     23  1.100                                                                 
     1     -5.2854383     23  1.100                                                                 
     1      1.1560700     23  1.100                                                                 
     2     -5.4423304      7  1.100                                                                 
  local pseudopotential read in
  partial core-charges read in
  partial kinetic energy density read in
  atomic valenz-charges read in
  non local Contribution for L=           0  read in
    real space projection operators read in
  non local Contribution for L=           0  read in
    real space projection operators read in
  non local Contribution for L=           1  read in
    real space projection operators read in
  non local Contribution for L=           1  read in
    real space projection operators read in
    PAW grid and wavefunctions read in
 
   number of l-projection  operators is LMAX  =           4
   number of lm-projection operators is LMMAX =           8
 
 POTCAR:    PAW_PBE O_h 06Feb2004                 
   VRHFIN =O: s2p4                                                                                  
   LEXCH  = PE                                                                                      
   EATOM  =   432.3788 eV,   31.7789 Ry                                                             
                                                                                                    
   TITEL  = PAW_PBE O_h 06Feb2004                                                                   
   LULTRA =        F    use ultrasoft PP ?                                                          
   IUNSCR =        1    unscreen: 0-lin 1-nonlin 2-no                                               
   RPACOR =    0.800    partial core radius                                                         
   POMASS =   16.000; ZVAL   =    6.000    mass and valenz                                          
   RCORE  =    1.100    outmost cutoff radius                                                       
   RWIGS  =    1.400; RWIGS  =    0.741    wigner-seitz radius (au A)                               
   ENMAX  =  700.000; ENMIN  =  500.000 eV                                                          
   ICORE  =        2    local potential                                                             
   LCOR   =        T    correct aug charges                                                         
   LPAW   =        T    paw PP                                                                      
   EAUG   =  888.804                                                                                
   DEXC   =    0.000                                                                                
   RMAX   =    1.128    core radius for proj-oper                                                   
   RAUG   =    1.300    factor for augmentation sphere                                              
   RDEP   =    1.125    radius for radial grids                                                     
   RDEPT  =    1.088    core radius for aug-charge                                                  
                                                                                                    
   Atomic configuration                                                                             
    4 entries                                                                                       
     n  l   j            E        occ.                                                              
     1  0  0.50      -514.6923   2.0000                                                             
     2  0  0.50       -23.9615   2.0000                                                             
     2  1  0.50        -9.0305   4.0000                                                             
     3  2  1.50        -9.5241   0.0000                                                             
   Description                                                                                      
     l       E           TYP  RCUT    TYP  RCUT                                                     
     0    -23.9615319     23  1.100                                                                 
     0    -25.3221145     23  1.100                                                                 
     1     -9.0304911     23  1.100                                                                 
     1     -5.4802209     23  1.100                                                                 
     2     -9.5240782      7  1.100                                                                 
  local pseudopotential read in
  partial core-charges read in
  partial kinetic energy density read in
  atomic valenz-charges read in
  non local Contribution for L=           0  read in
    real space projection operators read in
  non local Contribution for L=           0  read in
    real space projection operators read in
  non local Contribution for L=           1  read in
    real space projection operators read in
  non local Contribution for L=           1  read in
    real space projection operators read in
    PAW grid and wavefunctions read in
 
   number of l-projection  operators is LMAX  =           4
   number of lm-projection operators is LMMAX =           8
 
 -----------------------------------------------------------------------------
|                                                                             |
|               ----> ADVICE to this user running VASP <----                  |
|                                                                             |
|     You have a (more or less) 'large supercell' and for larger cells it     |
|     might be more efficient to use real-space projection operators.         |
|     Therefore, try LREAL= Auto in the INCAR file.                           |
|     Mind: For very accurate calculation, you might also keep the            |
|     reciprocal projection scheme (i.e. LREAL=.FALSE.).                      |
|                                                                             |
 -----------------------------------------------------------------------------

 -----------------------------------------------------------------------------
|                                                                             |
|               ----> ADVICE to this user running VASP <----                  |
|                                                                             |
|     You enforced a specific xc type in the INCAR file but a different       |
|     type was found in the POTCAR file.                                      |
|     I HOPE YOU KNOW WHAT YOU ARE DOING!                                     |
|                                                                             |
 -----------------------------------------------------------------------------

  PAW_PBE C_h 06Feb2004                 :
 energy of atom  1       EATOM= -147.1560
 kinetic energy error for atom=    0.0031 (will be added to EATOM!!)
  PAW_PBE O_h 06Feb2004                 :
 energy of atom  2       EATOM= -432.3788
 kinetic energy error for atom=    0.0171 (will be added to EATOM!!)
 
 
 POSCAR: C  O
  positions in cartesian coordinates
  No initial velocities read in
 exchange correlation table for  LEXCH =       40
   RHO(1)=    0.500       N(1)  =     2000
   RHO(2)=  100.500       N(2)  =     4000
 


--------------------------------------------------------------------------------------------------------


 ion  position               nearest neighbor table
   1  0.972  0.000  0.001-  50 1.42   2 1.42  42 1.42
   2  0.039  0.134  0.000-   5 1.42   7 1.42   1 1.42
   3  0.172  0.000  0.000-  42 1.42  44 1.42   4 1.42
   4  0.239  0.134  0.000-   7 1.42   3 1.42  23 1.42
   5  0.972  0.200  0.000-   6 1.42   2 1.42  34 1.42
   6  0.039  0.334  0.000-   5 1.42  21 1.42  11 1.42
   7  0.172  0.200  0.000-   8 1.42   2 1.42   4 1.42
   8  0.239  0.334  0.000-  13 1.42   7 1.42  21 1.42
   9  0.372  0.000  0.000-  10 1.42  44 1.42  46 1.42
  10  0.439  0.134  0.000-  27 1.42   9 1.42  23 1.42
  11  0.972  0.400  0.001-  12 1.42  36 1.42   6 1.42
  12  0.039  0.534  0.001-  25 1.42  11 1.42  17 1.42
  13  0.372  0.400  0.000-   8 1.42  14 1.42  24 1.42
  14  0.439  0.534  0.000-  13 1.42  29 1.42  19 1.42
  15  0.572  0.000  0.001-  46 1.42  16 1.42  48 1.42
  16  0.639  0.134  0.001-  15 1.42  35 1.42  27 1.42
  17  0.972  0.600  0.001-  38 1.42  18 1.42  12 1.42
  18  0.039  0.734  0.001-  43 1.42  41 1.42  17 1.42
  19  0.572  0.600  0.000-  14 1.42  20 1.42  32 1.42
  20  0.639  0.734  0.001-  49 1.42  19 1.42  47 1.42
  21  0.172  0.400  0.000-  22 1.42   8 1.42   6 1.42
  22  0.239  0.534  0.000-  21 1.42  29 1.42  25 1.42
  23  0.372  0.200  0.000-  10 1.42   4 1.42  24 1.42
  24  0.439  0.334  0.000-  13 1.42  31 1.42  23 1.42
  25  0.172  0.600  0.001-  26 1.42  12 1.42  22 1.42
  26  0.239  0.734  0.001-  25 1.42  45 1.42  43 1.42
  27  0.572  0.200  0.000-  10 1.42  28 1.42  16 1.42
  28  0.639  0.334  0.000-  27 1.42  37 1.42  31 1.42
  29  0.372  0.600  0.000-  22 1.42  14 1.42  30 1.42
  30  0.439  0.734  0.000-  47 1.42  29 1.42  45 1.42
  31  0.572  0.400  0.000-  32 1.42  28 1.42  24 1.42
  32  0.639  0.534  0.000-  31 1.42  39 1.42  19 1.42
  33  0.772  0.000  0.001-  34 1.42  48 1.42  50 1.42
  34  0.839  0.134  0.001-  33 1.42   5 1.42  35 1.42
  35  0.772  0.200  0.001-  36 1.42  16 1.42  34 1.42
  36  0.839  0.334  0.001-  35 1.42  11 1.42  37 1.42
  37  0.772  0.400  0.001-  28 1.42  38 1.42  36 1.42
  38  0.839  0.534  0.001-  17 1.42  37 1.42  39 1.42
  39  0.772  0.600  0.001-  40 1.42  38 1.42  32 1.42
  40  0.839  0.734  0.001-  39 1.42  49 1.42  41 1.42
  41  0.972  0.800  0.001-  18 1.42  42 1.42  40 1.42
  42  0.039  0.934  0.001-   3 1.42  41 1.42   1 1.42
  43  0.172  0.800  0.001-  18 1.42  44 1.42  26 1.42
  44  0.239  0.934  0.001-   9 1.42  43 1.42   3 1.42
  45  0.372  0.800  0.001-  26 1.42  46 1.42  30 1.42
  46  0.439  0.934  0.001-  15 1.42  45 1.42   9 1.42
  47  0.572  0.800  0.001-  30 1.42  48 1.42  20 1.42
  48  0.639  0.934  0.001-  47 1.42  33 1.42  15 1.42
  49  0.772  0.800  0.001-  50 1.42  20 1.42  40 1.42
  50  0.839  0.934  0.001-  49 1.42   1 1.42  33 1.42
  51  0.373  0.251  0.130-  52 1.18  53 1.18
  52  0.421  0.189  0.133-  51 1.18
  53  0.325  0.313  0.128-  51 1.18
 
  LATTYP: Found a hexagonal cell.
 ALAT       =    12.3250000000
 C/A-ratio  =     2.0283975659
  
  Lattice vectors:
  
 A1 = (  12.3250000000,   0.0000000000,   0.0000000000)
 A2 = (  -6.1625000000,  10.6737631016,   0.0000000000)
 A3 = (   0.0000000000,   0.0000000000,  25.0000000000)


Analysis of symmetry for initial positions (statically):
=====================================================================
 Subroutine PRICEL returns:
 Original cell was already a primitive cell.
 

 Routine SETGRP: Setting up the symmetry group for a 
 hexagonal supercell.


 Subroutine GETGRP returns: Found  1 space group operations
 (whereof  1 operations were pure point group operations)
 out of a pool of 24 trial point group operations.


The static configuration has the point symmetry C_1 .


Analysis of symmetry for dynamics (positions and initial velocities):
=====================================================================
 Subroutine PRICEL returns:
 Original cell was already a primitive cell.
 

 Routine SETGRP: Setting up the symmetry group for a 
 hexagonal supercell.


 Subroutine GETGRP returns: Found  1 space group operations
 (whereof  1 operations were pure point group operations)
 out of a pool of 24 trial point group operations.


The dynamic configuration has the point symmetry C_1 .


 Subroutine INISYM returns: Found  1 space group operations
 (whereof  1 operations are pure point group operations),
 and found     1 'primitive' translations


----------------------------------------------------------------------------------------

                                     Primitive cell                                     

  volume of cell :    3288.8533

  direct lattice vectors                    reciprocal lattice vectors
    12.325000000  0.000000000  0.000000000     0.081135903  0.046843835  0.000000000
    -6.162500000 10.673763102  0.000000000     0.000000000  0.093687670  0.000000000
     0.000000000  0.000000000 25.000000000     0.000000000  0.000000000  0.040000000

  length of vectors
    12.325000000 12.325000000 25.000000000     0.093687670  0.093687670  0.040000000

  position of ions in fractional coordinates (direct lattice)
     0.972450841  0.000320818  0.000566711
     0.039118382  0.133659505  0.000440173
     0.172443627  0.000295449  0.000499628
     0.239096278  0.133647917  0.000256468
     0.972452058  0.200322012  0.000485219
     0.039128360  0.333643771  0.000444150
     0.172451764  0.200354552  0.000219167
     0.239124359  0.333665720  0.000072260
     0.372465565  0.000324403  0.000453913
     0.439137473  0.133619939  0.000258338
     0.972449824  0.400309362  0.000547611
     0.039124981  0.533636789  0.000573410
     0.372416176  0.400329481  0.000000000
     0.439099602  0.533638981  0.000232414
     0.572443676  0.000312125  0.000559580
     0.639110207  0.133631751  0.000547275
     0.972452703  0.600305653  0.000640289
     0.039124495  0.733640359  0.000654513
     0.572433471  0.600306242  0.000402895
     0.639111888  0.733641879  0.000527905
     0.172454630  0.400318228  0.000289045
     0.239120185  0.533636548  0.000378509
     0.372459750  0.200295993  0.000088997
     0.439107096  0.333673419  0.000055762
     0.172452155  0.600311506  0.000524340
     0.239123371  0.733638574  0.000575129
     0.572431082  0.200289171  0.000413296
     0.639112773  0.333618630  0.000462376
     0.372439808  0.600308022  0.000362844
     0.439116090  0.733637858  0.000494190
     0.572469358  0.400320504  0.000339918
     0.639119408  0.533650873  0.000459610
     0.772445723  0.000315427  0.000596161
     0.839116277  0.133640203  0.000575306
     0.772440513  0.200307432  0.000581033
     0.839120241  0.333635728  0.000585467
     0.772446320  0.400298367  0.000582978
     0.839118980  0.533633964  0.000621100
     0.772456143  0.600308173  0.000595712
     0.839115033  0.733643180  0.000631512
     0.972455313  0.800305582  0.000652233
     0.039114714  0.933643289  0.000598051
     0.172457971  0.800312211  0.000623372
     0.239134551  0.933647193  0.000544850
     0.372451396  0.800316674  0.000551399
     0.439124489  0.933644769  0.000541430
     0.572441101  0.800310054  0.000534535
     0.639115067  0.933638985  0.000587644
     0.772445098  0.800313187  0.000602062
     0.839116614  0.933644338  0.000606830
     0.373021009  0.251226878  0.129992105
     0.420879805  0.189313152  0.132568979
     0.325156981  0.313167186  0.127613910

  ion indices of the primitive-cell ions
   primitive index   ion index
                 1           1
                 2           2
                 3           3
                 4           4
                 5           5
                 6           6
                 7           7
                 8           8
                 9           9
                10          10
                11          11
                12          12
                13          13
                14          14
                15          15
                16          16
                17          17
                18          18
                19          19
                20          20
                21          21
                22          22
                23          23
                24          24
                25          25
                26          26
                27          27
                28          28
                29          29
                30          30
                31          31
                32          32
                33          33
                34          34
                35          35
                36          36
                37          37
                38          38
                39          39
                40          40
                41          41
                42          42
                43          43
                44          44
                45          45
                46          46
                47          47
                48          48
                49          49
                50          50
                51          51
                52          52
                53          53

----------------------------------------------------------------------------------------

 
 
 KPOINTS: auto                                    

Automatic generation of k-mesh.
 Grid dimensions read from file:
 generate k-points for:    1    1    1

 Generating k-lattice:

  Cartesian coordinates                     Fractional coordinates (reciprocal lattice)
     0.081135903  0.046843835  0.000000000     1.000000000 -0.000000000  0.000000000
     0.000000000  0.093687670  0.000000000     0.000000000  1.000000000  0.000000000
     0.000000000  0.000000000  0.040000000     0.000000000  0.000000000  1.000000000

  Length of vectors
     0.093687670  0.093687670  0.040000000

  Shift w.r.t. Gamma in fractional coordinates (k-lattice)
     0.000000000  0.000000000  0.000000000

 
 Subroutine IBZKPT returns following result:
 ===========================================
 
 Found      1 irreducible k-points:
 
 Following reciprocal coordinates:
            Coordinates               Weight
  0.000000  0.000000  0.000000      1.000000
 
 Following cartesian coordinates:
            Coordinates               Weight
  0.000000  0.000000  0.000000      1.000000
 


--------------------------------------------------------------------------------------------------------




 Dimension of arrays:
   k-points           NKPTS =      1   k-points in BZ     NKDIM =      1   number of bands    NBANDS=    140
   number of dos      NEDOS =    301   number of ions     NIONS =     53
   non local maximal  LDIM  =      4   non local SUM 2l+1 LMDIM =      8
   total plane-waves  NPLWV = ******
   max r-space proj   IRMAX =      1   max aug-charges    IRDMAX=  10008
   dimension x,y,z NGX =   128 NGY =  128 NGZ =  270
   dimension x,y,z NGXF=   256 NGYF=  256 NGZF=  540
   support grid    NGXF=   256 NGYF=  256 NGZF=  540
   ions per type =              51   2
   NGX,Y,Z   is equivalent  to a cutoff of  17.27, 17.27, 17.95 a.u.
   NGXF,Y,Z  is equivalent  to a cutoff of  34.53, 34.53, 35.91 a.u.

 SYSTEM =  unknown system                          
 POSCAR =  C  O                                    

 Startparameter for this run:
   NWRITE =      2    write-flag & timer
   PREC   = accura    normal or accurate (medium, high low for compatibility)
   ISTART =      0    job   : 0-new  1-cont  2-samecut
   ICHARG =      2    charge: 1-file 2-atom 10-const
   ISPIN  =      1    spin polarized calculation?
   LNONCOLLINEAR =      F non collinear calculations
   LSORBIT =      F    spin-orbit coupling
   INIWAV =      1    electr: 0-lowe 1-rand  2-diag
   LASPH  =      F    aspherical Exc in radial PAW
 Electronic Relaxation 1
   ENCUT  = 1000.0 eV  73.50 Ry    8.57 a.u.  31.78 31.78 64.46*2*pi/ulx,y,z
   ENINI  = 1000.0     initial cutoff
   ENAUG  =  946.8 eV  augmentation charge cutoff
   NELM   =     60;   NELMIN=  2; NELMDL= -5     # of ELM steps 
   EDIFF  = 0.1E-05   stopping-criterion for ELM
   LREAL  =      F    real-space projection
   NLSPLINE    = F    spline interpolate recip. space projectors
   LCOMPAT=      F    compatible to vasp.4.4
   GGA_COMPAT  = T    GGA compatible to vasp.4.4-vasp.4.6
   LMAXPAW     = -100 max onsite density
   LMAXMIX     =    2 max onsite mixed and CHGCAR
   VOSKOWN=      0    Vosko Wilk Nusair interpolation
   ROPT   =    0.00000   0.00000
 Ionic relaxation
   EDIFFG = 0.1E-04   stopping-criterion for IOM
   NSW    =      0    number of steps for IOM
   NBLOCK =      1;   KBLOCK =      1    inner block; outer block 
   IBRION =     -1    ionic relax: 0-MD 1-quasi-New 2-CG
   NFREE  =      0    steps in history (QN), initial steepest desc. (CG)
   ISIF   =      0    stress and relaxation
   IWAVPR =     10    prediction:  0-non 1-charg 2-wave 3-comb
   ISYM   =      2    0-nonsym 1-usesym 2-fastsym
   LCORR  =      T    Harris-Foulkes like correction to forces

   POTIM  = 0.5000    time-step for ionic-motion
   TEIN   =    0.0    initial temperature
   TEBEG  =    0.0;   TEEND  =   0.0 temperature during run
   SMASS  =  -3.00    Nose mass-parameter (am)
   estimated Nose-frequenzy (Omega)   =  0.10E-29 period in steps = 0.13E+47 mass=  -0.347E-26a.u.
   SCALEE = 1.0000    scale energy and forces
   NPACO  =    256;   APACO  = 16.0  distance and # of slots for P.C.
   PSTRESS=    0.0 pullay stress

  Mass of Ions in am
   POMASS =  12.01 16.00
  Ionic Valenz
   ZVAL   =   4.00  6.00
  Atomic Wigner-Seitz radii
   RWIGS  =  -1.00 -1.00
  virtual crystal weights 
   VCA    =   1.00  1.00
   NELECT =     216.0000    total number of electrons
   NUPDOWN=      -1.0000    fix difference up-down

 DOS related values:
   EMIN   =  10.00;   EMAX   =-10.00  energy-range for DOS
   EFERMI =   0.00
   ISMEAR =     0;   SIGMA  =   0.01  broadening in eV -4-tet -1-fermi 0-gaus

 Electronic relaxation 2 (details)
   IALGO  =     58    algorithm
   LDIAG  =      T    sub-space diagonalisation (order eigenvalues)
   LSUBROT=      F    optimize rotation matrix (better conditioning)
   TURBO    =      0    0=normal 1=particle mesh
   IRESTART =      0    0=no restart 2=restart with 2 vectors
   NREBOOT  =      0    no. of reboots
   NMIN     =      0    reboot dimension
   EREF     =   0.00    reference energy to select bands
   IMIX   =      4    mixing-type and parameters
     AMIX     =   0.40;   BMIX     =  1.00
     AMIX_MAG =   1.60;   BMIX_MAG =  1.00
     AMIN     =   0.10
     WC   =   100.;   INIMIX=   1;  MIXPRE=   1;  MAXMIX= -45

 Intra band minimization:
   WEIMIN = 0.0000     energy-eigenvalue tresh-hold
   EBREAK =  0.18E-08  absolut break condition
   DEPER  =   0.30     relativ break condition  

   TIME   =   0.40     timestep for ELM

  volume/ion in A,a.u.               =      62.05       418.76
  Fermi-wavevector in a.u.,A,eV,Ry     =   0.660508  1.248179  5.935820  0.436270
  Thomas-Fermi vector in A             =   1.732977
 
 Write flags
   LWAVE        =      F    write WAVECAR
   LDOWNSAMPLE  =      F    k-point downsampling of WAVECAR
   LCHARG       =      T    write CHGCAR
   LVTOT        =      F    write LOCPOT, total local potential
   LVHAR        =      F    write LOCPOT, Hartree potential only
   LELF         =      F    write electronic localiz. function (ELF)
   LORBIT       =      0    0 simple, 1 ext, 2 COOP (PROOUT), +10 PAW based schemes


 Dipole corrections
   LMONO  =      F    monopole corrections only (constant potential shift)
   LDIPOL =      F    correct potential (dipole corrections)
   IDIPOL =      0    1-x, 2-y, 3-z, 4-all directions 
   EPSILON=  1.0000000 bulk dielectric constant

 Exchange correlation treatment:
   GGA     =    RE    GGA type
   LEXCH   =    40    internal setting for exchange type
   VOSKOWN=      0    Vosko Wilk Nusair interpolation
   LHFCALC =     F    Hartree Fock is set to
   LHFONE  =     F    Hartree Fock one center treatment
   AEXX    =    0.0000 exact exchange contribution

 Linear response parameters
   LEPSILON=     F    determine dielectric tensor
   LRPA    =     F    only Hartree local field effects (RPA)
   LNABLA  =     F    use nabla operator in PAW spheres
   LVEL    =     F    velocity operator in full k-point grid
   LINTERFAST=   F  fast interpolation
   KINTER  =     0    interpolate to denser k-point grid
   CSHIFT  =0.1000    complex shift for real part using Kramers Kronig
   OMEGAMAX=  -1.0    maximum frequency
   DEG_THRESHOLD= 0.2000000E-02 threshold for treating states as degnerate
   RTIME   =   -0.100 relaxation time in fs
  (WPLASMAI=    0.000 imaginary part of plasma frequency in eV, 0.658/RTIME)
   DFIELD  = 0.0000000 0.0000000 0.0000000 field for delta impulse in time
 
 Orbital magnetization related:
   ORBITALMAG=     F  switch on orbital magnetization
   LCHIMAG   =     F  perturbation theory with respect to B field
   DQ        =  0.001000  dq finite difference perturbation B field
   LLRAUG    =     F  two centre corrections for induced B field



--------------------------------------------------------------------------------------------------------


 Static calculation
 charge density and potential will be updated during run
 non-spin polarized calculation
 Conjugate gradient for all bands (Freysoldt, et al. PRB 79, 241103 (2009))
 preconditioned conjugated gradient                                        
 perform sub-space diagonalisation
    before iterative eigenvector-optimisation
 modified Broyden-mixing scheme, WC =      100.0
 initial mixing is a Kerker type mixing with AMIX =  0.4000 and BMIX =      1.0000
 Hartree-type preconditioning will be used
 using additional bands           32
 reciprocal scheme for non local part
 use partial core corrections
 no Harris-corrections to forces 
 use gradient corrections 
 use of overlap-Matrix (Vanderbilt PP)
 Gauss-broadening in eV      SIGMA  =   0.01


--------------------------------------------------------------------------------------------------------


  energy-cutoff  :     1000.00
  volume of cell :     3288.85
      direct lattice vectors                 reciprocal lattice vectors
    12.325000000  0.000000000  0.000000000     0.081135903  0.046843835  0.000000000
    -6.162500000 10.673763102  0.000000000     0.000000000  0.093687670  0.000000000
     0.000000000  0.000000000 25.000000000     0.000000000  0.000000000  0.040000000

  length of vectors
    12.325000000 12.325000000 25.000000000     0.093687670  0.093687670  0.040000000


 
 k-points in units of 2pi/SCALE and weight: auto                                    
   0.00000000  0.00000000  0.00000000       1.000
 
 k-points in reciprocal lattice and weights: auto                                    
   0.00000000  0.00000000  0.00000000       1.000
 
 position of ions in fractional coordinates (direct lattice) 
   0.97245084  0.00032082  0.00056671
   0.03911838  0.13365950  0.00044017
   0.17244363  0.00029545  0.00049963
   0.23909628  0.13364792  0.00025647
   0.97245206  0.20032201  0.00048522
   0.03912836  0.33364377  0.00044415
   0.17245176  0.20035455  0.00021917
   0.23912436  0.33366572  0.00007226
   0.37246557  0.00032440  0.00045391
   0.43913747  0.13361994  0.00025834
   0.97244982  0.40030936  0.00054761
   0.03912498  0.53363679  0.00057341
   0.37241618  0.40032948  0.00000000
   0.43909960  0.53363898  0.00023241
   0.57244368  0.00031213  0.00055958
   0.63911021  0.13363175  0.00054727
   0.97245270  0.60030565  0.00064029
   0.03912449  0.73364036  0.00065451
   0.57243347  0.60030624  0.00040289
   0.63911189  0.73364188  0.00052791
   0.17245463  0.40031823  0.00028904
   0.23912018  0.53363655  0.00037851
   0.37245975  0.20029599  0.00008900
   0.43910710  0.33367342  0.00005576
   0.17245216  0.60031151  0.00052434
   0.23912337  0.73363857  0.00057513
   0.57243108  0.20028917  0.00041330
   0.63911277  0.33361863  0.00046238
   0.37243981  0.60030802  0.00036284
   0.43911609  0.73363786  0.00049419
   0.57246936  0.40032050  0.00033992
   0.63911941  0.53365087  0.00045961
   0.77244572  0.00031543  0.00059616
   0.83911628  0.13364020  0.00057531
   0.77244051  0.20030743  0.00058103
   0.83912024  0.33363573  0.00058547
   0.77244632  0.40029837  0.00058298
   0.83911898  0.53363396  0.00062110
   0.77245614  0.60030817  0.00059571
   0.83911503  0.73364318  0.00063151
   0.97245531  0.80030558  0.00065223
   0.03911471  0.93364329  0.00059805
   0.17245797  0.80031221  0.00062337
   0.23913455  0.93364719  0.00054485
   0.37245140  0.80031667  0.00055140
   0.43912449  0.93364477  0.00054143
   0.57244110  0.80031005  0.00053453
   0.63911507  0.93363899  0.00058764
   0.77244510  0.80031319  0.00060206
   0.83911661  0.93364434  0.00060683
   0.37302101  0.25122688  0.12999210
   0.42087980  0.18931315  0.13256898
   0.32515698  0.31316719  0.12761391
 
 position of ions in cartesian coordinates  (Angst):
  11.98347958  0.00342433  0.01416777
  -0.34154264  1.42664989  0.01100432
   2.12354700  0.00315355  0.01249070
   2.12325634  1.42652621  0.00641170
  10.75098721  2.13818970  0.01213047
  -1.57382270  3.56123457  0.01110375
   0.89078307  2.13853702  0.00547917
   0.89099273  3.56146885  0.00180651
   4.58863896  0.00346260  0.01134782
   4.58893648  1.42622757  0.00645846
   9.51853763  4.27280730  0.01369027
  -2.80632132  5.69591267  0.01433526
   2.12299894  4.27302204  0.00000000
   2.12335237  5.69593607  0.00581036
   7.05344483  0.00333155  0.01398950
   7.05352764  1.42635365  0.01368187
   8.28609598  6.40752033  0.01600723
  -4.03884931  7.83070339  0.01636283
   3.35585531  6.40752662  0.01007237
   3.35598594  7.83071962  0.01319763
  -0.34145776  4.27290193  0.00722612
  -0.34137895  5.69591010  0.00946273
   3.35624236  2.13791198  0.00222492
   3.35573251  3.56155103  0.00139405
  -1.57394684  6.40758280  0.01310850
  -1.57385216  7.83068434  0.01437823
   5.82093107  2.13783916  0.01033241
   5.82114012  3.56096622  0.01155939
   0.89092245  6.40754561  0.00907111
   0.89106251  7.83067670  0.01235474
   4.58870974  4.27292622  0.00849795
   4.58852320  5.69606300  0.01149026
   9.51844972  0.00336679  0.01490402
   9.51855036  1.42644387  0.01438264
   8.28593477  2.13803408  0.01452582
   8.28612680  3.56114872  0.01463668
   7.05356221  4.27268994  0.01457444
   7.05362213  5.69588251  0.01552751
   5.82112285  6.40754723  0.01489279
   5.82101669  7.83073350  0.01578780
   7.05362858  8.54227219  0.01630582
  -5.27148792  9.96548729  0.01495127
  -2.80637951  8.54234295  0.01558431
  -2.80626749  9.96552896  0.01362126
  -0.34148805  8.54239058  0.01378498
  -0.34137657  9.96550309  0.01353576
   2.12342586  8.54231992  0.01336337
   2.12354296  9.96544135  0.01469111
   4.58845581  8.54235337  0.01505154
   4.58852904  9.96549848  0.01517076
   3.04929830  2.68153618  3.24980262
   4.02070129  2.02068374  3.31422448
   2.07766701  3.34267235  3.19034775
 


--------------------------------------------------------------------------------------------------------


 k-point   1 :   0.0000 0.0000 0.0000  plane waves:  236157

 maximum and minimum number of plane-waves per node :     59046    59034

 maximum number of plane-waves:    236157
 maximum index in each direction: 
   IXMAX=   31   IYMAX=   31   IZMAX=   64
   IXMIN=  -31   IYMIN=  -31   IZMIN=  -64


 parallel 3D FFT for wavefunctions:
    minimum data exchange during FFTs selected (reduces bandwidth)
 parallel 3D FFT for charge:
    minimum data exchange during FFTs selected (reduces bandwidth)


 total amount of memory used by VASP MPI-rank0   215378. kBytes
=======================================================================

   base      :      30000. kBytes
   nonl-proj :      57634. kBytes
   fftplans  :      45914. kBytes
   grid      :      67588. kBytes
   one-center:         43. kBytes
   wavefun   :      14199. kBytes
 
     INWAV:  cpu time    0.0000: real time    0.0000
 Broyden mixing: mesh for mixing (old mesh)
   NGX = 63   NGY = 63   NGZ =129
  (NGX  =256   NGY  =256   NGZ  =540)
  gives a total of 512001 points

 initial charge density was supplied:
 charge density of overlapping atoms calculated
 number of electron     216.0000000 magnetization 
 keeping initial charge density in first step


--------------------------------------------------------------------------------------------------------


 Maximum index for augmentation-charges          471 (set IRDMAX)


--------------------------------------------------------------------------------------------------------


 First call to EWALD:  gamma=   0.119
 Maximum number of real-space cells 4x 4x 2
 Maximum number of reciprocal cells 2x 2x 4

    FEWALD:  cpu time    0.0025: real time    0.0025


--------------------------------------- Iteration      1(   1)  ---------------------------------------


    POTLOK:  cpu time    0.3943: real time    0.3980
    SETDIJ:  cpu time    0.0057: real time    0.0060
    TRIAL :  cpu time    5.6110: real time    5.6652
    CORREC:  cpu time    0.0005: real time    0.0007
    --------------------------------------------
      LOOP:  cpu time    6.0143: real time    6.1278

 eigenvalue-minimisations  :   280
 total energy-change (2. order) : 0.2785720E+04  (-0.1023390E+05)
 number of electron     216.0000000 magnetization 
 augmentation part      216.0000000 magnetization 

 Free energy of the ion-electron system (eV)
  ---------------------------------------------------
  alpha Z        PSCENC =        47.94900195
  Ewald energy   TEWEN  =     47374.49367880
  -Hartree energ DENC   =    -53443.19186423
  -exchange      EXHF   =         0.00000000
  -V(xc)+E(xc)   XCENC  =       416.11077506
  PAW double counting   =      6538.03749920    -6258.26020123
  entropy T*S    EENTRO =        -0.00000000
  eigenvalues    EBANDS =      -253.72789159
  atomic energy  EATOM  =      8364.30921166
  ---------------------------------------------------
  free energy    TOTEN  =      2785.72020963 eV

  energy without entropy =     2785.72020963  energy(sigma->0) =     2785.72020963


--------------------------------------------------------------------------------------------------------




--------------------------------------- Iteration      1(   2)  ---------------------------------------


    TRIAL :  cpu time    8.0461: real time    8.1373
    CORREC:  cpu time    0.0001: real time    0.0001
    --------------------------------------------
      LOOP:  cpu time    8.0914: real time    8.1875

 eigenvalue-minimisations  :   448
 total energy-change (2. order) :-0.2439554E+04  (-0.2281721E+04)
 number of electron     216.0000000 magnetization 
 augmentation part      216.0000000 magnetization 

 Free energy of the ion-electron system (eV)
  ---------------------------------------------------
  alpha Z        PSCENC =        47.94900195
  Ewald energy   TEWEN  =     47374.49367880
  -Hartree energ DENC   =    -53443.19186423
  -exchange      EXHF   =         0.00000000
  -V(xc)+E(xc)   XCENC  =       416.11077506
  PAW double counting   =      6538.03749920    -6258.26020123
  entropy T*S    EENTRO =        -0.00000000
  eigenvalues    EBANDS =     -2693.28183663
  atomic energy  EATOM  =      8364.30921166
  ---------------------------------------------------
  free energy    TOTEN  =       346.16626460 eV

  energy without entropy =      346.16626460  energy(sigma->0) =      346.16626460


--------------------------------------------------------------------------------------------------------




--------------------------------------- Iteration      1(   3)  ---------------------------------------


    TRIAL :  cpu time    7.2091: real time    7.2943
    CORREC:  cpu time    0.0001: real time    0.0001
    --------------------------------------------
      LOOP:  cpu time    7.2672: real time    7.3531

 eigenvalue-minimisations  :   392
 total energy-change (2. order) :-0.7923711E+03  (-0.7806224E+03)
 number of electron     216.0000000 magnetization 
 augmentation part      216.0000000 magnetization 

 Free energy of the ion-electron system (eV)
  ---------------------------------------------------
  alpha Z        PSCENC =        47.94900195
  Ewald energy   TEWEN  =     47374.49367880
  -Hartree energ DENC   =    -53443.19186423
  -exchange      EXHF   =         0.00000000
  -V(xc)+E(xc)   XCENC  =       416.11077506
  PAW double counting   =      6538.03749920    -6258.26020123
  entropy T*S    EENTRO =        -0.00000000
  eigenvalues    EBANDS =     -3485.65292802
  atomic energy  EATOM  =      8364.30921166
  ---------------------------------------------------
  free energy    TOTEN  =      -446.20482680 eV

  energy without entropy =     -446.20482680  energy(sigma->0) =     -446.20482680


--------------------------------------------------------------------------------------------------------




--------------------------------------- Iteration      1(   4)  ---------------------------------------


    TRIAL :  cpu time    6.3785: real time    6.4378
    CORREC:  cpu time    0.0001: real time    0.0001
    --------------------------------------------
      LOOP:  cpu time    6.3839: real time    6.4774

 eigenvalue-minimisations  :   336
 total energy-change (2. order) :-0.5069482E+02  (-0.5029744E+02)
 number of electron     216.0000000 magnetization 
 augmentation part      216.0000000 magnetization 

 Free energy of the ion-electron system (eV)
  ---------------------------------------------------
  alpha Z        PSCENC =        47.94900195
  Ewald energy   TEWEN  =     47374.49367880
  -Hartree energ DENC   =    -53443.19186423
  -exchange      EXHF   =         0.00000000
  -V(xc)+E(xc)   XCENC  =       416.11077506
  PAW double counting   =      6538.03749920    -6258.26020123
  entropy T*S    EENTRO =        -0.00000000
  eigenvalues    EBANDS =     -3536.34774306
  atomic energy  EATOM  =      8364.30921166
  ---------------------------------------------------
  free energy    TOTEN  =      -496.89964184 eV

  energy without entropy =     -496.89964184  energy(sigma->0) =     -496.89964184


--------------------------------------------------------------------------------------------------------




--------------------------------------- Iteration      1(   5)  ---------------------------------------


    TRIAL :  cpu time    7.2218: real time    7.2876
    CORREC:  cpu time    0.0001: real time    0.0001
    CHARGE:  cpu time    0.3127: real time    0.3158
    --------------------------------------------
      LOOP:  cpu time    7.5715: real time    7.6449

 eigenvalue-minimisations  :   392
 total energy-change (2. order) :-0.1486611E+01  (-0.1482168E+01)
 number of electron     216.0000000 magnetization 
 augmentation part       -0.3183869 magnetization 

 Free energy of the ion-electron system (eV)
  ---------------------------------------------------
  alpha Z        PSCENC =        47.94900195
  Ewald energy   TEWEN  =     47374.49367880
  -Hartree energ DENC   =    -53443.19186423
  -exchange      EXHF   =         0.00000000
  -V(xc)+E(xc)   XCENC  =       416.11077506
  PAW double counting   =      6538.03749920    -6258.26020123
  entropy T*S    EENTRO =        -0.00000000
  eigenvalues    EBANDS =     -3537.83435375
  atomic energy  EATOM  =      8364.30921166
  ---------------------------------------------------
  free energy    TOTEN  =      -498.38625252 eV

  energy without entropy =     -498.38625252  energy(sigma->0) =     -498.38625252


--------------------------------------------------------------------------------------------------------




--------------------------------------- Iteration      1(   6)  ---------------------------------------


    POTLOK:  cpu time    0.3789: real time    0.3818
    SETDIJ:  cpu time    0.0029: real time    0.0029
    TRIAL :  cpu time    2.6729: real time    2.6977
    CORREC:  cpu time    1.0646: real time    1.0735
    CHARGE:  cpu time    0.3254: real time    0.3281
    --------------------------------------------
      LOOP:  cpu time    4.5232: real time    4.5644

 eigenvalue-minimisations  :     0
 total energy-change (2. order) : 0.4833278E+02  (-0.1433185E+02)
 number of electron     216.0000000 magnetization 
 augmentation part       -0.4073008 magnetization 

 Free energy of the ion-electron system (eV)
  ---------------------------------------------------
  alpha Z        PSCENC =        47.94900195
  Ewald energy   TEWEN  =     47374.49367880
  -Hartree energ DENC   =    -54870.23024600
  -exchange      EXHF   =         0.00000000
  -V(xc)+E(xc)   XCENC  =       462.85208950
  PAW double counting   =    104481.28089668  -104206.83726044
  entropy T*S    EENTRO =        -0.00000000
  eigenvalues    EBANDS =     -2103.87084820
  atomic energy  EATOM  =      8364.30921166
  ---------------------------------------------------
  free energy    TOTEN  =      -450.05347604 eV

  energy without entropy =     -450.05347604  energy(sigma->0) =     -450.05347604


--------------------------------------------------------------------------------------------------------




--------------------------------------- Iteration      1(   7)  ---------------------------------------


    POTLOK:  cpu time    0.3816: real time    0.3851
    SETDIJ:  cpu time    0.0029: real time    0.0029
    TRIAL :  cpu time    2.6680: real time    2.6976
    CORREC:  cpu time    1.0663: real time    1.0754
    CHARGE:  cpu time    0.3130: real time    0.3156
    --------------------------------------------
      LOOP:  cpu time    4.4587: real time    4.5047

 eigenvalue-minimisations  :     0
 total energy-change (2. order) :-0.1436250E+02  (-0.1702721E+01)
 number of electron     216.0000000 magnetization 
 augmentation part       -0.4521491 magnetization 

 Free energy of the ion-electron system (eV)
  ---------------------------------------------------
  alpha Z        PSCENC =        47.94900195
  Ewald energy   TEWEN  =     47374.49367880
  -Hartree energ DENC   =    -54376.24353564
  -exchange      EXHF   =         0.00000000
  -V(xc)+E(xc)   XCENC  =       446.86358594
  PAW double counting   =    120614.99313907  -120338.49141492
  entropy T*S    EENTRO =        -0.00000000
  eigenvalues    EBANDS =     -2598.28964409
  atomic energy  EATOM  =      8364.30921166
  ---------------------------------------------------
  free energy    TOTEN  =      -464.41597722 eV

  energy without entropy =     -464.41597722  energy(sigma->0) =     -464.41597722


--------------------------------------------------------------------------------------------------------




--------------------------------------- Iteration      1(   8)  ---------------------------------------


    POTLOK:  cpu time    0.3808: real time    0.3832
    SETDIJ:  cpu time    0.0026: real time    0.0026
    TRIAL :  cpu time    2.6775: real time    2.7019
    CORREC:  cpu time    1.0661: real time    1.0748
    CHARGE:  cpu time    0.3130: real time    0.3154
    --------------------------------------------
      LOOP:  cpu time    4.5251: real time    4.5654

 eigenvalue-minimisations  :     0
 total energy-change (2. order) :-0.1702740E+01  (-0.4388094E+00)
 number of electron     216.0000000 magnetization 
 augmentation part       -0.4668092 magnetization 

 Free energy of the ion-electron system (eV)
  ---------------------------------------------------
  alpha Z        PSCENC =        47.94900195
  Ewald energy   TEWEN  =     47374.49367880
  -Hartree energ DENC   =    -54351.43853005
  -exchange      EXHF   =         0.00000000
  -V(xc)+E(xc)   XCENC  =       446.29128118
  PAW double counting   =    124841.87595654  -124565.08920713
  entropy T*S    EENTRO =        -0.00000000
  eigenvalues    EBANDS =     -2624.51011000
  atomic energy  EATOM  =      8364.30921166
  ---------------------------------------------------
  free energy    TOTEN  =      -466.11871703 eV

  energy without entropy =     -466.11871703  energy(sigma->0) =     -466.11871703


--------------------------------------------------------------------------------------------------------




--------------------------------------- Iteration      1(   9)  ---------------------------------------


    POTLOK:  cpu time    0.3790: real time    0.3816
    SETDIJ:  cpu time    0.0027: real time    0.0027
    TRIAL :  cpu time    2.6740: real time    2.6982
    CORREC:  cpu time    1.0655: real time    1.0741
    CHARGE:  cpu time    0.3124: real time    0.3148
    --------------------------------------------
      LOOP:  cpu time    4.4479: real time    4.5015

 eigenvalue-minimisations  :     0
 total energy-change (2. order) :-0.4386118E+00  (-0.1373378E+00)
 number of electron     216.0000000 magnetization 
 augmentation part       -0.4732801 magnetization 

 Free energy of the ion-electron system (eV)
  ---------------------------------------------------
  alpha Z        PSCENC =        47.94900195
  Ewald energy   TEWEN  =     47374.49367880
  -Hartree energ DENC   =    -54366.44076135
  -exchange      EXHF   =         0.00000000
  -V(xc)+E(xc)   XCENC  =       446.45360742
  PAW double counting   =    127249.04788126  -126972.16348391
  entropy T*S    EENTRO =        -0.00000000
  eigenvalues    EBANDS =     -2610.20646464
  atomic energy  EATOM  =      8364.30921166
  ---------------------------------------------------
  free energy    TOTEN  =      -466.55732880 eV

  energy without entropy =     -466.55732880  energy(sigma->0) =     -466.55732880


--------------------------------------------------------------------------------------------------------




--------------------------------------- Iteration      1(  10)  ---------------------------------------


    POTLOK:  cpu time    0.3780: real time    0.3806
    SETDIJ:  cpu time    0.0030: real time    0.0030
    TRIAL :  cpu time    2.6732: real time    2.6977
    CORREC:  cpu time    1.0663: real time    1.0750
    CHARGE:  cpu time    0.3133: real time    0.3156
    --------------------------------------------
      LOOP:  cpu time    4.4758: real time    4.5162

 eigenvalue-minimisations  :     0
 total energy-change (2. order) :-0.1371729E+00  (-0.5370555E-01)
 number of electron     216.0000000 magnetization 
 augmentation part       -0.4741996 magnetization 

 Free energy of the ion-electron system (eV)
  ---------------------------------------------------
  alpha Z        PSCENC =        47.94900195
  Ewald energy   TEWEN  =     47374.49367880
  -Hartree energ DENC   =    -54367.89579635
  -exchange      EXHF   =         0.00000000
  -V(xc)+E(xc)   XCENC  =       446.39245231
  PAW double counting   =    127433.14006615  -127156.20068467
  entropy T*S    EENTRO =        -0.00000000
  eigenvalues    EBANDS =     -2608.88243154
  atomic energy  EATOM  =      8364.30921166
  ---------------------------------------------------
  free energy    TOTEN  =      -466.69450167 eV

  energy without entropy =     -466.69450167  energy(sigma->0) =     -466.69450167


--------------------------------------------------------------------------------------------------------




--------------------------------------- Iteration      1(  11)  ---------------------------------------


    POTLOK:  cpu time    0.3795: real time    0.3819
    SETDIJ:  cpu time    0.0027: real time    0.0027
    TRIAL :  cpu time    2.6734: real time    2.6976
    CORREC:  cpu time    1.0633: real time    1.0720
    CHARGE:  cpu time    0.3121: real time    0.3145
    --------------------------------------------
      LOOP:  cpu time    4.4792: real time    4.5190

 eigenvalue-minimisations  :     0
 total energy-change (2. order) :-0.5355098E-01  (-0.2138689E-01)
 number of electron     216.0000000 magnetization 
 augmentation part       -0.4739895 magnetization 

 Free energy of the ion-electron system (eV)
  ---------------------------------------------------
  alpha Z        PSCENC =        47.94900195
  Ewald energy   TEWEN  =     47374.49367880
  -Hartree energ DENC   =    -54364.53482422
  -exchange      EXHF   =         0.00000000
  -V(xc)+E(xc)   XCENC  =       446.33406076
  PAW double counting   =    126853.68953958  -126576.75165144
  entropy T*S    EENTRO =        -0.00000000
  eigenvalues    EBANDS =     -2612.23706976
  atomic energy  EATOM  =      8364.30921166
  ---------------------------------------------------
  free energy    TOTEN  =      -466.74805265 eV

  energy without entropy =     -466.74805265  energy(sigma->0) =     -466.74805265


--------------------------------------------------------------------------------------------------------




--------------------------------------- Iteration      1(  12)  ---------------------------------------


    POTLOK:  cpu time    0.3773: real time    0.3796
    SETDIJ:  cpu time    0.0029: real time    0.0029
    TRIAL :  cpu time    2.6565: real time    2.6966
    CORREC:  cpu time    1.0577: real time    1.0715
    CHARGE:  cpu time    0.3119: real time    0.3162
    --------------------------------------------
      LOOP:  cpu time    4.4678: real time    4.5304

 eigenvalue-minimisations  :     0
 total energy-change (2. order) :-0.2129503E-01  (-0.7538154E-02)
 number of electron     216.0000000 magnetization 
 augmentation part       -0.4742960 magnetization 

 Free energy of the ion-electron system (eV)
  ---------------------------------------------------
  alpha Z        PSCENC =        47.94900195
  Ewald energy   TEWEN  =     47374.49367880
  -Hartree energ DENC   =    -54362.86976923
  -exchange      EXHF   =         0.00000000
  -V(xc)+E(xc)   XCENC  =       446.30482468
  PAW double counting   =    126502.16329803  -126225.24127409
  entropy T*S    EENTRO =        -0.00000000
  eigenvalues    EBANDS =     -2613.87831948
  atomic energy  EATOM  =      8364.30921166
  ---------------------------------------------------
  free energy    TOTEN  =      -466.76934768 eV

  energy without entropy =     -466.76934768  energy(sigma->0) =     -466.76934768


--------------------------------------------------------------------------------------------------------




--------------------------------------- Iteration      1(  13)  ---------------------------------------


    POTLOK:  cpu time    0.3772: real time    0.3795
    SETDIJ:  cpu time    0.0029: real time    0.0029
    TRIAL :  cpu time    2.6585: real time    2.7017
    CORREC:  cpu time    1.0612: real time    1.0703
    CHARGE:  cpu time    0.3135: real time    0.3159
    --------------------------------------------
      LOOP:  cpu time    4.4792: real time    4.5393

 eigenvalue-minimisations  :     0
 total energy-change (2. order) :-0.7519851E-02  (-0.2241284E-02)
 number of electron     216.0000000 magnetization 
 augmentation part       -0.4741255 magnetization 

 Free energy of the ion-electron system (eV)
  ---------------------------------------------------
  alpha Z        PSCENC =        47.94900195
  Ewald energy   TEWEN  =     47374.49367880
  -Hartree energ DENC   =    -54362.61379512
  -exchange      EXHF   =         0.00000000
  -V(xc)+E(xc)   XCENC  =       446.29514909
  PAW double counting   =    126437.00246777  -126160.08603817
  entropy T*S    EENTRO =        -0.00000000
  eigenvalues    EBANDS =     -2614.12654352
  atomic energy  EATOM  =      8364.30921166
  ---------------------------------------------------
  free energy    TOTEN  =      -466.77686753 eV

  energy without entropy =     -466.77686753  energy(sigma->0) =     -466.77686753


--------------------------------------------------------------------------------------------------------




--------------------------------------- Iteration      1(  14)  ---------------------------------------


    POTLOK:  cpu time    0.3733: real time    0.3756
    SETDIJ:  cpu time    0.0028: real time    0.0028
    TRIAL :  cpu time    2.6698: real time    2.6941
    CORREC:  cpu time    1.0591: real time    1.0678
    CHARGE:  cpu time    0.3125: real time    0.3149
    --------------------------------------------
      LOOP:  cpu time    4.4510: real time    4.4926

 eigenvalue-minimisations  :     0
 total energy-change (2. order) :-0.2241087E-02  (-0.6421920E-03)
 number of electron     216.0000000 magnetization 
 augmentation part       -0.4738550 magnetization 

 Free energy of the ion-electron system (eV)
  ---------------------------------------------------
  alpha Z        PSCENC =        47.94900195
  Ewald energy   TEWEN  =     47374.49367880
  -Hartree energ DENC   =    -54362.51337342
  -exchange      EXHF   =         0.00000000
  -V(xc)+E(xc)   XCENC  =       446.29396016
  PAW double counting   =    126497.41303499  -126220.49758353
  entropy T*S    EENTRO =        -0.00000000
  eigenvalues    EBANDS =     -2614.22703924
  atomic energy  EATOM  =      8364.30921166
  ---------------------------------------------------
  free energy    TOTEN  =      -466.77910862 eV

  energy without entropy =     -466.77910862  energy(sigma->0) =     -466.77910862


--------------------------------------------------------------------------------------------------------




--------------------------------------- Iteration      1(  15)  ---------------------------------------


    POTLOK:  cpu time    0.3709: real time    0.3734
    SETDIJ:  cpu time    0.0029: real time    0.0029
    TRIAL :  cpu time    2.6744: real time    2.6983
    CORREC:  cpu time    1.0550: real time    1.0643
    CHARGE:  cpu time    0.3127: real time    0.3153
    --------------------------------------------
      LOOP:  cpu time    4.4352: real time    4.4771

 eigenvalue-minimisations  :     0
 total energy-change (2. order) :-0.6439784E-03  (-0.2107568E-03)
 number of electron     216.0000000 magnetization 
 augmentation part       -0.4735902 magnetization 

 Free energy of the ion-electron system (eV)
  ---------------------------------------------------
  alpha Z        PSCENC =        47.94900195
  Ewald energy   TEWEN  =     47374.49367880
  -Hartree energ DENC   =    -54362.21809054
  -exchange      EXHF   =         0.00000000
  -V(xc)+E(xc)   XCENC  =       446.28479725
  PAW double counting   =    126538.80032082  -126261.88398577
  entropy T*S    EENTRO =        -0.00000000
  eigenvalues    EBANDS =     -2614.51468679
  atomic energy  EATOM  =      8364.30921166
  ---------------------------------------------------
  free energy    TOTEN  =      -466.77975260 eV

  energy without entropy =     -466.77975260  energy(sigma->0) =     -466.77975260


--------------------------------------------------------------------------------------------------------




--------------------------------------- Iteration      1(  16)  ---------------------------------------


    POTLOK:  cpu time    0.3699: real time    0.3726
    SETDIJ:  cpu time    0.0026: real time    0.0027
    TRIAL :  cpu time    2.6710: real time    2.6970
    CORREC:  cpu time    1.0546: real time    1.0637
    CHARGE:  cpu time    0.3122: real time    0.3146
    --------------------------------------------
      LOOP:  cpu time    4.4336: real time    4.4909

 eigenvalue-minimisations  :     0
 total energy-change (2. order) :-0.2120672E-03  (-0.8085176E-04)
 number of electron     216.0000000 magnetization 
 augmentation part       -0.4734137 magnetization 

 Free energy of the ion-electron system (eV)
  ---------------------------------------------------
  alpha Z        PSCENC =        47.94900195
  Ewald energy   TEWEN  =     47374.49367880
  -Hartree energ DENC   =    -54362.26567937
  -exchange      EXHF   =         0.00000000
  -V(xc)+E(xc)   XCENC  =       446.28635550
  PAW double counting   =    126523.20966197  -126246.29366223
  entropy T*S    EENTRO =        -0.00000000
  eigenvalues    EBANDS =     -2614.46853295
  atomic energy  EATOM  =      8364.30921166
  ---------------------------------------------------
  free energy    TOTEN  =      -466.77996467 eV

  energy without entropy =     -466.77996467  energy(sigma->0) =     -466.77996467


--------------------------------------------------------------------------------------------------------




--------------------------------------- Iteration      1(  17)  ---------------------------------------


    POTLOK:  cpu time    0.3732: real time    0.3756
    SETDIJ:  cpu time    0.0029: real time    0.0029
    TRIAL :  cpu time    2.6699: real time    2.6948
    CORREC:  cpu time    1.0584: real time    1.0664
    CHARGE:  cpu time    0.3121: real time    0.3144
    --------------------------------------------
      LOOP:  cpu time    4.4637: real time    4.5132

 eigenvalue-minimisations  :     0
 total energy-change (2. order) :-0.8157102E-04  (-0.3153790E-04)
 number of electron     216.0000000 magnetization 
 augmentation part       -0.4734159 magnetization 

 Free energy of the ion-electron system (eV)
  ---------------------------------------------------
  alpha Z        PSCENC =        47.94900195
  Ewald energy   TEWEN  =     47374.49367880
  -Hartree energ DENC   =    -54362.40921661
  -exchange      EXHF   =         0.00000000
  -V(xc)+E(xc)   XCENC  =       446.29056253
  PAW double counting   =    126495.48799457  -126218.57251902
  entropy T*S    EENTRO =        -0.00000000
  eigenvalues    EBANDS =     -2614.32876013
  atomic energy  EATOM  =      8364.30921166
  ---------------------------------------------------
  free energy    TOTEN  =      -466.78004624 eV

  energy without entropy =     -466.78004624  energy(sigma->0) =     -466.78004624


--------------------------------------------------------------------------------------------------------




--------------------------------------- Iteration      1(  18)  ---------------------------------------


    POTLOK:  cpu time    0.3712: real time    0.3736
    SETDIJ:  cpu time    0.0028: real time    0.0028
    TRIAL :  cpu time    2.6707: real time    2.6951
    CORREC:  cpu time    1.0586: real time    1.0670
    CHARGE:  cpu time    0.3138: real time    0.3161
    --------------------------------------------
      LOOP:  cpu time    4.4769: real time    4.5154

 eigenvalue-minimisations  :     0
 total energy-change (2. order) :-0.3184431E-04  (-0.1272819E-04)
 number of electron     216.0000000 magnetization 
 augmentation part       -0.4734516 magnetization 

 Free energy of the ion-electron system (eV)
  ---------------------------------------------------
  alpha Z        PSCENC =        47.94900195
  Ewald energy   TEWEN  =     47374.49367880
  -Hartree energ DENC   =    -54362.38006745
  -exchange      EXHF   =         0.00000000
  -V(xc)+E(xc)   XCENC  =       446.28896244
  PAW double counting   =    126487.73473886  -126210.81884217
  entropy T*S    EENTRO =        -0.00000000
  eigenvalues    EBANDS =     -2614.35676218
  atomic energy  EATOM  =      8364.30921166
  ---------------------------------------------------
  free energy    TOTEN  =      -466.78007808 eV

  energy without entropy =     -466.78007808  energy(sigma->0) =     -466.78007808


--------------------------------------------------------------------------------------------------------




--------------------------------------- Iteration      1(  19)  ---------------------------------------


    POTLOK:  cpu time    0.3691: real time    0.3715
    SETDIJ:  cpu time    0.0030: real time    0.0030
    TRIAL :  cpu time    2.6695: real time    2.6937
    CORREC:  cpu time    1.0542: real time    1.0628
    CHARGE:  cpu time    0.3124: real time    0.3147
    --------------------------------------------
      LOOP:  cpu time    4.4512: real time    4.5053

 eigenvalue-minimisations  :     0
 total energy-change (2. order) :-0.1253025E-04  (-0.4980427E-05)
 number of electron     216.0000000 magnetization 
 augmentation part       -0.4735197 magnetization 

 Free energy of the ion-electron system (eV)
  ---------------------------------------------------
  alpha Z        PSCENC =        47.94900195
  Ewald energy   TEWEN  =     47374.49367880
  -Hartree energ DENC   =    -54362.40083034
  -exchange      EXHF   =         0.00000000
  -V(xc)+E(xc)   XCENC  =       446.29011313
  PAW double counting   =    126492.54247010  -126215.62652285
  entropy T*S    EENTRO =        -0.00000000
  eigenvalues    EBANDS =     -2614.33721307
  atomic energy  EATOM  =      8364.30921166
  ---------------------------------------------------
  free energy    TOTEN  =      -466.78009061 eV

  energy without entropy =     -466.78009061  energy(sigma->0) =     -466.78009061


--------------------------------------------------------------------------------------------------------




--------------------------------------- Iteration      1(  20)  ---------------------------------------


    POTLOK:  cpu time    0.3743: real time    0.3768
    SETDIJ:  cpu time    0.0027: real time    0.0027
    TRIAL :  cpu time    2.6666: real time    2.6963
    CORREC:  cpu time    1.0551: real time    1.0640
    CHARGE:  cpu time    0.3112: real time    0.3136
    --------------------------------------------
      LOOP:  cpu time    4.4932: real time    4.5383

 eigenvalue-minimisations  :     0
 total energy-change (2. order) :-0.4634945E-05  (-0.1847792E-05)
 number of electron     216.0000000 magnetization 
 augmentation part       -0.4735314 magnetization 

 Free energy of the ion-electron system (eV)
  ---------------------------------------------------
  alpha Z        PSCENC =        47.94900195
  Ewald energy   TEWEN  =     47374.49367880
  -Hartree energ DENC   =    -54362.40008983
  -exchange      EXHF   =         0.00000000
  -V(xc)+E(xc)   XCENC  =       446.28959170
  PAW double counting   =    126498.60110130  -126221.68489132
  entropy T*S    EENTRO =        -0.00000000
  eigenvalues    EBANDS =     -2614.33769952
  atomic energy  EATOM  =      8364.30921166
  ---------------------------------------------------
  free energy    TOTEN  =      -466.78009525 eV

  energy without entropy =     -466.78009525  energy(sigma->0) =     -466.78009525


--------------------------------------------------------------------------------------------------------




--------------------------------------- Iteration      1(  21)  ---------------------------------------


    POTLOK:  cpu time    0.3675: real time    0.3700
    SETDIJ:  cpu time    0.0028: real time    0.0028
    TRIAL :  cpu time    2.6709: real time    2.7000
    CORREC:  cpu time    1.0489: real time    1.0642
    CHARGE:  cpu time    0.3125: real time    0.3148
    --------------------------------------------
      LOOP:  cpu time    4.4688: real time    4.5188

 eigenvalue-minimisations  :     0
 total energy-change (2. order) :-0.1657259E-05  (-0.6878891E-06)
 number of electron     216.0000000 magnetization 
 augmentation part       -0.4735392 magnetization 

 Free energy of the ion-electron system (eV)
  ---------------------------------------------------
  alpha Z        PSCENC =        47.94900195
  Ewald energy   TEWEN  =     47374.49367880
  -Hartree energ DENC   =    -54362.41789251
  -exchange      EXHF   =         0.00000000
  -V(xc)+E(xc)   XCENC  =       446.29041566
  PAW double counting   =    126500.09257717  -126223.17648159
  entropy T*S    EENTRO =        -0.00000000
  eigenvalues    EBANDS =     -2614.32060805
  atomic energy  EATOM  =      8364.30921166
  ---------------------------------------------------
  free energy    TOTEN  =      -466.78009690 eV

  energy without entropy =     -466.78009690  energy(sigma->0) =     -466.78009690


--------------------------------------------------------------------------------------------------------




--------------------------------------- Iteration      1(  22)  ---------------------------------------


    POTLOK:  cpu time    0.3713: real time    0.3737
    SETDIJ:  cpu time    0.0026: real time    0.0026
    TRIAL :  cpu time    2.6731: real time    2.6995
    CORREC:  cpu time    1.0566: real time    1.0666
    EDDIAG:  cpu time    0.5941: real time    0.6007
    CHARGE:  cpu time    0.3126: real time    0.3150
    --------------------------------------------
      LOOP:  cpu time    5.0841: real time    5.1371

 eigenvalue-minimisations  :     0
 total energy-change (2. order) :-0.6672635E-06  (-0.3146703E-06)
 number of electron     216.0000000 magnetization 
 augmentation part       -0.4735318 magnetization 

 Free energy of the ion-electron system (eV)
  ---------------------------------------------------
  alpha Z        PSCENC =        47.94900195
  Ewald energy   TEWEN  =     47374.49367880
  -Hartree energ DENC   =    -54362.40413489
  -exchange      EXHF   =         0.00000000
  -V(xc)+E(xc)   XCENC  =       446.28979169
  PAW double counting   =    126499.16913524  -126222.25299007
  entropy T*S    EENTRO =        -0.00000000
  eigenvalues    EBANDS =     -2614.33379196
  atomic energy  EATOM  =      8364.30921166
  ---------------------------------------------------
  free energy    TOTEN  =      -466.78009757 eV

  energy without entropy =     -466.78009757  energy(sigma->0) =     -466.78009757


--------------------------------------------------------------------------------------------------------


  average scaling for gradient   0.9413


 average (electrostatic) potential at core
  the test charge radii are     0.5770  0.5955
  (the norm of the test charge is              1.0000)
       1 -85.7829       2 -85.7782       3 -85.7881       4 -85.7948       5 -85.7752
       6 -85.7721       7 -85.7829       8 -85.7692       9 -85.7742      10 -85.7786
      11 -85.7747      12 -85.7784      13 -85.7770      14 -85.7734      15 -85.7721
      16 -85.7722      17 -85.7778      18 -85.7796      19 -85.7820      20 -85.7778
      21 -85.7679      22 -85.7701      23 -85.7954      24 -85.7938      25 -85.7739
      26 -85.7759      27 -85.7748      28 -85.7849      29 -85.7717      30 -85.7738
      31 -85.7920      32 -85.7848      33 -85.7794      34 -85.7755      35 -85.7740
      36 -85.7765      37 -85.7785      38 -85.7812      39 -85.7814      40 -85.7797
      41 -85.7803      42 -85.7830      43 -85.7773      44 -85.7824      45 -85.7734
      46 -85.7721      47 -85.7776      48 -85.7752      49 -85.7802      50 -85.7785
      51 -89.6673      52-120.3261      53-120.3266
 
 
 
 E-fermi :  -4.1208     XC(G=0):  -1.8742     alpha+bet : -1.6890

 Fermi energy:        -4.1208490192

 k-point     1 :       0.0000    0.0000    0.0000
  band No.  band energies     occupation 
      1     -27.6118      2.00000
      2     -26.5883      2.00000
      3     -22.3466      2.00000
      4     -21.4131      2.00000
      5     -21.4078      2.00000
      6     -21.4021      2.00000
      7     -21.4019      2.00000
      8     -21.3994      2.00000
      9     -21.3981      2.00000
     10     -19.5600      2.00000
     11     -19.5588      2.00000
     12     -19.5547      2.00000
     13     -19.5544      2.00000
     14     -19.5529      2.00000
     15     -19.5528      2.00000
     16     -18.6595      2.00000
     17     -18.6583      2.00000
     18     -18.6570      2.00000
     19     -18.6554      2.00000
     20     -18.6548      2.00000
     21     -18.6545      2.00000
     22     -16.4975      2.00000
     23     -16.4966      2.00000
     24     -16.4945      2.00000
     25     -16.4939      2.00000
     26     -16.4905      2.00000
     27     -16.4902      2.00000
     28     -15.4803      2.00000
     29     -15.4797      2.00000
     30     -15.4767      2.00000
     31     -15.4765      2.00000
     32     -15.4757      2.00000
     33     -15.4754      2.00000
     34     -14.1272      2.00000
     35     -14.1269      2.00000
     36     -14.1264      2.00000
     37     -14.1252      2.00000
     38     -14.1251      2.00000
     39     -14.1245      2.00000
     40     -12.4040      2.00000
     41     -11.7375      2.00000
     42     -11.7373      2.00000
     43     -11.7353      2.00000
     44     -11.7351      2.00000
     45     -11.7350      2.00000
     46     -11.7348      2.00000
     47     -11.6159      2.00000
     48     -11.6154      2.00000
     49     -11.6135      2.00000
     50     -11.6133      2.00000
     51     -11.6108      2.00000
     52     -11.6106      2.00000
     53     -11.1802      2.00000
     54     -11.1382      2.00000
     55     -11.0913      2.00000
     56     -10.3505      2.00000
     57     -10.2292      2.00000
     58     -10.2291      2.00000
     59     -10.2286      2.00000
     60     -10.2282      2.00000
     61     -10.2272      2.00000
     62     -10.2271      2.00000
     63      -9.2590      2.00000
     64      -9.2528      2.00000
     65      -9.2526      2.00000
     66      -9.2487      2.00000
     67      -9.2466      2.00000
     68      -9.2359      2.00000
     69      -8.9493      2.00000
     70      -8.9463      2.00000
     71      -8.9458      2.00000
     72      -8.9443      2.00000
     73      -8.9438      2.00000
     74      -8.9425      2.00000
     75      -8.9145      2.00000
     76      -8.9141      2.00000
     77      -8.9138      2.00000
     78      -8.9117      2.00000
     79      -8.9110      2.00000
     80      -8.9103      2.00000
     81      -7.5894      2.00000
     82      -7.5562      2.00000
     83      -7.2871      2.00000
     84      -7.2868      2.00000
     85      -7.2867      2.00000
     86      -7.2849      2.00000
     87      -7.2822      2.00000
     88      -7.2821      2.00000
     89      -7.1339      2.00000
     90      -7.1318      2.00000
     91      -7.1233      2.00000
     92      -7.1229      2.00000
     93      -7.1208      2.00000
     94      -7.0823      2.00000
     95      -6.2404      2.00000
     96      -6.2377      2.00000
     97      -6.2341      2.00000
     98      -6.2299      2.00000
     99      -6.2280      2.00000
    100      -6.2163      2.00000
    101      -5.7933      2.00000
    102      -5.7911      2.00000
    103      -4.2620      2.00000
    104      -4.2589      2.00000
    105      -4.2557      2.00000
    106      -4.2543      2.00000
    107      -4.2493      2.00000
    108      -4.2488      2.00000
    109      -1.4500      0.00000
    110      -1.4484      0.00000
    111      -1.4401      0.00000
    112      -1.4385      0.00000
    113      -1.4366      0.00000
    114      -1.4354      0.00000
    115       0.2611      0.00000
    116       0.4202      0.00000
    117       0.4250      0.00000
    118       0.4283      0.00000
    119       0.4345      0.00000
    120       0.4358      0.00000
    121       0.4373      0.00000
    122       0.8453      0.00000
    123       1.0156      0.00000
    124       1.0471      0.00000
    125       1.4021      0.00000
    126       1.4581      0.00000
    127       1.6598      0.00000
    128       1.7179      0.00000
    129       1.7300      0.00000
    130       1.7312      0.00000
    131       1.7835      0.00000
    132       2.1678      0.00000
    133       2.1699      0.00000
    134       2.1789      0.00000
    135       2.1850      0.00000
    136       2.1989      0.00000
    137       2.2004      0.00000
    138       2.2539      0.00000
    139       2.3145      0.00000
    140       3.0268      0.00000


--------------------------------------------------------------------------------------------------------


 soft charge-density along one line, spin component           1
         0         1         2         3         4         5         6         7         8         9
 total charge-density along one line
 
 pseudopotential strength for first ion, spin component:           1
 12.723  21.410  -0.000   0.000   0.000  -0.000   0.000   0.000
 21.410  36.029  -0.000   0.000   0.000  -0.000   0.000   0.000
 -0.000  -0.000  -3.100  -0.000   0.000  -5.556  -0.000   0.000
  0.000   0.000  -0.000  -3.101  -0.000  -0.000  -5.558  -0.000
  0.000   0.000   0.000  -0.000  -3.100   0.000  -0.000  -5.556
 -0.000  -0.000  -5.556  -0.000   0.000  -9.937  -0.000   0.000
  0.000   0.000  -0.000  -5.558  -0.000  -0.000  -9.939  -0.000
  0.000   0.000   0.000  -0.000  -5.556   0.000  -0.000  -9.937
 total augmentation occupancy for first ion, spin component:           1
  8.451  -3.031  -0.000  -0.002   0.000   0.000   0.001  -0.000
 -3.031   1.122   0.000   0.001  -0.000  -0.000  -0.000   0.000
 -0.000   0.000   7.732  -0.008   0.000  -2.678   0.003  -0.000
 -0.002   0.001  -0.008   3.530  -0.000   0.003  -0.988   0.000
  0.000  -0.000   0.000  -0.000   7.732  -0.000   0.000  -2.678
  0.000  -0.000  -2.678   0.003  -0.000   0.941  -0.001   0.000
  0.001  -0.000   0.003  -0.988   0.000  -0.001   0.282   0.000
 -0.000   0.000  -0.000   0.000  -2.678   0.000   0.000   0.941


------------------------ aborting loop because EDIFF is reached ----------------------------------------


    FORLOC:  cpu time    0.0662: real time    0.0667
    FORNL :  cpu time    1.0639: real time    1.0767
    FORCOR:  cpu time    0.3911: real time    0.3938
    OFIELD:  cpu time    0.0019: real time    0.0019

 ---------------------------------------------------------------------------------------------

         DFTD3 V3.0 Rev 1        
 IVDW         = 11
 DF revpbe    
 parameters
 VDW_S6       =    1.0000
 VDW_S8       =    1.0100
 VDW_SR       =    0.9230
 rs18     =    1.0000
 alpha6   =   14.0000
 alpha8   =   16.0000
 k1-k3    =   16.0000    1.3333   -4.0000
 VDW_RADIUS   =   50.2022 A
 VDW_CNRADIUS =   21.1671 A
 Edisp (eV)   -3.92043

 E6    (eV) :    -2.7840
 E8    (eV) :    -1.1364
 % E8        : 28.99
    FORVDW:  cpu time    0.1602: real time    0.1620

 VOLUME and BASIS-vectors are now :
 -----------------------------------------------------------------------------
  energy-cutoff  :     1000.00
  volume of cell :     3288.85
      direct lattice vectors                 reciprocal lattice vectors
    12.325000000  0.000000000  0.000000000     0.081135903  0.046843835  0.000000000
    -6.162500000 10.673763102  0.000000000     0.000000000  0.093687670  0.000000000
     0.000000000  0.000000000 25.000000000     0.000000000  0.000000000  0.040000000

  length of vectors
    12.325000000 12.325000000 25.000000000     0.093687670  0.093687670  0.040000000


 FORCES acting on ions:
    Electron-Ion                     Ewald-Force                    Non-Local-Force
 -----------------------------------------------------------------------------------------------
   0.107E+02 0.939E+01 0.256E+02   -.107E+02 -.938E+01 -.256E+02   0.138E-01 -.480E-02 0.118E-01
   0.175E+02 0.865E+01 0.331E+02   -.175E+02 -.863E+01 -.331E+02   0.198E-01 -.121E-01 -.963E-02
   0.858E+01 0.220E+02 0.407E+02   -.858E+01 -.220E+02 -.407E+02   -.257E-02 0.441E-01 0.255E-01
   0.135E+02 0.198E+02 0.639E+02   -.136E+02 -.198E+02 -.640E+02   0.503E-01 0.200E-01 0.565E-01
   0.116E+02 0.275E+01 0.257E+02   -.116E+02 -.274E+01 -.257E+02   0.384E-02 -.163E-01 -.516E-02
   0.122E+02 -.209E+01 0.262E+02   -.122E+02 0.210E+01 -.262E+02   -.183E-01 -.281E-02 -.147E-01
   0.233E+02 0.940E+01 0.552E+02   -.233E+02 -.935E+01 -.552E+02   0.495E-01 -.584E-01 -.203E-01
   0.229E+02 -.779E+01 0.585E+02   -.229E+02 0.782E+01 -.584E+02   0.620E-02 -.278E-01 -.102E+00
   -.956E+01 0.202E+02 0.417E+02   0.959E+01 -.202E+02 -.416E+02   -.194E-01 -.674E-02 -.422E-01
   -.173E+02 0.148E+02 0.620E+02   0.174E+02 -.148E+02 -.620E+02   -.705E-01 0.406E-01 -.762E-01
   0.286E+01 -.254E+01 0.209E+02   -.285E+01 0.253E+01 -.209E+02   -.423E-02 0.274E-02 -.553E-02
   0.229E+01 -.186E+01 0.195E+02   -.228E+01 0.186E+01 -.195E+02   -.150E-01 0.648E-02 0.184E-02
   0.886E+01 -.210E+02 0.665E+02   -.894E+01 0.210E+02 -.665E+02   0.853E-01 -.249E-01 -.849E-01
   0.413E+01 -.222E+02 0.415E+02   -.416E+01 0.222E+02 -.414E+02   0.252E-01 0.101E-02 -.435E-01
   -.104E+02 0.653E+01 0.251E+02   0.104E+02 -.653E+01 -.251E+02   0.145E-01 -.769E-02 -.720E-02
   -.154E+02 0.435E+01 0.292E+02   0.154E+02 -.435E+01 -.292E+02   -.186E-02 0.110E-01 -.260E-01
   -.156E+01 -.640E+00 0.188E+02   0.157E+01 0.637E+00 -.188E+02   -.578E-02 0.893E-03 0.106E-02
   0.858E+00 0.575E+01 0.200E+02   -.853E+00 -.575E+01 -.200E+02   -.843E-02 0.397E-02 0.890E-02
   -.316E+01 -.184E+02 0.317E+02   0.314E+01 0.184E+02 -.317E+02   0.254E-01 -.699E-02 0.616E-02
   -.136E+01 -.891E+01 0.220E+02   0.135E+01 0.892E+01 -.220E+02   0.587E-02 -.588E-02 -.170E-02
   0.181E+02 -.789E+01 0.357E+02   -.181E+02 0.789E+01 -.357E+02   -.544E-02 -.570E-02 -.522E-01
   0.108E+02 -.930E+01 0.281E+02   -.108E+02 0.929E+01 -.281E+02   -.130E-01 0.154E-01 -.185E-01
   -.439E+01 0.971E+01 0.810E+02   0.445E+01 -.977E+01 -.811E+02   -.594E-01 0.489E-01 0.515E-01
   -.754E+01 -.154E+02 0.767E+02   0.751E+01 0.155E+02 -.768E+02   0.413E-01 -.611E-01 0.469E-01
   0.501E+01 -.220E+01 0.210E+02   -.499E+01 0.220E+01 -.210E+02   -.846E-02 0.162E-02 -.972E-02
   0.933E+00 0.449E+01 0.212E+02   -.926E+00 -.449E+01 -.212E+02   -.128E-01 0.626E-02 -.679E-03
   -.233E+02 0.274E+01 0.460E+02   0.233E+02 -.277E+01 -.460E+02   -.233E-02 0.270E-01 -.470E-01
   -.213E+02 -.909E+01 0.415E+02   0.214E+02 0.906E+01 -.415E+02   -.361E-01 0.305E-01 0.541E-02
   0.656E+01 -.134E+02 0.294E+02   -.657E+01 0.134E+02 -.294E+02   0.116E-01 0.806E-02 -.231E-01
   0.612E+00 -.498E+01 0.224E+02   -.621E+00 0.497E+01 -.224E+02   0.101E-02 0.831E-02 -.930E-02
   -.173E+02 -.186E+02 0.512E+02   0.173E+02 0.187E+02 -.513E+02   -.440E-01 -.271E-01 0.383E-01
   -.987E+01 -.180E+02 0.339E+02   0.988E+01 0.180E+02 -.339E+02   -.229E-03 -.254E-01 0.185E-01
   0.588E+00 0.241E+01 0.194E+02   -.594E+00 -.241E+01 -.194E+02   0.118E-01 -.829E-02 0.392E-02
   0.167E+01 0.244E+01 0.208E+02   -.168E+01 -.243E+01 -.208E+02   0.490E-03 -.221E-02 -.602E-02
   -.725E+01 0.909E+00 0.228E+02   0.725E+01 -.916E+00 -.228E+02   0.966E-02 0.159E-02 -.227E-02
   -.623E+01 -.249E+01 0.222E+02   0.624E+01 0.249E+01 -.222E+02   -.109E-01 0.830E-02 -.249E-02
   -.127E+02 -.662E+01 0.262E+02   0.127E+02 0.661E+01 -.262E+02   -.150E-01 0.408E-02 0.869E-03
   -.734E+01 -.595E+01 0.218E+02   0.734E+01 0.595E+01 -.218E+02   -.108E-01 0.301E-02 0.105E-01
   -.689E+01 -.900E+01 0.234E+02   0.690E+01 0.901E+01 -.234E+02   -.110E-01 -.697E-02 0.806E-02
   -.101E+01 -.214E+01 0.199E+02   0.101E+01 0.215E+01 -.199E+02   0.252E-02 -.217E-02 0.841E-02
   0.258E+01 0.620E+01 0.208E+02   -.258E+01 -.621E+01 -.208E+02   -.461E-02 0.919E-02 0.817E-02
   0.859E+01 0.135E+02 0.272E+02   -.861E+01 -.135E+02 -.272E+02   0.105E-01 0.109E-01 0.153E-01
   0.687E+00 0.110E+02 0.231E+02   -.677E+00 -.110E+02 -.231E+02   -.810E-02 0.824E-02 -.126E-02
   0.972E-01 0.206E+02 0.349E+02   -.681E-01 -.206E+02 -.349E+02   -.327E-01 0.113E-01 0.561E-02
   -.209E+01 0.416E+01 0.224E+02   0.210E+01 -.416E+01 -.223E+02   0.150E-02 -.732E-02 -.668E-02
   -.883E+01 0.112E+02 0.280E+02   0.884E+01 -.112E+02 -.280E+02   -.103E-01 -.173E-02 -.199E-01
   -.151E+01 -.424E+01 0.207E+02   0.150E+01 0.424E+01 -.207E+02   0.143E-01 -.245E-02 0.134E-02
   -.394E+01 0.160E+01 0.198E+02   0.392E+01 -.159E+01 -.198E+02   0.702E-02 -.383E-03 -.831E-02
   0.311E+00 -.263E+01 0.196E+02   -.314E+00 0.263E+01 -.196E+02   0.803E-02 -.391E-02 0.593E-02
   0.416E+01 0.305E+01 0.198E+02   -.417E+01 -.305E+01 -.198E+02   0.601E-02 0.219E-02 0.333E-02
   0.132E+00 -.917E-01 -.406E+03   -.132E+00 0.923E-01 0.406E+03   -.873E-02 0.467E-02 0.559E-02
   -.229E+03 0.155E+03 -.622E+03   0.279E+03 -.190E+03 0.626E+03   -.509E+02 0.346E+02 -.312E+01
   0.229E+03 -.156E+03 -.600E+03   -.279E+03 0.190E+03 0.597E+03   0.509E+02 -.347E+02 0.339E+01
 -----------------------------------------------------------------------------------------------
   0.171E-01 0.538E-02 0.279E-01   0.114E-12 -.114E-12 0.227E-12   -.177E-01 -.507E-02 -.269E-01
 
 
 POSITION                                       TOTAL-FORCE (eV/Angst)
 -----------------------------------------------------------------------------------
     11.98348      0.00342      0.01417         0.002230      0.000411      0.000181
     -0.34154      1.42665      0.01100         0.002257      0.002416      0.000351
      2.12355      0.00315      0.01249         0.002532      0.000457      0.003269
      2.12326      1.42653      0.00641         0.002034      0.006877      0.004449
     10.75099      2.13819      0.01213         0.000901     -0.004223      0.002077
     -1.57382      3.56123      0.01110        -0.004402      0.006858      0.000564
      0.89078      2.13854      0.00548         0.003606      0.001679      0.002787
      0.89099      3.56147      0.00181        -0.003482      0.004317     -0.003749
      4.58864      0.00346      0.01135         0.005360      0.002213     -0.001447
      4.58894      1.42623      0.00646        -0.007067      0.004779     -0.003658
      9.51854      4.27281      0.01369         0.007560     -0.006813      0.000651
     -2.80632      5.69591      0.01434        -0.008148      0.004509      0.001269
      2.12300      4.27302      0.00000         0.002589      0.000245     -0.005859
      2.12335      5.69594      0.00581        -0.002828     -0.008263     -0.000594
      7.05344      0.00333      0.01399         0.005921     -0.002653      0.001854
      7.05353      1.42635      0.01368        -0.006059      0.005528     -0.000635
      8.28610      6.40752      0.01601         0.003662     -0.002115     -0.000163
     -4.03885      7.83070      0.01636        -0.002514      0.002642      0.000429
      3.35586      6.40753      0.01007         0.001666     -0.000770      0.001656
      3.35599      7.83072      0.01320        -0.002929     -0.000246      0.000479
     -0.34146      4.27290      0.00723         0.010685     -0.007536     -0.001572
     -0.34138      5.69591      0.00946        -0.006696      0.002738      0.002137
      3.35624      2.13791      0.00222         0.003586     -0.000645     -0.015430
      3.35573      3.56155      0.00139        -0.002000     -0.000766     -0.007056
     -1.57395      6.40758      0.01311         0.009794     -0.004023     -0.000316
     -1.57385      7.83068      0.01438        -0.004844      0.004190      0.000804
      5.82093      2.13784      0.01033         0.000956     -0.004792     -0.002478
      5.82114      3.56097      0.01156        -0.004573     -0.000239      0.002628
      0.89092      6.40755      0.00907         0.004588     -0.000861      0.001340
      0.89106      7.83068      0.01235        -0.008516      0.000034      0.000775
      4.58871      4.27293      0.00850        -0.003522     -0.008277      0.003745
      4.58852      5.69606      0.01149         0.000376      0.004598      0.001162
      9.51845      0.00337      0.01490         0.005601     -0.005643      0.000657
      9.51855      1.42644      0.01438        -0.004352      0.008762      0.000060
      8.28593      2.13803      0.01453         0.003358     -0.005420      0.001554
      8.28613      3.56115      0.01464        -0.004588      0.001687      0.000926
      7.05356      4.27269      0.01457         0.002252     -0.001013      0.001491
      7.05362      5.69588      0.01553        -0.002663      0.000464      0.000480
      5.82112      6.40755      0.01489        -0.001204      0.001143      0.000706
      5.82102      7.83073      0.01579         0.000972      0.001728      0.000087
      7.05363      8.54227      0.01631        -0.002778     -0.000764      0.001648
     -5.27149      9.96549      0.01495        -0.001055     -0.001959     -0.000445
     -2.80638      8.54234      0.01558         0.002649     -0.000661      0.000261
     -2.80627      9.96553      0.01362        -0.002690      0.002151      0.000857
     -0.34149      8.54239      0.01378         0.006168     -0.001574      0.001020
     -0.34138      9.96550      0.01354        -0.007657      0.003427      0.001559
      2.12343      8.54232      0.01336         0.006443     -0.001421      0.001259
      2.12354      9.96544      0.01469        -0.007937      0.004339     -0.001595
      4.58846      8.54235      0.01505         0.004941     -0.004097      0.001370
      4.58853      9.96550      0.01517        -0.003161      0.003570      0.000986
      3.04930      2.68154      3.24980        -0.010732      0.005508     -0.008922
      4.02070      2.02068      3.31422        -0.273096      0.191402     -0.018049
      2.07767      3.34267      3.19035         0.286805     -0.203898      0.024436
 -----------------------------------------------------------------------------------
    total drift:                               -0.000599      0.000307      0.000967


--------------------------------------------------------------------------------------------------------



  FREE ENERGIE OF THE ION-ELECTRON SYSTEM (eV)
  ---------------------------------------------------
  free  energy   TOTEN  =      -470.70052595 eV

  energy  without entropy=     -470.70052595  energy(sigma->0) =     -470.70052595
 


--------------------------------------------------------------------------------------------------------


    POTLOK:  cpu time    0.3843: real time    0.3870


--------------------------------------------------------------------------------------------------------


     LOOP+:  cpu time  140.9907: real time  142.7125
    4ORBIT:  cpu time    0.0000: real time    0.0000

 total amount of memory used by VASP MPI-rank0   215378. kBytes
=======================================================================

   base      :      30000. kBytes
   nonl-proj :      57634. kBytes
   fftplans  :      45914. kBytes
   grid      :      67588. kBytes
   one-center:         43. kBytes
   wavefun   :      14199. kBytes
 
  
  
 General timing and accounting informations for this job:
 ========================================================
  
                  Total CPU time used (sec):      187.988
                            User time (sec):      171.550
                          System time (sec):       16.439
                         Elapsed time (sec):      191.409
  
                   Maximum memory used (kb):      582924.
                   Average memory used (kb):          N/A
  
                          Minor page faults:       220194
                          Major page faults:          111
                 Voluntary context switches:         3708
