 vasp.6.2.1 16May21 (build Nov 06 2021 14:46:37) complex                        
  
 executed on             LinuxIFC date 2025.03.03  17:43:24
 running on  112 total cores
 distrk:  each k-point on  112 cores,    1 groups
 distr:  one band on NCORE=   4 cores,   28 groups


--------------------------------------------------------------------------------------------------------


 INCAR:
   ALGO = Conjugate
   NCORE = 4
   ISMEAR = 0
   SIGMA = 0.01
   PREC = Accurate
   EDIFF = 1E-6
   ENCUT = 1000
   ISIF = 0
   GGA = RE
   IVDW = 11
   LWAVE = .FALSE.
   LCHARGE = .FALSE.
   SYMPREC = 1E-6

 POTCAR:    PAW_PBE C_h 06Feb2004                 
 POTCAR:    PAW_PBE O_h 06Feb2004                 
 -----------------------------------------------------------------------------
|                                                                             |
|           W    W    AA    RRRRR   N    N  II  N    N   GGGG   !!!           |
|           W    W   A  A   R    R  NN   N  II  NN   N  G    G  !!!           |
|           W    W  A    A  R    R  N N  N  II  N N  N  G       !!!           |
|           W WW W  AAAAAA  RRRRR   N  N N  II  N  N N  G  GGG   !            |
|           WW  WW  A    A  R   R   N   NN  II  N   NN  G    G                |
|           W    W  A    A  R    R  N    N  II  N    N   GGGG   !!!           |
|                                                                             |
|     For optimal performance we recommend to set                             |
|       NCORE = 2 up to number-of-cores-per-socket                            |
|     NCORE specifies how many cores store one orbital (NPAR=cpu/NCORE).      |
|     This setting can greatly improve the performance of VASP for DFT.       |
|     The default, NCORE=1 might be grossly inefficient on modern             |
|     multi-core architectures or massively parallel machines. Do your        |
|     own testing! More info at https://www.vasp.at/wiki/index.php/NCORE      |
|     Unfortunately you need to use the default for GW and RPA                |
|     calculations (for HF NCORE is supported but not extensively tested      |
|     yet).                                                                   |
|                                                                             |
 -----------------------------------------------------------------------------

 POTCAR:    PAW_PBE C_h 06Feb2004                 
   VRHFIN =C: s2p2                                                                                  
   LEXCH  = PE                                                                                      
   EATOM  =   147.1560 eV,   10.8157 Ry                                                             
                                                                                                    
   TITEL  = PAW_PBE C_h 06Feb2004                                                                   
   LULTRA =        F    use ultrasoft PP ?                                                          
   IUNSCR =        1    unscreen: 0-lin 1-nonlin 2-no                                               
   RPACOR =    0.800    partial core radius                                                         
   POMASS =   12.011; ZVAL   =    4.000    mass and valenz                                          
   RCORE  =    1.100    outmost cutoff radius                                                       
   RWIGS  =    1.630; RWIGS  =    0.863    wigner-seitz radius (au A)                               
   ENMAX  =  700.000; ENMIN  =  500.000 eV                                                          
   ICORE  =        2    local potential                                                             
   LCOR   =        T    correct aug charges                                                         
   LPAW   =        T    paw PP                                                                      
   EAUG   =  946.768                                                                                
   DEXC   =    0.000                                                                                
   RMAX   =    1.128    core radius for proj-oper                                                   
   RAUG   =    1.300    factor for augmentation sphere                                              
   RDEP   =    1.162    radius for radial grids                                                     
   RDEPT  =    1.088    core radius for aug-charge                                                  
                                                                                                    
   Atomic configuration                                                                             
    4 entries                                                                                       
     n  l   j            E        occ.                                                              
     1  0  0.50      -273.3789   2.0000                                                             
     2  0  0.50       -13.7508   2.0000                                                             
     2  1  0.50        -5.2854   2.0000                                                             
     3  2  1.50        -5.4423   0.0000                                                             
   Description                                                                                      
     l       E           TYP  RCUT    TYP  RCUT                                                     
     0    -13.7508458     23  1.100                                                                 
     0     -8.2022199     23  1.100                                                                 
     1     -5.2854383     23  1.100                                                                 
     1      1.1560700     23  1.100                                                                 
     2     -5.4423304      7  1.100                                                                 
  local pseudopotential read in
  partial core-charges read in
  partial kinetic energy density read in
  atomic valenz-charges read in
  non local Contribution for L=           0  read in
    real space projection operators read in
  non local Contribution for L=           0  read in
    real space projection operators read in
  non local Contribution for L=           1  read in
    real space projection operators read in
  non local Contribution for L=           1  read in
    real space projection operators read in
    PAW grid and wavefunctions read in
 
   number of l-projection  operators is LMAX  =           4
   number of lm-projection operators is LMMAX =           8
 
 POTCAR:    PAW_PBE O_h 06Feb2004                 
   VRHFIN =O: s2p4                                                                                  
   LEXCH  = PE                                                                                      
   EATOM  =   432.3788 eV,   31.7789 Ry                                                             
                                                                                                    
   TITEL  = PAW_PBE O_h 06Feb2004                                                                   
   LULTRA =        F    use ultrasoft PP ?                                                          
   IUNSCR =        1    unscreen: 0-lin 1-nonlin 2-no                                               
   RPACOR =    0.800    partial core radius                                                         
   POMASS =   16.000; ZVAL   =    6.000    mass and valenz                                          
   RCORE  =    1.100    outmost cutoff radius                                                       
   RWIGS  =    1.400; RWIGS  =    0.741    wigner-seitz radius (au A)                               
   ENMAX  =  700.000; ENMIN  =  500.000 eV                                                          
   ICORE  =        2    local potential                                                             
   LCOR   =        T    correct aug charges                                                         
   LPAW   =        T    paw PP                                                                      
   EAUG   =  888.804                                                                                
   DEXC   =    0.000                                                                                
   RMAX   =    1.128    core radius for proj-oper                                                   
   RAUG   =    1.300    factor for augmentation sphere                                              
   RDEP   =    1.125    radius for radial grids                                                     
   RDEPT  =    1.088    core radius for aug-charge                                                  
                                                                                                    
   Atomic configuration                                                                             
    4 entries                                                                                       
     n  l   j            E        occ.                                                              
     1  0  0.50      -514.6923   2.0000                                                             
     2  0  0.50       -23.9615   2.0000                                                             
     2  1  0.50        -9.0305   4.0000                                                             
     3  2  1.50        -9.5241   0.0000                                                             
   Description                                                                                      
     l       E           TYP  RCUT    TYP  RCUT                                                     
     0    -23.9615319     23  1.100                                                                 
     0    -25.3221145     23  1.100                                                                 
     1     -9.0304911     23  1.100                                                                 
     1     -5.4802209     23  1.100                                                                 
     2     -9.5240782      7  1.100                                                                 
  local pseudopotential read in
  partial core-charges read in
  partial kinetic energy density read in
  atomic valenz-charges read in
  non local Contribution for L=           0  read in
    real space projection operators read in
  non local Contribution for L=           0  read in
    real space projection operators read in
  non local Contribution for L=           1  read in
    real space projection operators read in
  non local Contribution for L=           1  read in
    real space projection operators read in
    PAW grid and wavefunctions read in
 
   number of l-projection  operators is LMAX  =           4
   number of lm-projection operators is LMMAX =           8
 
 -----------------------------------------------------------------------------
|                                                                             |
|               ----> ADVICE to this user running VASP <----                  |
|                                                                             |
|     You have a (more or less) 'large supercell' and for larger cells it     |
|     might be more efficient to use real-space projection operators.         |
|     Therefore, try LREAL= Auto in the INCAR file.                           |
|     Mind: For very accurate calculation, you might also keep the            |
|     reciprocal projection scheme (i.e. LREAL=.FALSE.).                      |
|                                                                             |
 -----------------------------------------------------------------------------

 -----------------------------------------------------------------------------
|                                                                             |
|               ----> ADVICE to this user running VASP <----                  |
|                                                                             |
|     You enforced a specific xc type in the INCAR file but a different       |
|     type was found in the POTCAR file.                                      |
|     I HOPE YOU KNOW WHAT YOU ARE DOING!                                     |
|                                                                             |
 -----------------------------------------------------------------------------

  PAW_PBE C_h 06Feb2004                 :
 energy of atom  1       EATOM= -147.1560
 kinetic energy error for atom=    0.0031 (will be added to EATOM!!)
  PAW_PBE O_h 06Feb2004                 :
 energy of atom  2       EATOM= -432.3788
 kinetic energy error for atom=    0.0171 (will be added to EATOM!!)
 
 
 POSCAR:  C  O
  positions in cartesian coordinates
  No initial velocities read in
 exchange correlation table for  LEXCH =       40
   RHO(1)=    0.500       N(1)  =     2000
   RHO(2)=  100.500       N(2)  =     4000
 


--------------------------------------------------------------------------------------------------------


 ion  position               nearest neighbor table
   1  0.972  0.000  0.001-  50 1.42   2 1.42  42 1.42
   2  0.039  0.134  0.001-   5 1.42   7 1.42   1 1.42
   3  0.172  0.000  0.001-  42 1.42  44 1.42   4 1.42
   4  0.239  0.134  0.000-   7 1.42   3 1.42  23 1.42
   5  0.972  0.200  0.001-   6 1.42   2 1.42  34 1.42
   6  0.039  0.334  0.001-   5 1.42  21 1.42  11 1.42
   7  0.172  0.200  0.000-   8 1.42   2 1.42   4 1.42
   8  0.239  0.334  0.000-  13 1.42   7 1.42  21 1.42
   9  0.372  0.000  0.001-  10 1.42  44 1.42  46 1.42
  10  0.439  0.134  0.000-  27 1.42   9 1.42  23 1.42
  11  0.972  0.400  0.001-  12 1.42  36 1.42   6 1.42
  12  0.039  0.534  0.001-  25 1.42  11 1.42  17 1.42
  13  0.372  0.400  0.000-   8 1.42  14 1.42  24 1.42
  14  0.439  0.534  0.000-  13 1.42  29 1.42  19 1.42
  15  0.572  0.000  0.001-  46 1.42  16 1.42  48 1.42
  16  0.639  0.134  0.001-  15 1.42  35 1.42  27 1.42
  17  0.972  0.600  0.001-  38 1.42  18 1.42  12 1.42
  18  0.039  0.734  0.001-  43 1.42  41 1.42  17 1.42
  19  0.572  0.600  0.001-  14 1.42  20 1.42  32 1.42
  20  0.639  0.734  0.001-  49 1.42  19 1.42  47 1.42
  21  0.172  0.400  0.000-  22 1.42   8 1.42   6 1.42
  22  0.239  0.534  0.000-  21 1.42  29 1.42  25 1.42
  23  0.372  0.200  0.000-  10 1.42   4 1.42  24 1.42
  24  0.439  0.334  0.000-  13 1.42  31 1.42  23 1.42
  25  0.172  0.600  0.001-  26 1.42  12 1.42  22 1.42
  26  0.239  0.734  0.001-  25 1.42  45 1.42  43 1.42
  27  0.572  0.200  0.001-  10 1.42  28 1.42  16 1.42
  28  0.639  0.334  0.001-  27 1.42  37 1.42  31 1.42
  29  0.372  0.600  0.000-  22 1.42  14 1.42  30 1.42
  30  0.439  0.734  0.001-  47 1.42  29 1.42  45 1.42
  31  0.572  0.400  0.000-  32 1.42  28 1.42  24 1.42
  32  0.639  0.534  0.001-  31 1.42  39 1.42  19 1.42
  33  0.772  0.000  0.001-  34 1.42  48 1.42  50 1.42
  34  0.839  0.134  0.001-  33 1.42   5 1.42  35 1.42
  35  0.772  0.200  0.001-  36 1.42  16 1.42  34 1.42
  36  0.839  0.334  0.001-  35 1.42  11 1.42  37 1.42
  37  0.772  0.400  0.001-  28 1.42  38 1.42  36 1.42
  38  0.839  0.534  0.001-  17 1.42  37 1.42  39 1.42
  39  0.772  0.600  0.001-  40 1.42  38 1.42  32 1.42
  40  0.839  0.734  0.001-  39 1.42  49 1.42  41 1.42
  41  0.972  0.800  0.001-  18 1.42  42 1.42  40 1.42
  42  0.039  0.934  0.001-   3 1.42  41 1.42   1 1.42
  43  0.172  0.800  0.001-  18 1.42  44 1.42  26 1.42
  44  0.239  0.934  0.001-   9 1.42  43 1.42   3 1.42
  45  0.372  0.800  0.001-  26 1.42  46 1.42  30 1.42
  46  0.439  0.934  0.001-  15 1.42  45 1.42   9 1.42
  47  0.572  0.800  0.001-  30 1.42  48 1.42  20 1.42
  48  0.639  0.934  0.001-  47 1.42  33 1.42  15 1.42
  49  0.772  0.800  0.001-  50 1.42  20 1.42  40 1.42
  50  0.839  0.934  0.001-  49 1.42   1 1.42  33 1.42
  51  0.373  0.251  0.281-  52 1.18  53 1.18
  52  0.421  0.189  0.284-  51 1.18
  53  0.325  0.313  0.278-  51 1.18
 
  LATTYP: Found a hexagonal cell.
 ALAT       =    12.3250000000
 C/A-ratio  =     1.6227180527
  
  Lattice vectors:
  
 A1 = (  12.3250000000,   0.0000000000,   0.0000000000)
 A2 = (  -6.1625000000,  10.6737631016,   0.0000000000)
 A3 = (   0.0000000000,   0.0000000000,  20.0000000000)


Analysis of symmetry for initial positions (statically):
=====================================================================
 Subroutine PRICEL returns:
 Original cell was already a primitive cell.
 

 Routine SETGRP: Setting up the symmetry group for a 
 hexagonal supercell.


 Subroutine GETGRP returns: Found  1 space group operations
 (whereof  1 operations were pure point group operations)
 out of a pool of 24 trial point group operations.


The static configuration has the point symmetry C_1 .


Analysis of symmetry for dynamics (positions and initial velocities):
=====================================================================
 Subroutine PRICEL returns:
 Original cell was already a primitive cell.
 

 Routine SETGRP: Setting up the symmetry group for a 
 hexagonal supercell.


 Subroutine GETGRP returns: Found  1 space group operations
 (whereof  1 operations were pure point group operations)
 out of a pool of 24 trial point group operations.


The dynamic configuration has the point symmetry C_1 .


 Subroutine INISYM returns: Found  1 space group operations
 (whereof  1 operations are pure point group operations),
 and found     1 'primitive' translations


----------------------------------------------------------------------------------------

                                     Primitive cell                                     

  volume of cell :    2631.0826

  direct lattice vectors                    reciprocal lattice vectors
    12.325000000  0.000000000  0.000000000     0.081135903  0.046843835  0.000000000
    -6.162500000 10.673763102  0.000000000     0.000000000  0.093687670  0.000000000
     0.000000000  0.000000000 20.000000000     0.000000000  0.000000000  0.050000000

  length of vectors
    12.325000000 12.325000000 20.000000000     0.093687670  0.093687670  0.050000000

  position of ions in fractional coordinates (direct lattice)
     0.972450841  0.000320818  0.000708389
     0.039118382  0.133659505  0.000550216
     0.172443627  0.000295449  0.000624535
     0.239096278  0.133647917  0.000320585
     0.972452058  0.200322012  0.000606523
     0.039128360  0.333643771  0.000555187
     0.172451764  0.200354552  0.000273959
     0.239124359  0.333665720  0.000090325
     0.372465565  0.000324403  0.000567391
     0.439137473  0.133619939  0.000322923
     0.972449824  0.400309362  0.000684513
     0.039124981  0.533636789  0.000716763
     0.372416176  0.400329481  0.000000000
     0.439099602  0.533638981  0.000290518
     0.572443676  0.000312125  0.000699475
     0.639110207  0.133631751  0.000684093
     0.972452703  0.600305653  0.000800361
     0.039124495  0.733640359  0.000818141
     0.572433471  0.600306242  0.000503618
     0.639111888  0.733641879  0.000659881
     0.172454630  0.400318228  0.000361306
     0.239120185  0.533636548  0.000473136
     0.372459750  0.200295993  0.000111246
     0.439107096  0.333673419  0.000069702
     0.172452155  0.600311506  0.000655425
     0.239123371  0.733638574  0.000718912
     0.572431082  0.200289171  0.000516621
     0.639112773  0.333618630  0.000577970
     0.372439808  0.600308022  0.000453556
     0.439116090  0.733637858  0.000617737
     0.572469358  0.400320504  0.000424897
     0.639119408  0.533650873  0.000574513
     0.772445723  0.000315427  0.000745201
     0.839116277  0.133640203  0.000719132
     0.772440513  0.200307432  0.000726291
     0.839120241  0.333635728  0.000731834
     0.772446320  0.400298367  0.000728722
     0.839118980  0.533633964  0.000776376
     0.772456143  0.600308173  0.000744639
     0.839115033  0.733643180  0.000789390
     0.972455313  0.800305582  0.000815291
     0.039114714  0.933643289  0.000747563
     0.172457971  0.800312211  0.000779216
     0.239134551  0.933647193  0.000681063
     0.372451396  0.800316674  0.000689249
     0.439124489  0.933644769  0.000676788
     0.572441101  0.800310054  0.000668168
     0.639115067  0.933638985  0.000734556
     0.772445098  0.800313187  0.000752577
     0.839116614  0.933644338  0.000758538
     0.373021009  0.251226878  0.280615512
     0.420879805  0.189313152  0.283836605
     0.325156981  0.313167186  0.277642769

  ion indices of the primitive-cell ions
   primitive index   ion index
                 1           1
                 2           2
                 3           3
                 4           4
                 5           5
                 6           6
                 7           7
                 8           8
                 9           9
                10          10
                11          11
                12          12
                13          13
                14          14
                15          15
                16          16
                17          17
                18          18
                19          19
                20          20
                21          21
                22          22
                23          23
                24          24
                25          25
                26          26
                27          27
                28          28
                29          29
                30          30
                31          31
                32          32
                33          33
                34          34
                35          35
                36          36
                37          37
                38          38
                39          39
                40          40
                41          41
                42          42
                43          43
                44          44
                45          45
                46          46
                47          47
                48          48
                49          49
                50          50
                51          51
                52          52
                53          53

----------------------------------------------------------------------------------------

 
 
 KPOINTS: auto                                    

Automatic generation of k-mesh.
 Grid dimensions read from file:
 generate k-points for:    1    1    1

 Generating k-lattice:

  Cartesian coordinates                     Fractional coordinates (reciprocal lattice)
     0.081135903  0.046843835  0.000000000     1.000000000 -0.000000000  0.000000000
     0.000000000  0.093687670  0.000000000     0.000000000  1.000000000  0.000000000
     0.000000000  0.000000000  0.050000000     0.000000000  0.000000000  1.000000000

  Length of vectors
     0.093687670  0.093687670  0.050000000

  Shift w.r.t. Gamma in fractional coordinates (k-lattice)
     0.000000000  0.000000000  0.000000000

 
 Subroutine IBZKPT returns following result:
 ===========================================
 
 Found      1 irreducible k-points:
 
 Following reciprocal coordinates:
            Coordinates               Weight
  0.000000  0.000000  0.000000      1.000000
 
 Following cartesian coordinates:
            Coordinates               Weight
  0.000000  0.000000  0.000000      1.000000
 


--------------------------------------------------------------------------------------------------------




 Dimension of arrays:
   k-points           NKPTS =      1   k-points in BZ     NKDIM =      1   number of bands    NBANDS=    140
   number of dos      NEDOS =    301   number of ions     NIONS =     53
   non local maximal  LDIM  =      4   non local SUM 2l+1 LMDIM =      8
   total plane-waves  NPLWV = ******
   max r-space proj   IRMAX =      1   max aug-charges    IRDMAX=   9736
   dimension x,y,z NGX =   128 NGY =  128 NGZ =  210
   dimension x,y,z NGXF=   256 NGYF=  256 NGZF=  420
   support grid    NGXF=   256 NGYF=  256 NGZF=  420
   ions per type =              51   2
   NGX,Y,Z   is equivalent  to a cutoff of  17.27, 17.27, 17.46 a.u.
   NGXF,Y,Z  is equivalent  to a cutoff of  34.53, 34.53, 34.91 a.u.

 SYSTEM =  unknown system                          
 POSCAR =   C  O                                   

 Startparameter for this run:
   NWRITE =      2    write-flag & timer
   PREC   = accura    normal or accurate (medium, high low for compatibility)
   ISTART =      0    job   : 0-new  1-cont  2-samecut
   ICHARG =      2    charge: 1-file 2-atom 10-const
   ISPIN  =      1    spin polarized calculation?
   LNONCOLLINEAR =      F non collinear calculations
   LSORBIT =      F    spin-orbit coupling
   INIWAV =      1    electr: 0-lowe 1-rand  2-diag
   LASPH  =      F    aspherical Exc in radial PAW
 Electronic Relaxation 1
   ENCUT  = 1000.0 eV  73.50 Ry    8.57 a.u.  31.78 31.78 51.57*2*pi/ulx,y,z
   ENINI  = 1000.0     initial cutoff
   ENAUG  =  946.8 eV  augmentation charge cutoff
   NELM   =     60;   NELMIN=  2; NELMDL= -5     # of ELM steps 
   EDIFF  = 0.1E-05   stopping-criterion for ELM
   LREAL  =      F    real-space projection
   NLSPLINE    = F    spline interpolate recip. space projectors
   LCOMPAT=      F    compatible to vasp.4.4
   GGA_COMPAT  = T    GGA compatible to vasp.4.4-vasp.4.6
   LMAXPAW     = -100 max onsite density
   LMAXMIX     =    2 max onsite mixed and CHGCAR
   VOSKOWN=      0    Vosko Wilk Nusair interpolation
   ROPT   =    0.00000   0.00000
 Ionic relaxation
   EDIFFG = 0.1E-04   stopping-criterion for IOM
   NSW    =      0    number of steps for IOM
   NBLOCK =      1;   KBLOCK =      1    inner block; outer block 
   IBRION =     -1    ionic relax: 0-MD 1-quasi-New 2-CG
   NFREE  =      0    steps in history (QN), initial steepest desc. (CG)
   ISIF   =      0    stress and relaxation
   IWAVPR =     10    prediction:  0-non 1-charg 2-wave 3-comb
   ISYM   =      2    0-nonsym 1-usesym 2-fastsym
   LCORR  =      T    Harris-Foulkes like correction to forces

   POTIM  = 0.5000    time-step for ionic-motion
   TEIN   =    0.0    initial temperature
   TEBEG  =    0.0;   TEEND  =   0.0 temperature during run
   SMASS  =  -3.00    Nose mass-parameter (am)
   estimated Nose-frequenzy (Omega)   =  0.10E-29 period in steps = 0.13E+47 mass=  -0.347E-26a.u.
   SCALEE = 1.0000    scale energy and forces
   NPACO  =    256;   APACO  = 16.0  distance and # of slots for P.C.
   PSTRESS=    0.0 pullay stress

  Mass of Ions in am
   POMASS =  12.01 16.00
  Ionic Valenz
   ZVAL   =   4.00  6.00
  Atomic Wigner-Seitz radii
   RWIGS  =  -1.00 -1.00
  virtual crystal weights 
   VCA    =   1.00  1.00
   NELECT =     216.0000    total number of electrons
   NUPDOWN=      -1.0000    fix difference up-down

 DOS related values:
   EMIN   =  10.00;   EMAX   =-10.00  energy-range for DOS
   EFERMI =   0.00
   ISMEAR =     0;   SIGMA  =   0.01  broadening in eV -4-tet -1-fermi 0-gaus

 Electronic relaxation 2 (details)
   IALGO  =     58    algorithm
   LDIAG  =      T    sub-space diagonalisation (order eigenvalues)
   LSUBROT=      F    optimize rotation matrix (better conditioning)
   TURBO    =      0    0=normal 1=particle mesh
   IRESTART =      0    0=no restart 2=restart with 2 vectors
   NREBOOT  =      0    no. of reboots
   NMIN     =      0    reboot dimension
   EREF     =   0.00    reference energy to select bands
   IMIX   =      4    mixing-type and parameters
     AMIX     =   0.40;   BMIX     =  1.00
     AMIX_MAG =   1.60;   BMIX_MAG =  1.00
     AMIN     =   0.10
     WC   =   100.;   INIMIX=   1;  MIXPRE=   1;  MAXMIX= -45

 Intra band minimization:
   WEIMIN = 0.0000     energy-eigenvalue tresh-hold
   EBREAK =  0.18E-08  absolut break condition
   DEPER  =   0.30     relativ break condition  

   TIME   =   0.40     timestep for ELM

  volume/ion in A,a.u.               =      49.64       335.01
  Fermi-wavevector in a.u.,A,eV,Ry     =   0.711510  1.344560  6.887909  0.506247
  Thomas-Fermi vector in A             =   1.798641
 
 Write flags
   LWAVE        =      F    write WAVECAR
   LDOWNSAMPLE  =      F    k-point downsampling of WAVECAR
   LCHARG       =      T    write CHGCAR
   LVTOT        =      F    write LOCPOT, total local potential
   LVHAR        =      F    write LOCPOT, Hartree potential only
   LELF         =      F    write electronic localiz. function (ELF)
   LORBIT       =      0    0 simple, 1 ext, 2 COOP (PROOUT), +10 PAW based schemes


 Dipole corrections
   LMONO  =      F    monopole corrections only (constant potential shift)
   LDIPOL =      F    correct potential (dipole corrections)
   IDIPOL =      0    1-x, 2-y, 3-z, 4-all directions 
   EPSILON=  1.0000000 bulk dielectric constant

 Exchange correlation treatment:
   GGA     =    RE    GGA type
   LEXCH   =    40    internal setting for exchange type
   VOSKOWN=      0    Vosko Wilk Nusair interpolation
   LHFCALC =     F    Hartree Fock is set to
   LHFONE  =     F    Hartree Fock one center treatment
   AEXX    =    0.0000 exact exchange contribution

 Linear response parameters
   LEPSILON=     F    determine dielectric tensor
   LRPA    =     F    only Hartree local field effects (RPA)
   LNABLA  =     F    use nabla operator in PAW spheres
   LVEL    =     F    velocity operator in full k-point grid
   LINTERFAST=   F  fast interpolation
   KINTER  =     0    interpolate to denser k-point grid
   CSHIFT  =0.1000    complex shift for real part using Kramers Kronig
   OMEGAMAX=  -1.0    maximum frequency
   DEG_THRESHOLD= 0.2000000E-02 threshold for treating states as degnerate
   RTIME   =   -0.100 relaxation time in fs
  (WPLASMAI=    0.000 imaginary part of plasma frequency in eV, 0.658/RTIME)
   DFIELD  = 0.0000000 0.0000000 0.0000000 field for delta impulse in time
 
 Orbital magnetization related:
   ORBITALMAG=     F  switch on orbital magnetization
   LCHIMAG   =     F  perturbation theory with respect to B field
   DQ        =  0.001000  dq finite difference perturbation B field
   LLRAUG    =     F  two centre corrections for induced B field



--------------------------------------------------------------------------------------------------------


 Static calculation
 charge density and potential will be updated during run
 non-spin polarized calculation
 Conjugate gradient for all bands (Freysoldt, et al. PRB 79, 241103 (2009))
 preconditioned conjugated gradient                                        
 perform sub-space diagonalisation
    before iterative eigenvector-optimisation
 modified Broyden-mixing scheme, WC =      100.0
 initial mixing is a Kerker type mixing with AMIX =  0.4000 and BMIX =      1.0000
 Hartree-type preconditioning will be used
 using additional bands           32
 reciprocal scheme for non local part
 use partial core corrections
 no Harris-corrections to forces 
 use gradient corrections 
 use of overlap-Matrix (Vanderbilt PP)
 Gauss-broadening in eV      SIGMA  =   0.01


--------------------------------------------------------------------------------------------------------


  energy-cutoff  :     1000.00
  volume of cell :     2631.08
      direct lattice vectors                 reciprocal lattice vectors
    12.325000000  0.000000000  0.000000000     0.081135903  0.046843835  0.000000000
    -6.162500000 10.673763102  0.000000000     0.000000000  0.093687670  0.000000000
     0.000000000  0.000000000 20.000000000     0.000000000  0.000000000  0.050000000

  length of vectors
    12.325000000 12.325000000 20.000000000     0.093687670  0.093687670  0.050000000


 
 k-points in units of 2pi/SCALE and weight: auto                                    
   0.00000000  0.00000000  0.00000000       1.000
 
 k-points in reciprocal lattice and weights: auto                                    
   0.00000000  0.00000000  0.00000000       1.000
 
 position of ions in fractional coordinates (direct lattice) 
   0.97245084  0.00032082  0.00070839
   0.03911838  0.13365950  0.00055022
   0.17244363  0.00029545  0.00062454
   0.23909628  0.13364792  0.00032058
   0.97245206  0.20032201  0.00060652
   0.03912836  0.33364377  0.00055519
   0.17245176  0.20035455  0.00027396
   0.23912436  0.33366572  0.00009033
   0.37246557  0.00032440  0.00056739
   0.43913747  0.13361994  0.00032292
   0.97244982  0.40030936  0.00068451
   0.03912498  0.53363679  0.00071676
   0.37241618  0.40032948  0.00000000
   0.43909960  0.53363898  0.00029052
   0.57244368  0.00031213  0.00069947
   0.63911021  0.13363175  0.00068409
   0.97245270  0.60030565  0.00080036
   0.03912449  0.73364036  0.00081814
   0.57243347  0.60030624  0.00050362
   0.63911189  0.73364188  0.00065988
   0.17245463  0.40031823  0.00036131
   0.23912018  0.53363655  0.00047314
   0.37245975  0.20029599  0.00011125
   0.43910710  0.33367342  0.00006970
   0.17245216  0.60031151  0.00065542
   0.23912337  0.73363857  0.00071891
   0.57243108  0.20028917  0.00051662
   0.63911277  0.33361863  0.00057797
   0.37243981  0.60030802  0.00045356
   0.43911609  0.73363786  0.00061774
   0.57246936  0.40032050  0.00042490
   0.63911941  0.53365087  0.00057451
   0.77244572  0.00031543  0.00074520
   0.83911628  0.13364020  0.00071913
   0.77244051  0.20030743  0.00072629
   0.83912024  0.33363573  0.00073183
   0.77244632  0.40029837  0.00072872
   0.83911898  0.53363396  0.00077638
   0.77245614  0.60030817  0.00074464
   0.83911503  0.73364318  0.00078939
   0.97245531  0.80030558  0.00081529
   0.03911471  0.93364329  0.00074756
   0.17245797  0.80031221  0.00077922
   0.23913455  0.93364719  0.00068106
   0.37245140  0.80031667  0.00068925
   0.43912449  0.93364477  0.00067679
   0.57244110  0.80031005  0.00066817
   0.63911507  0.93363899  0.00073456
   0.77244510  0.80031319  0.00075258
   0.83911661  0.93364434  0.00075854
   0.37302101  0.25122688  0.28061551
   0.42087980  0.18931315  0.28383660
   0.32515698  0.31316719  0.27764277
 
 position of ions in cartesian coordinates  (Angst):
  11.98347958  0.00342433  0.01416777
  -0.34154264  1.42664989  0.01100432
   2.12354700  0.00315355  0.01249070
   2.12325634  1.42652621  0.00641170
  10.75098721  2.13818970  0.01213047
  -1.57382270  3.56123457  0.01110375
   0.89078307  2.13853702  0.00547917
   0.89099273  3.56146885  0.00180651
   4.58863896  0.00346260  0.01134782
   4.58893648  1.42622757  0.00645846
   9.51853763  4.27280730  0.01369027
  -2.80632132  5.69591267  0.01433526
   2.12299894  4.27302204  0.00000000
   2.12335237  5.69593607  0.00581036
   7.05344483  0.00333155  0.01398950
   7.05352764  1.42635365  0.01368187
   8.28609598  6.40752033  0.01600723
  -4.03884931  7.83070339  0.01636283
   3.35585531  6.40752662  0.01007237
   3.35598594  7.83071962  0.01319763
  -0.34145776  4.27290193  0.00722612
  -0.34137895  5.69591010  0.00946273
   3.35624236  2.13791198  0.00222492
   3.35573251  3.56155103  0.00139405
  -1.57394684  6.40758280  0.01310850
  -1.57385216  7.83068434  0.01437823
   5.82093107  2.13783916  0.01033241
   5.82114012  3.56096622  0.01155939
   0.89092245  6.40754561  0.00907111
   0.89106251  7.83067670  0.01235474
   4.58870974  4.27292622  0.00849795
   4.58852320  5.69606300  0.01149026
   9.51844972  0.00336679  0.01490402
   9.51855036  1.42644387  0.01438264
   8.28593477  2.13803408  0.01452582
   8.28612680  3.56114872  0.01463668
   7.05356221  4.27268994  0.01457444
   7.05362213  5.69588251  0.01552751
   5.82112285  6.40754723  0.01489279
   5.82101669  7.83073350  0.01578780
   7.05362858  8.54227219  0.01630582
  -5.27148792  9.96548729  0.01495127
  -2.80637951  8.54234295  0.01558431
  -2.80626749  9.96552896  0.01362126
  -0.34148805  8.54239058  0.01378498
  -0.34137657  9.96550309  0.01353576
   2.12342586  8.54231992  0.01336337
   2.12354296  9.96544135  0.01469111
   4.58845581  8.54235337  0.01505154
   4.58852904  9.96549848  0.01517076
   3.04929830  2.68153618  5.61231024
   4.02070129  2.02068374  5.67673210
   2.07766701  3.34267235  5.55285537
 


--------------------------------------------------------------------------------------------------------


 k-point   1 :   0.0000 0.0000 0.0000  plane waves:  189031

 maximum and minimum number of plane-waves per node :     47262    47254

 maximum number of plane-waves:    189031
 maximum index in each direction: 
   IXMAX=   31   IYMAX=   31   IZMAX=   51
   IXMIN=  -31   IYMIN=  -31   IZMIN=  -51


 parallel 3D FFT for wavefunctions:
    minimum data exchange during FFTs selected (reduces bandwidth)
 parallel 3D FFT for charge:
    minimum data exchange during FFTs selected (reduces bandwidth)


 total amount of memory used by VASP MPI-rank0   175916. kBytes
=======================================================================

   base      :      30000. kBytes
   nonl-proj :      46129. kBytes
   fftplans  :      35778. kBytes
   grid      :      52596. kBytes
   one-center:         43. kBytes
   wavefun   :      11370. kBytes
 
     INWAV:  cpu time    0.0000: real time    0.0000
 Broyden mixing: mesh for mixing (old mesh)
   NGX = 63   NGY = 63   NGZ =103
  (NGX  =256   NGY  =256   NGZ  =420)
  gives a total of 408807 points

 initial charge density was supplied:
 charge density of overlapping atoms calculated
 number of electron     216.0000000 magnetization 
 keeping initial charge density in first step


--------------------------------------------------------------------------------------------------------


 Maximum index for augmentation-charges          459 (set IRDMAX)


--------------------------------------------------------------------------------------------------------


 First call to EWALD:  gamma=   0.128
 Maximum number of real-space cells 3x 3x 2
 Maximum number of reciprocal cells 3x 3x 4

    FEWALD:  cpu time    0.0023: real time    0.0023


--------------------------------------- Iteration      1(   1)  ---------------------------------------


    POTLOK:  cpu time    0.2918: real time    0.2943
    SETDIJ:  cpu time    0.0049: real time    0.0051
    TRIAL :  cpu time    4.2024: real time    4.2466
    CORREC:  cpu time    0.0003: real time    0.0005
    --------------------------------------------
      LOOP:  cpu time    4.5021: real time    4.5712

 eigenvalue-minimisations  :   280
 total energy-change (2. order) : 0.2673349E+04  (-0.1113810E+05)
 number of electron     216.0000000 magnetization 
 augmentation part      216.0000000 magnetization 

 Free energy of the ion-electron system (eV)
  ---------------------------------------------------
  alpha Z        PSCENC =        59.93625244
  Ewald energy   TEWEN  =     31337.23411091
  -Hartree energ DENC   =    -37512.68021734
  -exchange      EXHF   =         0.00000000
  -V(xc)+E(xc)   XCENC  =       415.89406304
  PAW double counting   =      6538.03749920    -6258.26020123
  entropy T*S    EENTRO =        -0.00000000
  eigenvalues    EBANDS =      -271.12196987
  atomic energy  EATOM  =      8364.30921166
  ---------------------------------------------------
  free energy    TOTEN  =      2673.34874883 eV

  energy without entropy =     2673.34874883  energy(sigma->0) =     2673.34874883


--------------------------------------------------------------------------------------------------------




--------------------------------------- Iteration      1(   2)  ---------------------------------------


    TRIAL :  cpu time    6.0703: real time    6.1312
    CORREC:  cpu time    0.0001: real time    0.0001
    --------------------------------------------
      LOOP:  cpu time    6.1269: real time    6.1896

 eigenvalue-minimisations  :   448
 total energy-change (2. order) :-0.2445245E+04  (-0.2299160E+04)
 number of electron     216.0000000 magnetization 
 augmentation part      216.0000000 magnetization 

 Free energy of the ion-electron system (eV)
  ---------------------------------------------------
  alpha Z        PSCENC =        59.93625244
  Ewald energy   TEWEN  =     31337.23411091
  -Hartree energ DENC   =    -37512.68021734
  -exchange      EXHF   =         0.00000000
  -V(xc)+E(xc)   XCENC  =       415.89406304
  PAW double counting   =      6538.03749920    -6258.26020123
  entropy T*S    EENTRO =        -0.00000000
  eigenvalues    EBANDS =     -2716.36679880
  atomic energy  EATOM  =      8364.30921166
  ---------------------------------------------------
  free energy    TOTEN  =       228.10391989 eV

  energy without entropy =      228.10391989  energy(sigma->0) =      228.10391989


--------------------------------------------------------------------------------------------------------




--------------------------------------- Iteration      1(   3)  ---------------------------------------


    TRIAL :  cpu time    4.8018: real time    4.8526
    CORREC:  cpu time    0.0001: real time    0.0001
    --------------------------------------------
      LOOP:  cpu time    4.8436: real time    4.9191

 eigenvalue-minimisations  :   336
 total energy-change (2. order) :-0.6892339E+03  (-0.6852945E+03)
 number of electron     216.0000000 magnetization 
 augmentation part      216.0000000 magnetization 

 Free energy of the ion-electron system (eV)
  ---------------------------------------------------
  alpha Z        PSCENC =        59.93625244
  Ewald energy   TEWEN  =     31337.23411091
  -Hartree energ DENC   =    -37512.68021734
  -exchange      EXHF   =         0.00000000
  -V(xc)+E(xc)   XCENC  =       415.89406304
  PAW double counting   =      6538.03749920    -6258.26020123
  entropy T*S    EENTRO =        -0.00000000
  eigenvalues    EBANDS =     -3405.60069757
  atomic energy  EATOM  =      8364.30921166
  ---------------------------------------------------
  free energy    TOTEN  =      -461.12997887 eV

  energy without entropy =     -461.12997887  energy(sigma->0) =     -461.12997887


--------------------------------------------------------------------------------------------------------




--------------------------------------- Iteration      1(   4)  ---------------------------------------


    TRIAL :  cpu time    5.4113: real time    5.4881
    CORREC:  cpu time    0.0001: real time    0.0001
    --------------------------------------------
      LOOP:  cpu time    5.4466: real time    5.5238

 eigenvalue-minimisations  :   392
 total energy-change (2. order) :-0.3672233E+02  (-0.3656028E+02)
 number of electron     216.0000000 magnetization 
 augmentation part      216.0000000 magnetization 

 Free energy of the ion-electron system (eV)
  ---------------------------------------------------
  alpha Z        PSCENC =        59.93625244
  Ewald energy   TEWEN  =     31337.23411091
  -Hartree energ DENC   =    -37512.68021734
  -exchange      EXHF   =         0.00000000
  -V(xc)+E(xc)   XCENC  =       415.89406304
  PAW double counting   =      6538.03749920    -6258.26020123
  entropy T*S    EENTRO =        -0.00000000
  eigenvalues    EBANDS =     -3442.32302700
  atomic energy  EATOM  =      8364.30921166
  ---------------------------------------------------
  free energy    TOTEN  =      -497.85230831 eV

  energy without entropy =     -497.85230831  energy(sigma->0) =     -497.85230831


--------------------------------------------------------------------------------------------------------




--------------------------------------- Iteration      1(   5)  ---------------------------------------


    TRIAL :  cpu time    5.4317: real time    5.4864
    CORREC:  cpu time    0.0001: real time    0.0001
    CHARGE:  cpu time    0.2417: real time    0.2476
    --------------------------------------------
      LOOP:  cpu time    5.6920: real time    5.7567

 eigenvalue-minimisations  :   392
 total energy-change (2. order) :-0.7632025E+00  (-0.7598009E+00)
 number of electron     216.0000000 magnetization 
 augmentation part       -0.3143925 magnetization 

 Free energy of the ion-electron system (eV)
  ---------------------------------------------------
  alpha Z        PSCENC =        59.93625244
  Ewald energy   TEWEN  =     31337.23411091
  -Hartree energ DENC   =    -37512.68021734
  -exchange      EXHF   =         0.00000000
  -V(xc)+E(xc)   XCENC  =       415.89406304
  PAW double counting   =      6538.03749920    -6258.26020123
  entropy T*S    EENTRO =        -0.00000000
  eigenvalues    EBANDS =     -3443.08622945
  atomic energy  EATOM  =      8364.30921166
  ---------------------------------------------------
  free energy    TOTEN  =      -498.61551076 eV

  energy without entropy =     -498.61551076  energy(sigma->0) =     -498.61551076


--------------------------------------------------------------------------------------------------------




--------------------------------------- Iteration      1(   6)  ---------------------------------------


    POTLOK:  cpu time    0.2716: real time    0.2741
    SETDIJ:  cpu time    0.0032: real time    0.0032
    TRIAL :  cpu time    2.0042: real time    2.0337
    CORREC:  cpu time    0.7952: real time    0.8074
    CHARGE:  cpu time    0.2332: real time    0.2352
    --------------------------------------------
      LOOP:  cpu time    3.3535: real time    3.4190

 eigenvalue-minimisations  :     0
 total energy-change (2. order) : 0.4856091E+02  (-0.1434605E+02)
 number of electron     216.0000000 magnetization 
 augmentation part       -0.4060713 magnetization 

 Free energy of the ion-electron system (eV)
  ---------------------------------------------------
  alpha Z        PSCENC =        59.93625244
  Ewald energy   TEWEN  =     31337.23411091
  -Hartree energ DENC   =    -38908.87621501
  -exchange      EXHF   =         0.00000000
  -V(xc)+E(xc)   XCENC  =       462.89339460
  PAW double counting   =    104395.41268021  -104120.98136754
  entropy T*S    EENTRO =        -0.00000000
  eigenvalues    EBANDS =     -2039.98266716
  atomic energy  EATOM  =      8364.30921166
  ---------------------------------------------------
  free energy    TOTEN  =      -450.05459989 eV

  energy without entropy =     -450.05459989  energy(sigma->0) =     -450.05459989


--------------------------------------------------------------------------------------------------------




--------------------------------------- Iteration      1(   7)  ---------------------------------------


    POTLOK:  cpu time    0.2719: real time    0.2741
    SETDIJ:  cpu time    0.0029: real time    0.0029
    TRIAL :  cpu time    2.0079: real time    2.0284
    CORREC:  cpu time    0.7991: real time    0.8065
    CHARGE:  cpu time    0.2326: real time    0.2347
    --------------------------------------------
      LOOP:  cpu time    3.3724: real time    3.4068

 eigenvalue-minimisations  :     0
 total energy-change (2. order) :-0.1438420E+02  (-0.1757629E+01)
 number of electron     216.0000000 magnetization 
 augmentation part       -0.4514196 magnetization 

 Free energy of the ion-electron system (eV)
  ---------------------------------------------------
  alpha Z        PSCENC =        59.93625244
  Ewald energy   TEWEN  =     31337.23411091
  -Hartree energ DENC   =    -38429.83801630
  -exchange      EXHF   =         0.00000000
  -V(xc)+E(xc)   XCENC  =       446.79351247
  PAW double counting   =    120498.45889919  -120221.97080739
  entropy T*S    EENTRO =        -0.00000000
  eigenvalues    EBANDS =     -2519.36196580
  atomic energy  EATOM  =      8364.30921166
  ---------------------------------------------------
  free energy    TOTEN  =      -464.43880281 eV

  energy without entropy =     -464.43880281  energy(sigma->0) =     -464.43880281


--------------------------------------------------------------------------------------------------------




--------------------------------------- Iteration      1(   8)  ---------------------------------------


    POTLOK:  cpu time    0.2744: real time    0.2764
    SETDIJ:  cpu time    0.0030: real time    0.0030
    TRIAL :  cpu time    2.0080: real time    2.0283
    CORREC:  cpu time    0.8023: real time    0.8090
    CHARGE:  cpu time    0.2333: real time    0.2352
    --------------------------------------------
      LOOP:  cpu time    3.3556: real time    3.4245

 eigenvalue-minimisations  :     0
 total energy-change (2. order) :-0.1756512E+01  (-0.4557479E+00)
 number of electron     216.0000000 magnetization 
 augmentation part       -0.4669524 magnetization 

 Free energy of the ion-electron system (eV)
  ---------------------------------------------------
  alpha Z        PSCENC =        59.93625244
  Ewald energy   TEWEN  =     31337.23411091
  -Hartree energ DENC   =    -38399.06319098
  -exchange      EXHF   =         0.00000000
  -V(xc)+E(xc)   XCENC  =       446.17288877
  PAW double counting   =    124711.23172025  -124434.45034009
  entropy T*S    EENTRO =        -0.00000000
  eigenvalues    EBANDS =     -2551.56596811
  atomic energy  EATOM  =      8364.30921166
  ---------------------------------------------------
  free energy    TOTEN  =      -466.19531514 eV

  energy without entropy =     -466.19531514  energy(sigma->0) =     -466.19531514


--------------------------------------------------------------------------------------------------------




--------------------------------------- Iteration      1(   9)  ---------------------------------------


    POTLOK:  cpu time    0.2717: real time    0.2738
    SETDIJ:  cpu time    0.0030: real time    0.0030
    TRIAL :  cpu time    2.0058: real time    2.0279
    CORREC:  cpu time    0.8003: real time    0.8078
    CHARGE:  cpu time    0.2326: real time    0.2346
    --------------------------------------------
      LOOP:  cpu time    3.3780: real time    3.4151

 eigenvalue-minimisations  :     0
 total energy-change (2. order) :-0.4556203E+00  (-0.1427407E+00)
 number of electron     216.0000000 magnetization 
 augmentation part       -0.4738356 magnetization 

 Free energy of the ion-electron system (eV)
  ---------------------------------------------------
  alpha Z        PSCENC =        59.93625244
  Ewald energy   TEWEN  =     31337.23411091
  -Hartree energ DENC   =    -38415.02795614
  -exchange      EXHF   =         0.00000000
  -V(xc)+E(xc)   XCENC  =       446.37008832
  PAW double counting   =    127211.89546316  -126935.01362528
  entropy T*S    EENTRO =        -0.00000000
  eigenvalues    EBANDS =     -2536.35448053
  atomic energy  EATOM  =      8364.30921166
  ---------------------------------------------------
  free energy    TOTEN  =      -466.65093546 eV

  energy without entropy =     -466.65093546  energy(sigma->0) =     -466.65093546


--------------------------------------------------------------------------------------------------------




--------------------------------------- Iteration      1(  10)  ---------------------------------------


    POTLOK:  cpu time    0.2719: real time    0.2739
    SETDIJ:  cpu time    0.0027: real time    0.0027
    TRIAL :  cpu time    2.0100: real time    2.0307
    CORREC:  cpu time    0.7970: real time    0.8108
    CHARGE:  cpu time    0.2337: real time    0.2356
    --------------------------------------------
      LOOP:  cpu time    3.3562: real time    3.4190

 eigenvalue-minimisations  :     0
 total energy-change (2. order) :-0.1425482E+00  (-0.5633759E-01)
 number of electron     216.0000000 magnetization 
 augmentation part       -0.4746588 magnetization 

 Free energy of the ion-electron system (eV)
  ---------------------------------------------------
  alpha Z        PSCENC =        59.93625244
  Ewald energy   TEWEN  =     31337.23411091
  -Hartree energ DENC   =    -38416.52581150
  -exchange      EXHF   =         0.00000000
  -V(xc)+E(xc)   XCENC  =       446.29551578
  PAW double counting   =    127444.23932647  -127167.29725380
  entropy T*S    EENTRO =        -0.00000000
  eigenvalues    EBANDS =     -2534.98483561
  atomic energy  EATOM  =      8364.30921166
  ---------------------------------------------------
  free energy    TOTEN  =      -466.79348364 eV

  energy without entropy =     -466.79348364  energy(sigma->0) =     -466.79348364


--------------------------------------------------------------------------------------------------------




--------------------------------------- Iteration      1(  11)  ---------------------------------------


    POTLOK:  cpu time    0.2912: real time    0.2931
    SETDIJ:  cpu time    0.0030: real time    0.0030
    TRIAL :  cpu time    2.0080: real time    2.0286
    CORREC:  cpu time    0.7990: real time    0.8064
    CHARGE:  cpu time    0.2325: real time    0.2345
    --------------------------------------------
      LOOP:  cpu time    3.4211: real time    3.4564

 eigenvalue-minimisations  :     0
 total energy-change (2. order) :-0.5621335E-01  (-0.2309375E-01)
 number of electron     216.0000000 magnetization 
 augmentation part       -0.4744666 magnetization 

 Free energy of the ion-electron system (eV)
  ---------------------------------------------------
  alpha Z        PSCENC =        59.93625244
  Ewald energy   TEWEN  =     31337.23411091
  -Hartree energ DENC   =    -38413.12438362
  -exchange      EXHF   =         0.00000000
  -V(xc)+E(xc)   XCENC  =       446.23788258
  PAW double counting   =    126855.19156139  -126578.25051930
  entropy T*S    EENTRO =        -0.00000000
  eigenvalues    EBANDS =     -2538.38381306
  atomic energy  EATOM  =      8364.30921166
  ---------------------------------------------------
  free energy    TOTEN  =      -466.84969699 eV

  energy without entropy =     -466.84969699  energy(sigma->0) =     -466.84969699


--------------------------------------------------------------------------------------------------------




--------------------------------------- Iteration      1(  12)  ---------------------------------------


    POTLOK:  cpu time    0.2715: real time    0.2735
    SETDIJ:  cpu time    0.0028: real time    0.0029
    TRIAL :  cpu time    2.0074: real time    2.0278
    CORREC:  cpu time    0.7971: real time    0.8047
    CHARGE:  cpu time    0.2381: real time    0.2401
    --------------------------------------------
      LOOP:  cpu time    3.3655: real time    3.4004

 eigenvalue-minimisations  :     0
 total energy-change (2. order) :-0.2300548E-01  (-0.8308269E-02)
 number of electron     216.0000000 magnetization 
 augmentation part       -0.4747797 magnetization 

 Free energy of the ion-electron system (eV)
  ---------------------------------------------------
  alpha Z        PSCENC =        59.93625244
  Ewald energy   TEWEN  =     31337.23411091
  -Hartree energ DENC   =    -38411.58157952
  -exchange      EXHF   =         0.00000000
  -V(xc)+E(xc)   XCENC  =       446.20569467
  PAW double counting   =    126475.33648721  -126198.41127759
  entropy T*S    EENTRO =        -0.00000000
  eigenvalues    EBANDS =     -2539.90160226
  atomic energy  EATOM  =      8364.30921166
  ---------------------------------------------------
  free energy    TOTEN  =      -466.87270247 eV

  energy without entropy =     -466.87270247  energy(sigma->0) =     -466.87270247


--------------------------------------------------------------------------------------------------------




--------------------------------------- Iteration      1(  13)  ---------------------------------------


    POTLOK:  cpu time    0.2713: real time    0.2734
    SETDIJ:  cpu time    0.0030: real time    0.0030
    TRIAL :  cpu time    2.0103: real time    2.0309
    CORREC:  cpu time    0.7977: real time    0.8045
    CHARGE:  cpu time    0.2324: real time    0.2344
    --------------------------------------------
      LOOP:  cpu time    3.3544: real time    3.3874

 eigenvalue-minimisations  :     0
 total energy-change (2. order) :-0.8287103E-02  (-0.2439004E-02)
 number of electron     216.0000000 magnetization 
 augmentation part       -0.4745032 magnetization 

 Free energy of the ion-electron system (eV)
  ---------------------------------------------------
  alpha Z        PSCENC =        59.93625244
  Ewald energy   TEWEN  =     31337.23411091
  -Hartree energ DENC   =    -38411.52319646
  -exchange      EXHF   =         0.00000000
  -V(xc)+E(xc)   XCENC  =       446.19698204
  PAW double counting   =    126396.12014764  -126119.20060832
  entropy T*S    EENTRO =        -0.00000000
  eigenvalues    EBANDS =     -2539.95388949
  atomic energy  EATOM  =      8364.30921166
  ---------------------------------------------------
  free energy    TOTEN  =      -466.88098957 eV

  energy without entropy =     -466.88098957  energy(sigma->0) =     -466.88098957


--------------------------------------------------------------------------------------------------------




--------------------------------------- Iteration      1(  14)  ---------------------------------------


    POTLOK:  cpu time    0.2709: real time    0.2727
    SETDIJ:  cpu time    0.0030: real time    0.0030
    TRIAL :  cpu time    2.0080: real time    2.0279
    CORREC:  cpu time    0.7965: real time    0.8038
    CHARGE:  cpu time    0.2333: real time    0.2353
    --------------------------------------------
      LOOP:  cpu time    3.3572: real time    3.3964

 eigenvalue-minimisations  :     0
 total energy-change (2. order) :-0.2439189E-02  (-0.7256202E-03)
 number of electron     216.0000000 magnetization 
 augmentation part       -0.4742542 magnetization 

 Free energy of the ion-electron system (eV)
  ---------------------------------------------------
  alpha Z        PSCENC =        59.93625244
  Ewald energy   TEWEN  =     31337.23411091
  -Hartree energ DENC   =    -38411.45862139
  -exchange      EXHF   =         0.00000000
  -V(xc)+E(xc)   XCENC  =       446.19779929
  PAW double counting   =    126457.83839893  -126180.92017205
  entropy T*S    EENTRO =        -0.00000000
  eigenvalues    EBANDS =     -2540.02040856
  atomic energy  EATOM  =      8364.30921166
  ---------------------------------------------------
  free energy    TOTEN  =      -466.88342876 eV

  energy without entropy =     -466.88342876  energy(sigma->0) =     -466.88342876


--------------------------------------------------------------------------------------------------------




--------------------------------------- Iteration      1(  15)  ---------------------------------------


    POTLOK:  cpu time    0.2717: real time    0.2736
    SETDIJ:  cpu time    0.0030: real time    0.0030
    TRIAL :  cpu time    2.0051: real time    2.0255
    CORREC:  cpu time    0.7953: real time    0.8028
    CHARGE:  cpu time    0.2328: real time    0.2348
    --------------------------------------------
      LOOP:  cpu time    3.3658: real time    3.3979

 eigenvalue-minimisations  :     0
 total energy-change (2. order) :-0.7276085E-03  (-0.2719566E-03)
 number of electron     216.0000000 magnetization 
 augmentation part       -0.4739288 magnetization 

 Free energy of the ion-electron system (eV)
  ---------------------------------------------------
  alpha Z        PSCENC =        59.93625244
  Ewald energy   TEWEN  =     31337.23411091
  -Hartree energ DENC   =    -38411.10048357
  -exchange      EXHF   =         0.00000000
  -V(xc)+E(xc)   XCENC  =       446.18426052
  PAW double counting   =    126498.77848428  -126221.85884545
  entropy T*S    EENTRO =        -0.00000000
  eigenvalues    EBANDS =     -2540.36714717
  atomic energy  EATOM  =      8364.30921166
  ---------------------------------------------------
  free energy    TOTEN  =      -466.88415637 eV

  energy without entropy =     -466.88415637  energy(sigma->0) =     -466.88415637


--------------------------------------------------------------------------------------------------------




--------------------------------------- Iteration      1(  16)  ---------------------------------------


    POTLOK:  cpu time    0.2679: real time    0.2698
    SETDIJ:  cpu time    0.0030: real time    0.0030
    TRIAL :  cpu time    2.0067: real time    2.0270
    CORREC:  cpu time    0.7937: real time    0.8011
    CHARGE:  cpu time    0.2329: real time    0.2353
    --------------------------------------------
      LOOP:  cpu time    3.3639: real time    3.4059

 eigenvalue-minimisations  :     0
 total energy-change (2. order) :-0.2735132E-03  (-0.1071153E-03)
 number of electron     216.0000000 magnetization 
 augmentation part       -0.4737511 magnetization 

 Free energy of the ion-electron system (eV)
  ---------------------------------------------------
  alpha Z        PSCENC =        59.93625244
  Ewald energy   TEWEN  =     31337.23411091
  -Hartree energ DENC   =    -38411.22488277
  -exchange      EXHF   =         0.00000000
  -V(xc)+E(xc)   XCENC  =       446.18909739
  PAW double counting   =    126477.76695677  -126200.84803886
  entropy T*S    EENTRO =        -0.00000000
  eigenvalues    EBANDS =     -2540.24713743
  atomic energy  EATOM  =      8364.30921166
  ---------------------------------------------------
  free energy    TOTEN  =      -466.88442989 eV

  energy without entropy =     -466.88442989  energy(sigma->0) =     -466.88442989


--------------------------------------------------------------------------------------------------------




--------------------------------------- Iteration      1(  17)  ---------------------------------------


    POTLOK:  cpu time    0.2674: real time    0.2695
    SETDIJ:  cpu time    0.0029: real time    0.0030
    TRIAL :  cpu time    2.0095: real time    2.0302
    CORREC:  cpu time    0.7939: real time    0.8012
    CHARGE:  cpu time    0.2336: real time    0.2356
    --------------------------------------------
      LOOP:  cpu time    3.3112: real time    3.3819

 eigenvalue-minimisations  :     0
 total energy-change (2. order) :-0.1080753E-03  (-0.4334193E-04)
 number of electron     216.0000000 magnetization 
 augmentation part       -0.4737529 magnetization 

 Free energy of the ion-electron system (eV)
  ---------------------------------------------------
  alpha Z        PSCENC =        59.93625244
  Ewald energy   TEWEN  =     31337.23411091
  -Hartree energ DENC   =    -38411.34942098
  -exchange      EXHF   =         0.00000000
  -V(xc)+E(xc)   XCENC  =       446.19255583
  PAW double counting   =    126445.36914422  -126168.45053797
  entropy T*S    EENTRO =        -0.00000000
  eigenvalues    EBANDS =     -2540.12585408
  atomic energy  EATOM  =      8364.30921166
  ---------------------------------------------------
  free energy    TOTEN  =      -466.88453796 eV

  energy without entropy =     -466.88453796  energy(sigma->0) =     -466.88453796


--------------------------------------------------------------------------------------------------------




--------------------------------------- Iteration      1(  18)  ---------------------------------------


    POTLOK:  cpu time    0.2679: real time    0.2698
    SETDIJ:  cpu time    0.0028: real time    0.0028
    TRIAL :  cpu time    2.0069: real time    2.0274
    CORREC:  cpu time    0.7961: real time    0.8034
    CHARGE:  cpu time    0.2333: real time    0.2352
    --------------------------------------------
      LOOP:  cpu time    3.3663: real time    3.4003

 eigenvalue-minimisations  :     0
 total energy-change (2. order) :-0.4362693E-04  (-0.1646460E-04)
 number of electron     216.0000000 magnetization 
 augmentation part       -0.4738131 magnetization 

 Free energy of the ion-electron system (eV)
  ---------------------------------------------------
  alpha Z        PSCENC =        59.93625244
  Ewald energy   TEWEN  =     31337.23411091
  -Hartree energ DENC   =    -38411.33351847
  -exchange      EXHF   =         0.00000000
  -V(xc)+E(xc)   XCENC  =       446.19148683
  PAW double counting   =    126435.80773731  -126158.88875363
  entropy T*S    EENTRO =        -0.00000000
  eigenvalues    EBANDS =     -2540.14110865
  atomic energy  EATOM  =      8364.30921166
  ---------------------------------------------------
  free energy    TOTEN  =      -466.88458159 eV

  energy without entropy =     -466.88458159  energy(sigma->0) =     -466.88458159


--------------------------------------------------------------------------------------------------------




--------------------------------------- Iteration      1(  19)  ---------------------------------------


    POTLOK:  cpu time    0.2688: real time    0.2707
    SETDIJ:  cpu time    0.0029: real time    0.0029
    TRIAL :  cpu time    1.9967: real time    2.0322
    CORREC:  cpu time    0.7964: real time    0.8073
    CHARGE:  cpu time    0.2328: real time    0.2347
    --------------------------------------------
      LOOP:  cpu time    3.3291: real time    3.3812

 eigenvalue-minimisations  :     0
 total energy-change (2. order) :-0.1610945E-04  (-0.6327624E-05)
 number of electron     216.0000000 magnetization 
 augmentation part       -0.4738979 magnetization 

 Free energy of the ion-electron system (eV)
  ---------------------------------------------------
  alpha Z        PSCENC =        59.93625244
  Ewald energy   TEWEN  =     31337.23411091
  -Hartree energ DENC   =    -38411.34940803
  -exchange      EXHF   =         0.00000000
  -V(xc)+E(xc)   XCENC  =       446.19262223
  PAW double counting   =    126441.41757901  -126164.49849587
  entropy T*S    EENTRO =        -0.00000000
  eigenvalues    EBANDS =     -2540.12647005
  atomic energy  EATOM  =      8364.30921166
  ---------------------------------------------------
  free energy    TOTEN  =      -466.88459770 eV

  energy without entropy =     -466.88459770  energy(sigma->0) =     -466.88459770


--------------------------------------------------------------------------------------------------------




--------------------------------------- Iteration      1(  20)  ---------------------------------------


    POTLOK:  cpu time    0.2676: real time    0.2695
    SETDIJ:  cpu time    0.0030: real time    0.0030
    TRIAL :  cpu time    2.0080: real time    2.0284
    CORREC:  cpu time    0.7948: real time    0.8020
    CHARGE:  cpu time    0.2325: real time    0.2345
    --------------------------------------------
      LOOP:  cpu time    3.3638: real time    3.4045

 eigenvalue-minimisations  :     0
 total energy-change (2. order) :-0.5941067E-05  (-0.2401909E-05)
 number of electron     216.0000000 magnetization 
 augmentation part       -0.4739114 magnetization 

 Free energy of the ion-electron system (eV)
  ---------------------------------------------------
  alpha Z        PSCENC =        59.93625244
  Ewald energy   TEWEN  =     31337.23411091
  -Hartree energ DENC   =    -38411.34226010
  -exchange      EXHF   =         0.00000000
  -V(xc)+E(xc)   XCENC  =       446.19178416
  PAW double counting   =    126447.52719711  -126170.60779150
  entropy T*S    EENTRO =        -0.00000000
  eigenvalues    EBANDS =     -2540.13310831
  atomic energy  EATOM  =      8364.30921166
  ---------------------------------------------------
  free energy    TOTEN  =      -466.88460364 eV

  energy without entropy =     -466.88460364  energy(sigma->0) =     -466.88460364


--------------------------------------------------------------------------------------------------------




--------------------------------------- Iteration      1(  21)  ---------------------------------------


    POTLOK:  cpu time    0.2676: real time    0.2695
    SETDIJ:  cpu time    0.0031: real time    0.0031
    TRIAL :  cpu time    2.0069: real time    2.0287
    CORREC:  cpu time    0.8003: real time    0.8088
    CHARGE:  cpu time    0.2329: real time    0.2349
    --------------------------------------------
      LOOP:  cpu time    3.3509: real time    3.3856

 eigenvalue-minimisations  :     0
 total energy-change (2. order) :-0.2202054E-05  (-0.1016966E-05)
 number of electron     216.0000000 magnetization 
 augmentation part       -0.4739190 magnetization 

 Free energy of the ion-electron system (eV)
  ---------------------------------------------------
  alpha Z        PSCENC =        59.93625244
  Ewald energy   TEWEN  =     31337.23411091
  -Hartree energ DENC   =    -38411.36474061
  -exchange      EXHF   =         0.00000000
  -V(xc)+E(xc)   XCENC  =       446.19286890
  PAW double counting   =    126448.83684979  -126171.91758713
  entropy T*S    EENTRO =        -0.00000000
  eigenvalues    EBANDS =     -2540.11157181
  atomic energy  EATOM  =      8364.30921166
  ---------------------------------------------------
  free energy    TOTEN  =      -466.88460584 eV

  energy without entropy =     -466.88460584  energy(sigma->0) =     -466.88460584


--------------------------------------------------------------------------------------------------------




--------------------------------------- Iteration      1(  22)  ---------------------------------------


    POTLOK:  cpu time    0.2701: real time    0.2720
    SETDIJ:  cpu time    0.0028: real time    0.0028
    TRIAL :  cpu time    2.0063: real time    2.0286
    CORREC:  cpu time    0.7919: real time    0.8034
    EDDIAG:  cpu time    0.4566: real time    0.4629
    CHARGE:  cpu time    0.2322: real time    0.2345
    --------------------------------------------
      LOOP:  cpu time    3.7915: real time    3.8363

 eigenvalue-minimisations  :     0
 total energy-change (2. order) :-0.9950309E-06  (-0.4309688E-06)
 number of electron     216.0000000 magnetization 
 augmentation part       -0.4739131 magnetization 

 Free energy of the ion-electron system (eV)
  ---------------------------------------------------
  alpha Z        PSCENC =        59.93625244
  Ewald energy   TEWEN  =     31337.23411091
  -Hartree energ DENC   =    -38411.35240393
  -exchange      EXHF   =         0.00000000
  -V(xc)+E(xc)   XCENC  =       446.19226638
  PAW double counting   =    126447.98123718  -126171.06194104
  entropy T*S    EENTRO =        -0.00000000
  eigenvalues    EBANDS =     -2540.12334043
  atomic energy  EATOM  =      8364.30921166
  ---------------------------------------------------
  free energy    TOTEN  =      -466.88460684 eV

  energy without entropy =     -466.88460684  energy(sigma->0) =     -466.88460684


--------------------------------------------------------------------------------------------------------


  average scaling for gradient   0.9521


 average (electrostatic) potential at core
  the test charge radii are     0.5770  0.5955
  (the norm of the test charge is              1.0000)
       1 -85.4322       2 -85.4312       3 -85.4332       4 -85.4346       5 -85.4298
       6 -85.4293       7 -85.4329       8 -85.4307       9 -85.4309      10 -85.4325
      11 -85.4293      12 -85.4298      13 -85.4323      14 -85.4307      15 -85.4292
      16 -85.4297      17 -85.4305      18 -85.4314      19 -85.4321      20 -85.4307
      21 -85.4292      22 -85.4288      23 -85.4354      24 -85.4352      25 -85.4290
      26 -85.4296      27 -85.4312      28 -85.4329      29 -85.4292      30 -85.4291
      31 -85.4339      32 -85.4326      33 -85.4301      34 -85.4295      35 -85.4296
      36 -85.4300      37 -85.4311      38 -85.4318      39 -85.4318      40 -85.4316
      41 -85.4316      42 -85.4322      43 -85.4307      44 -85.4322      45 -85.4291
      46 -85.4295      47 -85.4298      48 -85.4293      49 -85.4316      50 -85.4308
      51 -89.3887      52-120.0542      53-120.0535
 
 
 
 E-fermi :  -3.8508     XC(G=0):  -2.4168     alpha+bet : -2.1113

 Fermi energy:        -3.8507972374

 k-point     1 :       0.0000    0.0000    0.0000
  band No.  band energies     occupation 
      1     -27.3285      2.00000
      2     -26.3061      2.00000
      3     -21.9983      2.00000
      4     -21.0567      2.00000
      5     -21.0564      2.00000
      6     -21.0562      2.00000
      7     -21.0550      2.00000
      8     -21.0545      2.00000
      9     -21.0544      2.00000
     10     -19.2080      2.00000
     11     -19.2079      2.00000
     12     -19.2076      2.00000
     13     -19.2071      2.00000
     14     -19.2070      2.00000
     15     -19.2068      2.00000
     16     -18.3091      2.00000
     17     -18.3090      2.00000
     18     -18.3087      2.00000
     19     -18.3082      2.00000
     20     -18.3078      2.00000
     21     -18.3076      2.00000
     22     -16.1468      2.00000
     23     -16.1465      2.00000
     24     -16.1457      2.00000
     25     -16.1455      2.00000
     26     -16.1449      2.00000
     27     -16.1448      2.00000
     28     -15.1299      2.00000
     29     -15.1299      2.00000
     30     -15.1293      2.00000
     31     -15.1292      2.00000
     32     -15.1286      2.00000
     33     -15.1285      2.00000
     34     -13.7784      2.00000
     35     -13.7783      2.00000
     36     -13.7777      2.00000
     37     -13.7775      2.00000
     38     -13.7774      2.00000
     39     -13.7773      2.00000
     40     -12.1078      2.00000
     41     -11.3887      2.00000
     42     -11.3884      2.00000
     43     -11.3880      2.00000
     44     -11.3879      2.00000
     45     -11.3869      2.00000
     46     -11.3867      2.00000
     47     -11.2659      2.00000
     48     -11.2659      2.00000
     49     -11.2653      2.00000
     50     -11.2653      2.00000
     51     -11.2646      2.00000
     52     -11.2645      2.00000
     53     -10.8825      2.00000
     54     -10.7995      2.00000
     55     -10.7994      2.00000
     56     -10.0225      2.00000
     57      -9.8816      2.00000
     58      -9.8815      2.00000
     59      -9.8800      2.00000
     60      -9.8796      2.00000
     61      -9.8795      2.00000
     62      -9.8794      2.00000
     63      -8.9087      2.00000
     64      -8.9080      2.00000
     65      -8.9071      2.00000
     66      -8.9061      2.00000
     67      -8.9048      2.00000
     68      -8.9048      2.00000
     69      -8.5982      2.00000
     70      -8.5980      2.00000
     71      -8.5975      2.00000
     72      -8.5972      2.00000
     73      -8.5967      2.00000
     74      -8.5966      2.00000
     75      -8.5653      2.00000
     76      -8.5652      2.00000
     77      -8.5649      2.00000
     78      -8.5648      2.00000
     79      -8.5644      2.00000
     80      -8.5635      2.00000
     81      -7.2602      2.00000
     82      -7.2601      2.00000
     83      -6.9391      2.00000
     84      -6.9377      2.00000
     85      -6.9374      2.00000
     86      -6.9369      2.00000
     87      -6.9357      2.00000
     88      -6.9356      2.00000
     89      -6.7803      2.00000
     90      -6.7799      2.00000
     91      -6.7797      2.00000
     92      -6.7797      2.00000
     93      -6.7796      2.00000
     94      -6.7794      2.00000
     95      -5.8870      2.00000
     96      -5.8861      2.00000
     97      -5.8858      2.00000
     98      -5.8856      2.00000
     99      -5.8853      2.00000
    100      -5.8851      2.00000
    101      -5.4454      2.00000
    102      -5.4432      2.00000
    103      -3.9073      2.00000
    104      -3.9072      2.00000
    105      -3.9069      2.00000
    106      -3.9066      2.00000
    107      -3.9051      2.00000
    108      -3.9049      2.00000
    109      -1.0935      0.00000
    110      -1.0932      0.00000
    111      -1.0921      0.00000
    112      -1.0918      0.00000
    113      -1.0916      0.00000
    114      -1.0914      0.00000
    115       0.4817      0.00000
    116       0.7794      0.00000
    117       0.7800      0.00000
    118       0.7805      0.00000
    119       0.7810      0.00000
    120       0.7811      0.00000
    121       0.7832      0.00000
    122       0.9971      0.00000
    123       1.2553      0.00000
    124       1.5128      0.00000
    125       1.5400      0.00000
    126       1.8795      0.00000
    127       1.9516      0.00000
    128       1.9701      0.00000
    129       2.0573      0.00000
    130       2.0694      0.00000
    131       2.0740      0.00000
    132       2.4099      0.00000
    133       2.5144      0.00000
    134       2.5150      0.00000
    135       2.5155      0.00000
    136       2.5164      0.00000
    137       2.5168      0.00000
    138       2.8565      0.00000
    139       3.0581      0.00000
    140       3.1300      0.00000


--------------------------------------------------------------------------------------------------------


 soft charge-density along one line, spin component           1
         0         1         2         3         4         5         6         7         8         9
 total charge-density along one line
 
 pseudopotential strength for first ion, spin component:           1
 12.709  21.388   0.000   0.000   0.000   0.000   0.000   0.000
 21.388  35.991   0.000   0.000   0.000   0.000   0.000   0.000
  0.000   0.000  -3.095  -0.000   0.000  -5.547  -0.000   0.000
  0.000   0.000  -0.000  -3.096  -0.000  -0.000  -5.548  -0.000
  0.000   0.000   0.000  -0.000  -3.095   0.000  -0.000  -5.547
  0.000   0.000  -5.547  -0.000   0.000  -9.919  -0.000   0.000
  0.000   0.000  -0.000  -5.548  -0.000  -0.000  -9.921  -0.000
  0.000   0.000   0.000  -0.000  -5.547   0.000  -0.000  -9.919
 total augmentation occupancy for first ion, spin component:           1
  8.451  -3.031  -0.000  -0.002  -0.000   0.000   0.001   0.000
 -3.031   1.122   0.000   0.001   0.000  -0.000  -0.000  -0.000
 -0.000   0.000   7.733  -0.008   0.000  -2.679   0.003  -0.000
 -0.002   0.001  -0.008   3.531  -0.000   0.003  -0.988   0.000
 -0.000   0.000   0.000  -0.000   7.732  -0.000   0.000  -2.678
  0.000  -0.000  -2.679   0.003  -0.000   0.941  -0.001   0.000
  0.001  -0.000   0.003  -0.988   0.000  -0.001   0.282  -0.000
  0.000  -0.000  -0.000   0.000  -2.678   0.000  -0.000   0.941


------------------------ aborting loop because EDIFF is reached ----------------------------------------


    FORLOC:  cpu time    0.0505: real time    0.0510
    FORNL :  cpu time    0.7375: real time    0.7472
    FORCOR:  cpu time    0.2858: real time    0.2880
    OFIELD:  cpu time    0.0015: real time    0.0015

 ---------------------------------------------------------------------------------------------

         DFTD3 V3.0 Rev 1        
 IVDW         = 11
 DF revpbe    
 parameters
 VDW_S6       =    1.0000
 VDW_S8       =    1.0100
 VDW_SR       =    0.9230
 rs18     =    1.0000
 alpha6   =   14.0000
 alpha8   =   16.0000
 k1-k3    =   16.0000    1.3333   -4.0000
 VDW_RADIUS   =   50.2022 A
 VDW_CNRADIUS =   21.1671 A
 Edisp (eV)   -3.67734

 E6    (eV) :    -2.6199
 E8    (eV) :    -1.0575
 % E8        : 28.76
    FORVDW:  cpu time    0.1771: real time    0.1783

 VOLUME and BASIS-vectors are now :
 -----------------------------------------------------------------------------
  energy-cutoff  :     1000.00
  volume of cell :     2631.08
      direct lattice vectors                 reciprocal lattice vectors
    12.325000000  0.000000000  0.000000000     0.081135903  0.046843835  0.000000000
    -6.162500000 10.673763102  0.000000000     0.000000000  0.093687670  0.000000000
     0.000000000  0.000000000 20.000000000     0.000000000  0.000000000  0.050000000

  length of vectors
    12.325000000 12.325000000 20.000000000     0.093687670  0.093687670  0.050000000


 FORCES acting on ions:
    Electron-Ion                     Ewald-Force                    Non-Local-Force
 -----------------------------------------------------------------------------------------------
   0.319E+01 0.276E+01 0.175E+02   -.319E+01 -.277E+01 -.176E+02   0.705E-02 -.941E-03 0.723E-02
   0.459E+01 0.224E+01 0.202E+02   -.459E+01 -.224E+01 -.202E+02   0.724E-02 -.435E-02 -.556E-02
   0.194E+01 0.522E+01 0.219E+02   -.194E+01 -.523E+01 -.220E+02   -.445E-03 0.156E-01 0.367E-02
   0.254E+01 0.367E+01 0.276E+02   -.254E+01 -.367E+01 -.276E+02   0.149E-01 0.219E-02 -.600E-02
   0.340E+01 0.810E+00 0.178E+02   -.340E+01 -.808E+00 -.178E+02   0.160E-02 -.736E-02 0.117E-02
   0.348E+01 -.699E+00 0.181E+02   -.348E+01 0.702E+00 -.181E+02   -.647E-02 0.245E-02 -.624E-02
   0.483E+01 0.177E+01 0.261E+02   -.484E+01 -.176E+01 -.261E+02   0.171E-01 -.218E-01 -.306E-02
   0.470E+01 -.168E+01 0.273E+02   -.471E+01 0.168E+01 -.273E+02   -.183E-02 -.876E-02 -.664E-02
   -.234E+01 0.473E+01 0.222E+02   0.234E+01 -.473E+01 -.222E+02   -.388E-02 -.949E-02 -.609E-02
   -.346E+01 0.291E+01 0.271E+02   0.347E+01 -.291E+01 -.271E+02   -.315E-01 0.188E-01 0.538E-02
   0.888E+00 -.890E+00 0.158E+02   -.883E+00 0.889E+00 -.158E+02   0.256E-02 -.252E-02 -.225E-02
   0.777E+00 -.653E+00 0.152E+02   -.774E+00 0.652E+00 -.152E+02   -.879E-02 0.411E-02 0.424E-02
   0.184E+01 -.396E+01 0.293E+02   -.185E+01 0.397E+01 -.292E+02   0.322E-01 -.117E-01 0.630E-03
   0.106E+01 -.525E+01 0.231E+02   -.107E+01 0.526E+01 -.231E+02   0.754E-02 0.351E-02 -.172E-01
   -.308E+01 0.189E+01 0.173E+02   0.308E+01 -.189E+01 -.173E+02   0.730E-02 -.353E-02 0.379E-02
   -.416E+01 0.124E+01 0.185E+02   0.417E+01 -.124E+01 -.185E+02   -.408E-02 0.716E-02 -.834E-02
   -.555E+00 -.218E+00 0.147E+02   0.561E+00 0.215E+00 -.147E+02   -.242E-02 0.116E-02 0.148E-02
   0.252E+00 0.192E+01 0.152E+02   -.250E+00 -.192E+01 -.152E+02   -.439E-02 0.261E-02 0.927E-02
   -.805E+00 -.497E+01 0.200E+02   0.801E+00 0.498E+01 -.200E+02   0.860E-02 -.394E-02 0.118E-02
   -.435E+00 -.286E+01 0.163E+02   0.430E+00 0.286E+01 -.163E+02   0.200E-02 -.270E-02 -.121E-02
   0.458E+01 -.202E+01 0.213E+02   -.458E+01 0.203E+01 -.213E+02   0.762E-03 -.438E-02 -.212E-01
   0.309E+01 -.256E+01 0.188E+02   -.310E+01 0.256E+01 -.188E+02   -.654E-02 0.529E-02 -.643E-02
   -.887E+00 0.167E+01 0.311E+02   0.887E+00 -.167E+01 -.311E+02   -.124E-01 0.126E-01 0.121E-01
   -.120E+01 -.262E+01 0.307E+02   0.119E+01 0.263E+01 -.307E+02   0.136E-01 -.179E-01 -.186E-03
   0.165E+01 -.644E+00 0.159E+02   -.164E+01 0.642E+00 -.159E+02   0.235E-02 -.206E-02 -.593E-02
   0.384E+00 0.144E+01 0.159E+02   -.382E+00 -.144E+01 -.159E+02   -.710E-02 0.455E-02 0.335E-02
   -.526E+01 0.724E+00 0.233E+02   0.527E+01 -.729E+00 -.233E+02   0.720E-02 0.103E-01 -.275E-02
   -.505E+01 -.200E+01 0.222E+02   0.506E+01 0.200E+01 -.222E+02   -.131E-01 0.106E-01 0.316E-02
   0.182E+01 -.365E+01 0.193E+02   -.182E+01 0.365E+01 -.193E+02   0.703E-02 0.135E-02 -.104E-01
   0.157E+00 -.156E+01 0.166E+02   -.160E+00 0.156E+01 -.166E+02   -.384E-02 0.253E-02 -.500E-02
   -.369E+01 -.384E+01 0.249E+02   0.370E+01 0.385E+01 -.249E+02   -.150E-01 -.999E-02 -.611E-02
   -.255E+01 -.473E+01 0.204E+02   0.255E+01 0.473E+01 -.205E+02   0.668E-03 -.437E-02 0.528E-02
   0.216E+00 0.868E+00 0.151E+02   -.219E+00 -.867E+00 -.151E+02   0.686E-02 -.544E-02 0.578E-02
   0.558E+00 0.845E+00 0.158E+02   -.562E+00 -.843E+00 -.158E+02   -.158E-02 0.404E-02 -.307E-02
   -.215E+01 0.350E+00 0.165E+02   0.215E+01 -.352E+00 -.165E+02   0.382E-02 -.193E-02 0.345E-02
   -.190E+01 -.815E+00 0.163E+02   0.191E+01 0.813E+00 -.163E+02   -.613E-02 0.344E-02 0.197E-02
   -.369E+01 -.192E+01 0.176E+02   0.369E+01 0.192E+01 -.176E+02   -.446E-02 0.151E-02 0.326E-02
   -.236E+01 -.188E+01 0.160E+02   0.236E+01 0.188E+01 -.160E+02   -.593E-02 0.143E-02 0.947E-02
   -.215E+01 -.276E+01 0.167E+02   0.215E+01 0.276E+01 -.167E+02   -.453E-02 -.808E-03 0.614E-02
   -.326E+00 -.718E+00 0.153E+02   0.327E+00 0.718E+00 -.153E+02   0.225E-02 -.360E-04 0.807E-02
   0.807E+00 0.201E+01 0.156E+02   -.807E+00 -.202E+01 -.156E+02   -.439E-02 0.312E-02 0.773E-02
   0.248E+01 0.387E+01 0.180E+02   -.248E+01 -.387E+01 -.180E+02   0.111E-02 0.773E-03 0.983E-02
   0.229E+00 0.339E+01 0.164E+02   -.223E+00 -.339E+01 -.164E+02   -.235E-02 0.301E-02 0.139E-02
   -.640E-01 0.524E+01 0.203E+02   0.688E-01 -.525E+01 -.203E+02   -.110E-01 0.470E-02 0.601E-02
   -.639E+00 0.122E+01 0.164E+02   0.642E+00 -.123E+01 -.164E+02   0.342E-02 -.269E-02 -.145E-02
   -.247E+01 0.304E+01 0.182E+02   0.247E+01 -.304E+01 -.182E+02   -.850E-02 0.164E-02 -.494E-02
   -.563E+00 -.143E+01 0.158E+02   0.561E+00 0.144E+01 -.158E+02   0.818E-02 -.202E-02 0.414E-02
   -.130E+01 0.486E+00 0.152E+02   0.129E+01 -.485E+00 -.152E+02   -.240E-02 0.294E-02 -.519E-02
   0.137E+00 -.897E+00 0.152E+02   -.139E+00 0.897E+00 -.152E+02   0.553E-02 -.366E-02 0.592E-02
   0.142E+01 0.101E+01 0.152E+02   -.142E+01 -.101E+01 -.152E+02   0.199E-02 0.125E-02 0.309E-02
   0.159E-01 0.679E-02 -.241E+03   -.194E-01 -.322E-02 0.241E+03   -.322E-02 0.186E-02 -.364E-02
   -.229E+03 0.156E+03 -.373E+03   0.279E+03 -.190E+03 0.376E+03   -.510E+02 0.347E+02 -.342E+01
   0.229E+03 -.156E+03 -.353E+03   -.279E+03 0.190E+03 0.350E+03   0.510E+02 -.347E+02 0.308E+01
 -----------------------------------------------------------------------------------------------
   -.575E-02 0.130E-01 0.341E+00   0.568E-13 0.284E-13 -.568E-13   0.587E-02 -.130E-01 -.340E+00
 
 
 POSITION                                       TOTAL-FORCE (eV/Angst)
 -----------------------------------------------------------------------------------
     11.98348      0.00342      0.01417         0.003058     -0.001331     -0.000588
     -0.34154      1.42665      0.01100        -0.001245     -0.000083     -0.002823
      2.12355      0.00315      0.01249        -0.001413      0.009926     -0.005317
      2.12326      1.42653      0.00641         0.012476      0.001072     -0.007096
     10.75099      2.13819      0.01213         0.000169     -0.005354      0.000196
     -1.57382      3.56123      0.01110        -0.008492      0.004997     -0.001230
      0.89078      2.13854      0.00548         0.008812     -0.018272      0.002754
      0.89099      3.56147      0.00181        -0.012664     -0.001966      0.011308
      4.58864      0.00346      0.01135         0.004066     -0.016510     -0.002980
      4.58894      1.42623      0.00646        -0.022505      0.012634      0.014003
      9.51854      4.27281      0.01369         0.006789     -0.003319      0.000425
     -2.80632      5.69591      0.01434        -0.006368      0.003336      0.000963
      2.12300      4.27302      0.00000         0.023932     -0.004448      0.019828
      2.12335      5.69594      0.00581        -0.000969      0.009782     -0.002525
      7.05344      0.00333      0.01399         0.009095     -0.005126     -0.000103
      7.05353      1.42635      0.01368        -0.001493      0.004711     -0.003287
      8.28610      6.40752      0.01601         0.003259     -0.001565     -0.000470
     -4.03885      7.83070      0.01636        -0.002013      0.000878      0.000226
      3.35586      6.40753      0.01007         0.004881      0.000496     -0.001015
      3.35599      7.83072      0.01320        -0.003418      0.000269     -0.000336
     -0.34146      4.27290      0.00723        -0.002129     -0.001213     -0.004367
     -0.34138      5.69591      0.00946        -0.008985      0.006182     -0.000987
      3.35624      2.13791      0.00222        -0.012860      0.011463      0.016535
      3.35573      3.56155      0.00139         0.013026     -0.015226      0.008973
     -1.57395      6.40758      0.01311         0.005828     -0.004088     -0.000371
     -1.57385      7.83068      0.01438        -0.004652      0.003706      0.000331
      5.82093      2.13784      0.01033         0.016807      0.004955     -0.002428
      5.82114      3.56097      0.01156        -0.005791      0.007885     -0.002932
      0.89092      6.40755      0.00907         0.004238      0.002211     -0.002061
      0.89106      7.83068      0.01235        -0.007005      0.003583      0.000569
      4.58871      4.27293      0.00850        -0.012077     -0.006330     -0.009653
      4.58852      5.69606      0.01149         0.001753     -0.000397     -0.003284
      9.51845      0.00337      0.01490         0.004592     -0.004589      0.000409
      9.51855      1.42644      0.01438        -0.005098      0.005679     -0.000040
      8.28593      2.13803      0.01453         0.006397     -0.003566      0.000903
      8.28613      3.56115      0.01464        -0.004134      0.002026      0.000282
      7.05356      4.27269      0.01457         0.003118     -0.001059     -0.000084
      7.05362      5.69588      0.01553        -0.002342      0.001371      0.000266
      5.82112      6.40755      0.01489        -0.002622      0.001683      0.000397
      5.82102      7.83073      0.01579         0.002596      0.000451      0.000024
      7.05363      8.54227      0.01631        -0.004559      0.000966      0.001442
     -5.27149      9.96549      0.01495        -0.000327     -0.002179     -0.001494
     -2.80638      8.54234      0.01558         0.003404     -0.001666     -0.000679
     -2.80627      9.96553      0.01362        -0.006065     -0.000186     -0.003151
     -0.34149      8.54239      0.01378         0.005838     -0.004623      0.000534
     -0.34138      9.96550      0.01354        -0.005692     -0.000067     -0.000844
      2.12343      8.54232      0.01336         0.005673     -0.001519      0.000925
      2.12354      9.96544      0.01469        -0.005520      0.003944     -0.001593
      4.58846      8.54235      0.01505         0.003602     -0.002812      0.001228
      4.58853      9.96550      0.01517        -0.003129      0.003410      0.000481
      3.04930      2.68154      5.61231        -0.006554      0.005368      0.022950
      4.02070      2.02068      5.67673        -0.249909      0.169618     -0.037838
      2.07767      3.34267      5.55286         0.256618     -0.175110     -0.006377
 -----------------------------------------------------------------------------------
    total drift:                                0.000126     -0.000051      0.001490


--------------------------------------------------------------------------------------------------------



  FREE ENERGIE OF THE ION-ELECTRON SYSTEM (eV)
  ---------------------------------------------------
  free  energy   TOTEN  =      -470.56194649 eV

  energy  without entropy=     -470.56194649  energy(sigma->0) =     -470.56194649
 


--------------------------------------------------------------------------------------------------------


    POTLOK:  cpu time    0.2763: real time    0.2793


--------------------------------------------------------------------------------------------------------


     LOOP+:  cpu time  107.1746: real time  108.7520
    4ORBIT:  cpu time    0.0000: real time    0.0000

 total amount of memory used by VASP MPI-rank0   175916. kBytes
=======================================================================

   base      :      30000. kBytes
   nonl-proj :      46129. kBytes
   fftplans  :      35778. kBytes
   grid      :      52596. kBytes
   one-center:         43. kBytes
   wavefun   :      11370. kBytes
 
  
  
 General timing and accounting informations for this job:
 ========================================================
  
                  Total CPU time used (sec):      143.695
                            User time (sec):      130.154
                          System time (sec):       13.541
                         Elapsed time (sec):      147.084
  
                   Maximum memory used (kb):      511516.
                   Average memory used (kb):          N/A
  
                          Minor page faults:        52793
                          Major page faults:          110
                 Voluntary context switches:         3630
