 vasp.6.2.1 16May21 (build Nov 06 2021 14:46:37) complex                        
  
 executed on             LinuxIFC date 2025.03.03  17:40:52
 running on  112 total cores
 distrk:  each k-point on  112 cores,    1 groups
 distr:  one band on NCORE=   4 cores,   28 groups


--------------------------------------------------------------------------------------------------------


 INCAR:
   ALGO = Conjugate
   NCORE = 4
   ISMEAR = 0
   SIGMA = 0.01
   PREC = Accurate
   EDIFF = 1E-6
   ENCUT = 1000
   ISIF = 0
   GGA = RE
   IVDW = 11
   LWAVE = .FALSE.
   LCHARGE = .FALSE.
   SYMPREC = 1E-6

 POTCAR:    PAW_PBE C_h 06Feb2004                 
 POTCAR:    PAW_PBE O_h 06Feb2004                 
 -----------------------------------------------------------------------------
|                                                                             |
|           W    W    AA    RRRRR   N    N  II  N    N   GGGG   !!!           |
|           W    W   A  A   R    R  NN   N  II  NN   N  G    G  !!!           |
|           W    W  A    A  R    R  N N  N  II  N N  N  G       !!!           |
|           W WW W  AAAAAA  RRRRR   N  N N  II  N  N N  G  GGG   !            |
|           WW  WW  A    A  R   R   N   NN  II  N   NN  G    G                |
|           W    W  A    A  R    R  N    N  II  N    N   GGGG   !!!           |
|                                                                             |
|     For optimal performance we recommend to set                             |
|       NCORE = 2 up to number-of-cores-per-socket                            |
|     NCORE specifies how many cores store one orbital (NPAR=cpu/NCORE).      |
|     This setting can greatly improve the performance of VASP for DFT.       |
|     The default, NCORE=1 might be grossly inefficient on modern             |
|     multi-core architectures or massively parallel machines. Do your        |
|     own testing! More info at https://www.vasp.at/wiki/index.php/NCORE      |
|     Unfortunately you need to use the default for GW and RPA                |
|     calculations (for HF NCORE is supported but not extensively tested      |
|     yet).                                                                   |
|                                                                             |
 -----------------------------------------------------------------------------

 POTCAR:    PAW_PBE C_h 06Feb2004                 
   VRHFIN =C: s2p2                                                                                  
   LEXCH  = PE                                                                                      
   EATOM  =   147.1560 eV,   10.8157 Ry                                                             
                                                                                                    
   TITEL  = PAW_PBE C_h 06Feb2004                                                                   
   LULTRA =        F    use ultrasoft PP ?                                                          
   IUNSCR =        1    unscreen: 0-lin 1-nonlin 2-no                                               
   RPACOR =    0.800    partial core radius                                                         
   POMASS =   12.011; ZVAL   =    4.000    mass and valenz                                          
   RCORE  =    1.100    outmost cutoff radius                                                       
   RWIGS  =    1.630; RWIGS  =    0.863    wigner-seitz radius (au A)                               
   ENMAX  =  700.000; ENMIN  =  500.000 eV                                                          
   ICORE  =        2    local potential                                                             
   LCOR   =        T    correct aug charges                                                         
   LPAW   =        T    paw PP                                                                      
   EAUG   =  946.768                                                                                
   DEXC   =    0.000                                                                                
   RMAX   =    1.128    core radius for proj-oper                                                   
   RAUG   =    1.300    factor for augmentation sphere                                              
   RDEP   =    1.162    radius for radial grids                                                     
   RDEPT  =    1.088    core radius for aug-charge                                                  
                                                                                                    
   Atomic configuration                                                                             
    4 entries                                                                                       
     n  l   j            E        occ.                                                              
     1  0  0.50      -273.3789   2.0000                                                             
     2  0  0.50       -13.7508   2.0000                                                             
     2  1  0.50        -5.2854   2.0000                                                             
     3  2  1.50        -5.4423   0.0000                                                             
   Description                                                                                      
     l       E           TYP  RCUT    TYP  RCUT                                                     
     0    -13.7508458     23  1.100                                                                 
     0     -8.2022199     23  1.100                                                                 
     1     -5.2854383     23  1.100                                                                 
     1      1.1560700     23  1.100                                                                 
     2     -5.4423304      7  1.100                                                                 
  local pseudopotential read in
  partial core-charges read in
  partial kinetic energy density read in
  atomic valenz-charges read in
  non local Contribution for L=           0  read in
    real space projection operators read in
  non local Contribution for L=           0  read in
    real space projection operators read in
  non local Contribution for L=           1  read in
    real space projection operators read in
  non local Contribution for L=           1  read in
    real space projection operators read in
    PAW grid and wavefunctions read in
 
   number of l-projection  operators is LMAX  =           4
   number of lm-projection operators is LMMAX =           8
 
 POTCAR:    PAW_PBE O_h 06Feb2004                 
   VRHFIN =O: s2p4                                                                                  
   LEXCH  = PE                                                                                      
   EATOM  =   432.3788 eV,   31.7789 Ry                                                             
                                                                                                    
   TITEL  = PAW_PBE O_h 06Feb2004                                                                   
   LULTRA =        F    use ultrasoft PP ?                                                          
   IUNSCR =        1    unscreen: 0-lin 1-nonlin 2-no                                               
   RPACOR =    0.800    partial core radius                                                         
   POMASS =   16.000; ZVAL   =    6.000    mass and valenz                                          
   RCORE  =    1.100    outmost cutoff radius                                                       
   RWIGS  =    1.400; RWIGS  =    0.741    wigner-seitz radius (au A)                               
   ENMAX  =  700.000; ENMIN  =  500.000 eV                                                          
   ICORE  =        2    local potential                                                             
   LCOR   =        T    correct aug charges                                                         
   LPAW   =        T    paw PP                                                                      
   EAUG   =  888.804                                                                                
   DEXC   =    0.000                                                                                
   RMAX   =    1.128    core radius for proj-oper                                                   
   RAUG   =    1.300    factor for augmentation sphere                                              
   RDEP   =    1.125    radius for radial grids                                                     
   RDEPT  =    1.088    core radius for aug-charge                                                  
                                                                                                    
   Atomic configuration                                                                             
    4 entries                                                                                       
     n  l   j            E        occ.                                                              
     1  0  0.50      -514.6923   2.0000                                                             
     2  0  0.50       -23.9615   2.0000                                                             
     2  1  0.50        -9.0305   4.0000                                                             
     3  2  1.50        -9.5241   0.0000                                                             
   Description                                                                                      
     l       E           TYP  RCUT    TYP  RCUT                                                     
     0    -23.9615319     23  1.100                                                                 
     0    -25.3221145     23  1.100                                                                 
     1     -9.0304911     23  1.100                                                                 
     1     -5.4802209     23  1.100                                                                 
     2     -9.5240782      7  1.100                                                                 
  local pseudopotential read in
  partial core-charges read in
  partial kinetic energy density read in
  atomic valenz-charges read in
  non local Contribution for L=           0  read in
    real space projection operators read in
  non local Contribution for L=           0  read in
    real space projection operators read in
  non local Contribution for L=           1  read in
    real space projection operators read in
  non local Contribution for L=           1  read in
    real space projection operators read in
    PAW grid and wavefunctions read in
 
   number of l-projection  operators is LMAX  =           4
   number of lm-projection operators is LMMAX =           8
 
 -----------------------------------------------------------------------------
|                                                                             |
|               ----> ADVICE to this user running VASP <----                  |
|                                                                             |
|     You have a (more or less) 'large supercell' and for larger cells it     |
|     might be more efficient to use real-space projection operators.         |
|     Therefore, try LREAL= Auto in the INCAR file.                           |
|     Mind: For very accurate calculation, you might also keep the            |
|     reciprocal projection scheme (i.e. LREAL=.FALSE.).                      |
|                                                                             |
 -----------------------------------------------------------------------------

 -----------------------------------------------------------------------------
|                                                                             |
|               ----> ADVICE to this user running VASP <----                  |
|                                                                             |
|     You enforced a specific xc type in the INCAR file but a different       |
|     type was found in the POTCAR file.                                      |
|     I HOPE YOU KNOW WHAT YOU ARE DOING!                                     |
|                                                                             |
 -----------------------------------------------------------------------------

  PAW_PBE C_h 06Feb2004                 :
 energy of atom  1       EATOM= -147.1560
 kinetic energy error for atom=    0.0031 (will be added to EATOM!!)
  PAW_PBE O_h 06Feb2004                 :
 energy of atom  2       EATOM= -432.3788
 kinetic energy error for atom=    0.0171 (will be added to EATOM!!)
 
 
 POSCAR:  C  O
  positions in cartesian coordinates
  No initial velocities read in
 exchange correlation table for  LEXCH =       40
   RHO(1)=    0.500       N(1)  =     2000
   RHO(2)=  100.500       N(2)  =     4000
 


--------------------------------------------------------------------------------------------------------


 ion  position               nearest neighbor table
   1  0.972  0.000  0.001-  50 1.42   2 1.42  42 1.42
   2  0.039  0.134  0.001-   5 1.42   7 1.42   1 1.42
   3  0.172  0.000  0.001-  42 1.42  44 1.42   4 1.42
   4  0.239  0.134  0.000-   7 1.42   3 1.42  23 1.42
   5  0.972  0.200  0.001-   6 1.42   2 1.42  34 1.42
   6  0.039  0.334  0.001-   5 1.42  21 1.42  11 1.42
   7  0.172  0.200  0.000-   8 1.42   2 1.42   4 1.42
   8  0.239  0.334  0.000-  13 1.42   7 1.42  21 1.42
   9  0.372  0.000  0.001-  10 1.42  44 1.42  46 1.42
  10  0.439  0.134  0.000-  27 1.42   9 1.42  23 1.42
  11  0.972  0.400  0.001-  12 1.42  36 1.42   6 1.42
  12  0.039  0.534  0.001-  25 1.42  11 1.42  17 1.42
  13  0.372  0.400  0.000-   8 1.42  14 1.42  24 1.42
  14  0.439  0.534  0.000-  13 1.42  29 1.42  19 1.42
  15  0.572  0.000  0.001-  46 1.42  16 1.42  48 1.42
  16  0.639  0.134  0.001-  15 1.42  35 1.42  27 1.42
  17  0.972  0.600  0.001-  38 1.42  18 1.42  12 1.42
  18  0.039  0.734  0.001-  43 1.42  41 1.42  17 1.42
  19  0.572  0.600  0.001-  14 1.42  20 1.42  32 1.42
  20  0.639  0.734  0.001-  49 1.42  19 1.42  47 1.42
  21  0.172  0.400  0.000-  22 1.42   8 1.42   6 1.42
  22  0.239  0.534  0.000-  21 1.42  29 1.42  25 1.42
  23  0.372  0.200  0.000-  10 1.42   4 1.42  24 1.42
  24  0.439  0.334  0.000-  13 1.42  31 1.42  23 1.42
  25  0.172  0.600  0.001-  26 1.42  12 1.42  22 1.42
  26  0.239  0.734  0.001-  25 1.42  45 1.42  43 1.42
  27  0.572  0.200  0.001-  10 1.42  28 1.42  16 1.42
  28  0.639  0.334  0.001-  27 1.42  37 1.42  31 1.42
  29  0.372  0.600  0.000-  22 1.42  14 1.42  30 1.42
  30  0.439  0.734  0.001-  47 1.42  29 1.42  45 1.42
  31  0.572  0.400  0.000-  32 1.42  28 1.42  24 1.42
  32  0.639  0.534  0.001-  31 1.42  39 1.42  19 1.42
  33  0.772  0.000  0.001-  34 1.42  48 1.42  50 1.42
  34  0.839  0.134  0.001-  33 1.42   5 1.42  35 1.42
  35  0.772  0.200  0.001-  36 1.42  16 1.42  34 1.42
  36  0.839  0.334  0.001-  35 1.42  11 1.42  37 1.42
  37  0.772  0.400  0.001-  28 1.42  38 1.42  36 1.42
  38  0.839  0.534  0.001-  17 1.42  37 1.42  39 1.42
  39  0.772  0.600  0.001-  40 1.42  38 1.42  32 1.42
  40  0.839  0.734  0.001-  39 1.42  49 1.42  41 1.42
  41  0.972  0.800  0.001-  18 1.42  42 1.42  40 1.42
  42  0.039  0.934  0.001-   3 1.42  41 1.42   1 1.42
  43  0.172  0.800  0.001-  18 1.42  44 1.42  26 1.42
  44  0.239  0.934  0.001-   9 1.42  43 1.42   3 1.42
  45  0.372  0.800  0.001-  26 1.42  46 1.42  30 1.42
  46  0.439  0.934  0.001-  15 1.42  45 1.42   9 1.42
  47  0.572  0.800  0.001-  30 1.42  48 1.42  20 1.42
  48  0.639  0.934  0.001-  47 1.42  33 1.42  15 1.42
  49  0.772  0.800  0.001-  50 1.42  20 1.42  40 1.42
  50  0.839  0.934  0.001-  49 1.42   1 1.42  33 1.42
  51  0.373  0.251  0.265-  52 1.18  53 1.18
  52  0.421  0.189  0.268-  51 1.18
  53  0.325  0.313  0.262-  51 1.18
 
  LATTYP: Found a hexagonal cell.
 ALAT       =    12.3250000000
 C/A-ratio  =     1.6227180527
  
  Lattice vectors:
  
 A1 = (  12.3250000000,   0.0000000000,   0.0000000000)
 A2 = (  -6.1625000000,  10.6737631016,   0.0000000000)
 A3 = (   0.0000000000,   0.0000000000,  20.0000000000)


Analysis of symmetry for initial positions (statically):
=====================================================================
 Subroutine PRICEL returns:
 Original cell was already a primitive cell.
 

 Routine SETGRP: Setting up the symmetry group for a 
 hexagonal supercell.


 Subroutine GETGRP returns: Found  1 space group operations
 (whereof  1 operations were pure point group operations)
 out of a pool of 24 trial point group operations.


The static configuration has the point symmetry C_1 .


Analysis of symmetry for dynamics (positions and initial velocities):
=====================================================================
 Subroutine PRICEL returns:
 Original cell was already a primitive cell.
 

 Routine SETGRP: Setting up the symmetry group for a 
 hexagonal supercell.


 Subroutine GETGRP returns: Found  1 space group operations
 (whereof  1 operations were pure point group operations)
 out of a pool of 24 trial point group operations.


The dynamic configuration has the point symmetry C_1 .


 Subroutine INISYM returns: Found  1 space group operations
 (whereof  1 operations are pure point group operations),
 and found     1 'primitive' translations


----------------------------------------------------------------------------------------

                                     Primitive cell                                     

  volume of cell :    2631.0826

  direct lattice vectors                    reciprocal lattice vectors
    12.325000000  0.000000000  0.000000000     0.081135903  0.046843835  0.000000000
    -6.162500000 10.673763102  0.000000000     0.000000000  0.093687670  0.000000000
     0.000000000  0.000000000 20.000000000     0.000000000  0.000000000  0.050000000

  length of vectors
    12.325000000 12.325000000 20.000000000     0.093687670  0.093687670  0.050000000

  position of ions in fractional coordinates (direct lattice)
     0.972450841  0.000320818  0.000708389
     0.039118382  0.133659505  0.000550216
     0.172443627  0.000295449  0.000624535
     0.239096278  0.133647917  0.000320585
     0.972452058  0.200322012  0.000606523
     0.039128360  0.333643771  0.000555187
     0.172451764  0.200354552  0.000273959
     0.239124359  0.333665720  0.000090325
     0.372465565  0.000324403  0.000567391
     0.439137473  0.133619939  0.000322923
     0.972449824  0.400309362  0.000684513
     0.039124981  0.533636789  0.000716763
     0.372416176  0.400329481  0.000000000
     0.439099602  0.533638981  0.000290518
     0.572443676  0.000312125  0.000699475
     0.639110207  0.133631751  0.000684093
     0.972452703  0.600305653  0.000800361
     0.039124495  0.733640359  0.000818141
     0.572433471  0.600306242  0.000503618
     0.639111888  0.733641879  0.000659881
     0.172454630  0.400318228  0.000361306
     0.239120185  0.533636548  0.000473136
     0.372459750  0.200295993  0.000111246
     0.439107096  0.333673419  0.000069702
     0.172452155  0.600311506  0.000655425
     0.239123371  0.733638574  0.000718912
     0.572431082  0.200289171  0.000516621
     0.639112773  0.333618630  0.000577970
     0.372439808  0.600308022  0.000453556
     0.439116090  0.733637858  0.000617737
     0.572469358  0.400320504  0.000424897
     0.639119408  0.533650873  0.000574513
     0.772445723  0.000315427  0.000745201
     0.839116277  0.133640203  0.000719132
     0.772440513  0.200307432  0.000726291
     0.839120241  0.333635728  0.000731834
     0.772446320  0.400298367  0.000728722
     0.839118980  0.533633964  0.000776376
     0.772456143  0.600308173  0.000744639
     0.839115033  0.733643180  0.000789390
     0.972455313  0.800305582  0.000815291
     0.039114714  0.933643289  0.000747563
     0.172457971  0.800312211  0.000779216
     0.239134551  0.933647193  0.000681063
     0.372451396  0.800316674  0.000689249
     0.439124489  0.933644769  0.000676788
     0.572441101  0.800310054  0.000668168
     0.639115067  0.933638985  0.000734556
     0.772445098  0.800313187  0.000752577
     0.839116614  0.933644338  0.000758538
     0.373021009  0.251226878  0.264865773
     0.420879805  0.189313152  0.268086866
     0.325156981  0.313167186  0.261893030

  ion indices of the primitive-cell ions
   primitive index   ion index
                 1           1
                 2           2
                 3           3
                 4           4
                 5           5
                 6           6
                 7           7
                 8           8
                 9           9
                10          10
                11          11
                12          12
                13          13
                14          14
                15          15
                16          16
                17          17
                18          18
                19          19
                20          20
                21          21
                22          22
                23          23
                24          24
                25          25
                26          26
                27          27
                28          28
                29          29
                30          30
                31          31
                32          32
                33          33
                34          34
                35          35
                36          36
                37          37
                38          38
                39          39
                40          40
                41          41
                42          42
                43          43
                44          44
                45          45
                46          46
                47          47
                48          48
                49          49
                50          50
                51          51
                52          52
                53          53

----------------------------------------------------------------------------------------

 
 
 KPOINTS: auto                                    

Automatic generation of k-mesh.
 Grid dimensions read from file:
 generate k-points for:    1    1    1

 Generating k-lattice:

  Cartesian coordinates                     Fractional coordinates (reciprocal lattice)
     0.081135903  0.046843835  0.000000000     1.000000000 -0.000000000  0.000000000
     0.000000000  0.093687670  0.000000000     0.000000000  1.000000000  0.000000000
     0.000000000  0.000000000  0.050000000     0.000000000  0.000000000  1.000000000

  Length of vectors
     0.093687670  0.093687670  0.050000000

  Shift w.r.t. Gamma in fractional coordinates (k-lattice)
     0.000000000  0.000000000  0.000000000

 
 Subroutine IBZKPT returns following result:
 ===========================================
 
 Found      1 irreducible k-points:
 
 Following reciprocal coordinates:
            Coordinates               Weight
  0.000000  0.000000  0.000000      1.000000
 
 Following cartesian coordinates:
            Coordinates               Weight
  0.000000  0.000000  0.000000      1.000000
 


--------------------------------------------------------------------------------------------------------




 Dimension of arrays:
   k-points           NKPTS =      1   k-points in BZ     NKDIM =      1   number of bands    NBANDS=    140
   number of dos      NEDOS =    301   number of ions     NIONS =     53
   non local maximal  LDIM  =      4   non local SUM 2l+1 LMDIM =      8
   total plane-waves  NPLWV = ******
   max r-space proj   IRMAX =      1   max aug-charges    IRDMAX=   9736
   dimension x,y,z NGX =   128 NGY =  128 NGZ =  210
   dimension x,y,z NGXF=   256 NGYF=  256 NGZF=  420
   support grid    NGXF=   256 NGYF=  256 NGZF=  420
   ions per type =              51   2
   NGX,Y,Z   is equivalent  to a cutoff of  17.27, 17.27, 17.46 a.u.
   NGXF,Y,Z  is equivalent  to a cutoff of  34.53, 34.53, 34.91 a.u.

 SYSTEM =  unknown system                          
 POSCAR =   C  O                                   

 Startparameter for this run:
   NWRITE =      2    write-flag & timer
   PREC   = accura    normal or accurate (medium, high low for compatibility)
   ISTART =      0    job   : 0-new  1-cont  2-samecut
   ICHARG =      2    charge: 1-file 2-atom 10-const
   ISPIN  =      1    spin polarized calculation?
   LNONCOLLINEAR =      F non collinear calculations
   LSORBIT =      F    spin-orbit coupling
   INIWAV =      1    electr: 0-lowe 1-rand  2-diag
   LASPH  =      F    aspherical Exc in radial PAW
 Electronic Relaxation 1
   ENCUT  = 1000.0 eV  73.50 Ry    8.57 a.u.  31.78 31.78 51.57*2*pi/ulx,y,z
   ENINI  = 1000.0     initial cutoff
   ENAUG  =  946.8 eV  augmentation charge cutoff
   NELM   =     60;   NELMIN=  2; NELMDL= -5     # of ELM steps 
   EDIFF  = 0.1E-05   stopping-criterion for ELM
   LREAL  =      F    real-space projection
   NLSPLINE    = F    spline interpolate recip. space projectors
   LCOMPAT=      F    compatible to vasp.4.4
   GGA_COMPAT  = T    GGA compatible to vasp.4.4-vasp.4.6
   LMAXPAW     = -100 max onsite density
   LMAXMIX     =    2 max onsite mixed and CHGCAR
   VOSKOWN=      0    Vosko Wilk Nusair interpolation
   ROPT   =    0.00000   0.00000
 Ionic relaxation
   EDIFFG = 0.1E-04   stopping-criterion for IOM
   NSW    =      0    number of steps for IOM
   NBLOCK =      1;   KBLOCK =      1    inner block; outer block 
   IBRION =     -1    ionic relax: 0-MD 1-quasi-New 2-CG
   NFREE  =      0    steps in history (QN), initial steepest desc. (CG)
   ISIF   =      0    stress and relaxation
   IWAVPR =     10    prediction:  0-non 1-charg 2-wave 3-comb
   ISYM   =      2    0-nonsym 1-usesym 2-fastsym
   LCORR  =      T    Harris-Foulkes like correction to forces

   POTIM  = 0.5000    time-step for ionic-motion
   TEIN   =    0.0    initial temperature
   TEBEG  =    0.0;   TEEND  =   0.0 temperature during run
   SMASS  =  -3.00    Nose mass-parameter (am)
   estimated Nose-frequenzy (Omega)   =  0.10E-29 period in steps = 0.13E+47 mass=  -0.347E-26a.u.
   SCALEE = 1.0000    scale energy and forces
   NPACO  =    256;   APACO  = 16.0  distance and # of slots for P.C.
   PSTRESS=    0.0 pullay stress

  Mass of Ions in am
   POMASS =  12.01 16.00
  Ionic Valenz
   ZVAL   =   4.00  6.00
  Atomic Wigner-Seitz radii
   RWIGS  =  -1.00 -1.00
  virtual crystal weights 
   VCA    =   1.00  1.00
   NELECT =     216.0000    total number of electrons
   NUPDOWN=      -1.0000    fix difference up-down

 DOS related values:
   EMIN   =  10.00;   EMAX   =-10.00  energy-range for DOS
   EFERMI =   0.00
   ISMEAR =     0;   SIGMA  =   0.01  broadening in eV -4-tet -1-fermi 0-gaus

 Electronic relaxation 2 (details)
   IALGO  =     58    algorithm
   LDIAG  =      T    sub-space diagonalisation (order eigenvalues)
   LSUBROT=      F    optimize rotation matrix (better conditioning)
   TURBO    =      0    0=normal 1=particle mesh
   IRESTART =      0    0=no restart 2=restart with 2 vectors
   NREBOOT  =      0    no. of reboots
   NMIN     =      0    reboot dimension
   EREF     =   0.00    reference energy to select bands
   IMIX   =      4    mixing-type and parameters
     AMIX     =   0.40;   BMIX     =  1.00
     AMIX_MAG =   1.60;   BMIX_MAG =  1.00
     AMIN     =   0.10
     WC   =   100.;   INIMIX=   1;  MIXPRE=   1;  MAXMIX= -45

 Intra band minimization:
   WEIMIN = 0.0000     energy-eigenvalue tresh-hold
   EBREAK =  0.18E-08  absolut break condition
   DEPER  =   0.30     relativ break condition  

   TIME   =   0.40     timestep for ELM

  volume/ion in A,a.u.               =      49.64       335.01
  Fermi-wavevector in a.u.,A,eV,Ry     =   0.711510  1.344560  6.887909  0.506247
  Thomas-Fermi vector in A             =   1.798641
 
 Write flags
   LWAVE        =      F    write WAVECAR
   LDOWNSAMPLE  =      F    k-point downsampling of WAVECAR
   LCHARG       =      T    write CHGCAR
   LVTOT        =      F    write LOCPOT, total local potential
   LVHAR        =      F    write LOCPOT, Hartree potential only
   LELF         =      F    write electronic localiz. function (ELF)
   LORBIT       =      0    0 simple, 1 ext, 2 COOP (PROOUT), +10 PAW based schemes


 Dipole corrections
   LMONO  =      F    monopole corrections only (constant potential shift)
   LDIPOL =      F    correct potential (dipole corrections)
   IDIPOL =      0    1-x, 2-y, 3-z, 4-all directions 
   EPSILON=  1.0000000 bulk dielectric constant

 Exchange correlation treatment:
   GGA     =    RE    GGA type
   LEXCH   =    40    internal setting for exchange type
   VOSKOWN=      0    Vosko Wilk Nusair interpolation
   LHFCALC =     F    Hartree Fock is set to
   LHFONE  =     F    Hartree Fock one center treatment
   AEXX    =    0.0000 exact exchange contribution

 Linear response parameters
   LEPSILON=     F    determine dielectric tensor
   LRPA    =     F    only Hartree local field effects (RPA)
   LNABLA  =     F    use nabla operator in PAW spheres
   LVEL    =     F    velocity operator in full k-point grid
   LINTERFAST=   F  fast interpolation
   KINTER  =     0    interpolate to denser k-point grid
   CSHIFT  =0.1000    complex shift for real part using Kramers Kronig
   OMEGAMAX=  -1.0    maximum frequency
   DEG_THRESHOLD= 0.2000000E-02 threshold for treating states as degnerate
   RTIME   =   -0.100 relaxation time in fs
  (WPLASMAI=    0.000 imaginary part of plasma frequency in eV, 0.658/RTIME)
   DFIELD  = 0.0000000 0.0000000 0.0000000 field for delta impulse in time
 
 Orbital magnetization related:
   ORBITALMAG=     F  switch on orbital magnetization
   LCHIMAG   =     F  perturbation theory with respect to B field
   DQ        =  0.001000  dq finite difference perturbation B field
   LLRAUG    =     F  two centre corrections for induced B field



--------------------------------------------------------------------------------------------------------


 Static calculation
 charge density and potential will be updated during run
 non-spin polarized calculation
 Conjugate gradient for all bands (Freysoldt, et al. PRB 79, 241103 (2009))
 preconditioned conjugated gradient                                        
 perform sub-space diagonalisation
    before iterative eigenvector-optimisation
 modified Broyden-mixing scheme, WC =      100.0
 initial mixing is a Kerker type mixing with AMIX =  0.4000 and BMIX =      1.0000
 Hartree-type preconditioning will be used
 using additional bands           32
 reciprocal scheme for non local part
 use partial core corrections
 no Harris-corrections to forces 
 use gradient corrections 
 use of overlap-Matrix (Vanderbilt PP)
 Gauss-broadening in eV      SIGMA  =   0.01


--------------------------------------------------------------------------------------------------------


  energy-cutoff  :     1000.00
  volume of cell :     2631.08
      direct lattice vectors                 reciprocal lattice vectors
    12.325000000  0.000000000  0.000000000     0.081135903  0.046843835  0.000000000
    -6.162500000 10.673763102  0.000000000     0.000000000  0.093687670  0.000000000
     0.000000000  0.000000000 20.000000000     0.000000000  0.000000000  0.050000000

  length of vectors
    12.325000000 12.325000000 20.000000000     0.093687670  0.093687670  0.050000000


 
 k-points in units of 2pi/SCALE and weight: auto                                    
   0.00000000  0.00000000  0.00000000       1.000
 
 k-points in reciprocal lattice and weights: auto                                    
   0.00000000  0.00000000  0.00000000       1.000
 
 position of ions in fractional coordinates (direct lattice) 
   0.97245084  0.00032082  0.00070839
   0.03911838  0.13365950  0.00055022
   0.17244363  0.00029545  0.00062454
   0.23909628  0.13364792  0.00032058
   0.97245206  0.20032201  0.00060652
   0.03912836  0.33364377  0.00055519
   0.17245176  0.20035455  0.00027396
   0.23912436  0.33366572  0.00009033
   0.37246557  0.00032440  0.00056739
   0.43913747  0.13361994  0.00032292
   0.97244982  0.40030936  0.00068451
   0.03912498  0.53363679  0.00071676
   0.37241618  0.40032948  0.00000000
   0.43909960  0.53363898  0.00029052
   0.57244368  0.00031213  0.00069947
   0.63911021  0.13363175  0.00068409
   0.97245270  0.60030565  0.00080036
   0.03912449  0.73364036  0.00081814
   0.57243347  0.60030624  0.00050362
   0.63911189  0.73364188  0.00065988
   0.17245463  0.40031823  0.00036131
   0.23912018  0.53363655  0.00047314
   0.37245975  0.20029599  0.00011125
   0.43910710  0.33367342  0.00006970
   0.17245216  0.60031151  0.00065542
   0.23912337  0.73363857  0.00071891
   0.57243108  0.20028917  0.00051662
   0.63911277  0.33361863  0.00057797
   0.37243981  0.60030802  0.00045356
   0.43911609  0.73363786  0.00061774
   0.57246936  0.40032050  0.00042490
   0.63911941  0.53365087  0.00057451
   0.77244572  0.00031543  0.00074520
   0.83911628  0.13364020  0.00071913
   0.77244051  0.20030743  0.00072629
   0.83912024  0.33363573  0.00073183
   0.77244632  0.40029837  0.00072872
   0.83911898  0.53363396  0.00077638
   0.77245614  0.60030817  0.00074464
   0.83911503  0.73364318  0.00078939
   0.97245531  0.80030558  0.00081529
   0.03911471  0.93364329  0.00074756
   0.17245797  0.80031221  0.00077922
   0.23913455  0.93364719  0.00068106
   0.37245140  0.80031667  0.00068925
   0.43912449  0.93364477  0.00067679
   0.57244110  0.80031005  0.00066817
   0.63911507  0.93363899  0.00073456
   0.77244510  0.80031319  0.00075258
   0.83911661  0.93364434  0.00075854
   0.37302101  0.25122688  0.26486577
   0.42087980  0.18931315  0.26808687
   0.32515698  0.31316719  0.26189303
 
 position of ions in cartesian coordinates  (Angst):
  11.98347958  0.00342433  0.01416777
  -0.34154264  1.42664989  0.01100432
   2.12354700  0.00315355  0.01249070
   2.12325634  1.42652621  0.00641170
  10.75098721  2.13818970  0.01213047
  -1.57382270  3.56123457  0.01110375
   0.89078307  2.13853702  0.00547917
   0.89099273  3.56146885  0.00180651
   4.58863896  0.00346260  0.01134782
   4.58893648  1.42622757  0.00645846
   9.51853763  4.27280730  0.01369027
  -2.80632132  5.69591267  0.01433526
   2.12299894  4.27302204  0.00000000
   2.12335237  5.69593607  0.00581036
   7.05344483  0.00333155  0.01398950
   7.05352764  1.42635365  0.01368187
   8.28609598  6.40752033  0.01600723
  -4.03884931  7.83070339  0.01636283
   3.35585531  6.40752662  0.01007237
   3.35598594  7.83071962  0.01319763
  -0.34145776  4.27290193  0.00722612
  -0.34137895  5.69591010  0.00946273
   3.35624236  2.13791198  0.00222492
   3.35573251  3.56155103  0.00139405
  -1.57394684  6.40758280  0.01310850
  -1.57385216  7.83068434  0.01437823
   5.82093107  2.13783916  0.01033241
   5.82114012  3.56096622  0.01155939
   0.89092245  6.40754561  0.00907111
   0.89106251  7.83067670  0.01235474
   4.58870974  4.27292622  0.00849795
   4.58852320  5.69606300  0.01149026
   9.51844972  0.00336679  0.01490402
   9.51855036  1.42644387  0.01438264
   8.28593477  2.13803408  0.01452582
   8.28612680  3.56114872  0.01463668
   7.05356221  4.27268994  0.01457444
   7.05362213  5.69588251  0.01552751
   5.82112285  6.40754723  0.01489279
   5.82101669  7.83073350  0.01578780
   7.05362858  8.54227219  0.01630582
  -5.27148792  9.96548729  0.01495127
  -2.80637951  8.54234295  0.01558431
  -2.80626749  9.96552896  0.01362126
  -0.34148805  8.54239058  0.01378498
  -0.34137657  9.96550309  0.01353576
   2.12342586  8.54231992  0.01336337
   2.12354296  9.96544135  0.01469111
   4.58845581  8.54235337  0.01505154
   4.58852904  9.96549848  0.01517076
   3.04929830  2.68153618  5.29731547
   4.02070129  2.02068374  5.36173733
   2.07766701  3.34267235  5.23786060
 


--------------------------------------------------------------------------------------------------------


 k-point   1 :   0.0000 0.0000 0.0000  plane waves:  189031

 maximum and minimum number of plane-waves per node :     47262    47254

 maximum number of plane-waves:    189031
 maximum index in each direction: 
   IXMAX=   31   IYMAX=   31   IZMAX=   51
   IXMIN=  -31   IYMIN=  -31   IZMIN=  -51


 parallel 3D FFT for wavefunctions:
    minimum data exchange during FFTs selected (reduces bandwidth)
 parallel 3D FFT for charge:
    minimum data exchange during FFTs selected (reduces bandwidth)


 total amount of memory used by VASP MPI-rank0   175916. kBytes
=======================================================================

   base      :      30000. kBytes
   nonl-proj :      46129. kBytes
   fftplans  :      35778. kBytes
   grid      :      52596. kBytes
   one-center:         43. kBytes
   wavefun   :      11370. kBytes
 
     INWAV:  cpu time    0.0000: real time    0.0000
 Broyden mixing: mesh for mixing (old mesh)
   NGX = 63   NGY = 63   NGZ =103
  (NGX  =256   NGY  =256   NGZ  =420)
  gives a total of 408807 points

 initial charge density was supplied:
 charge density of overlapping atoms calculated
 number of electron     216.0000000 magnetization 
 keeping initial charge density in first step


--------------------------------------------------------------------------------------------------------


 Maximum index for augmentation-charges          459 (set IRDMAX)


--------------------------------------------------------------------------------------------------------


 First call to EWALD:  gamma=   0.128
 Maximum number of real-space cells 3x 3x 2
 Maximum number of reciprocal cells 3x 3x 4

    FEWALD:  cpu time    0.0023: real time    0.0023


--------------------------------------- Iteration      1(   1)  ---------------------------------------


    POTLOK:  cpu time    0.2907: real time    0.2932
    SETDIJ:  cpu time    0.0051: real time    0.0052
    TRIAL :  cpu time    4.1640: real time    4.2098
    CORREC:  cpu time    0.0004: real time    0.0005
    --------------------------------------------
      LOOP:  cpu time    4.4630: real time    4.5317

 eigenvalue-minimisations  :   280
 total energy-change (2. order) : 0.2675372E+04  (-0.1113788E+05)
 number of electron     216.0000000 magnetization 
 augmentation part      216.0000000 magnetization 

 Free energy of the ion-electron system (eV)
  ---------------------------------------------------
  alpha Z        PSCENC =        59.93625244
  Ewald energy   TEWEN  =     31652.86799389
  -Hartree energ DENC   =    -37828.31078546
  -exchange      EXHF   =         0.00000000
  -V(xc)+E(xc)   XCENC  =       415.89380850
  PAW double counting   =      6538.03749920    -6258.26020123
  entropy T*S    EENTRO =        -0.00000000
  eigenvalues    EBANDS =      -269.10218516
  atomic energy  EATOM  =      8364.30921166
  ---------------------------------------------------
  free energy    TOTEN  =      2675.37159385 eV

  energy without entropy =     2675.37159385  energy(sigma->0) =     2675.37159385


--------------------------------------------------------------------------------------------------------




--------------------------------------- Iteration      1(   2)  ---------------------------------------


    TRIAL :  cpu time    6.6434: real time    6.7108
    CORREC:  cpu time    0.0001: real time    0.0001
    --------------------------------------------
      LOOP:  cpu time    6.7306: real time    6.8009

 eigenvalue-minimisations  :   504
 total energy-change (2. order) :-0.2480104E+04  (-0.2352047E+04)
 number of electron     216.0000000 magnetization 
 augmentation part      216.0000000 magnetization 

 Free energy of the ion-electron system (eV)
  ---------------------------------------------------
  alpha Z        PSCENC =        59.93625244
  Ewald energy   TEWEN  =     31652.86799389
  -Hartree energ DENC   =    -37828.31078546
  -exchange      EXHF   =         0.00000000
  -V(xc)+E(xc)   XCENC  =       415.89380850
  PAW double counting   =      6538.03749920    -6258.26020123
  entropy T*S    EENTRO =        -0.00000000
  eigenvalues    EBANDS =     -2749.20633369
  atomic energy  EATOM  =      8364.30921166
  ---------------------------------------------------
  free energy    TOTEN  =       195.26744531 eV

  energy without entropy =      195.26744531  energy(sigma->0) =      195.26744531


--------------------------------------------------------------------------------------------------------




--------------------------------------- Iteration      1(   3)  ---------------------------------------


    TRIAL :  cpu time    5.0768: real time    5.1354
    CORREC:  cpu time    0.0001: real time    0.0001
    --------------------------------------------
      LOOP:  cpu time    5.1852: real time    5.2445

 eigenvalue-minimisations  :   364
 total energy-change (2. order) :-0.6605966E+03  (-0.6576751E+03)
 number of electron     216.0000000 magnetization 
 augmentation part      216.0000000 magnetization 

 Free energy of the ion-electron system (eV)
  ---------------------------------------------------
  alpha Z        PSCENC =        59.93625244
  Ewald energy   TEWEN  =     31652.86799389
  -Hartree energ DENC   =    -37828.31078546
  -exchange      EXHF   =         0.00000000
  -V(xc)+E(xc)   XCENC  =       415.89380850
  PAW double counting   =      6538.03749920    -6258.26020123
  entropy T*S    EENTRO =        -0.00000000
  eigenvalues    EBANDS =     -3409.80292436
  atomic energy  EATOM  =      8364.30921166
  ---------------------------------------------------
  free energy    TOTEN  =      -465.32914536 eV

  energy without entropy =     -465.32914536  energy(sigma->0) =     -465.32914536


--------------------------------------------------------------------------------------------------------




--------------------------------------- Iteration      1(   4)  ---------------------------------------


    TRIAL :  cpu time    5.4477: real time    5.5144
    CORREC:  cpu time    0.0001: real time    0.0001
    --------------------------------------------
      LOOP:  cpu time    5.5229: real time    5.5940

 eigenvalue-minimisations  :   392
 total energy-change (2. order) :-0.3260835E+02  (-0.3248138E+02)
 number of electron     216.0000000 magnetization 
 augmentation part      216.0000000 magnetization 

 Free energy of the ion-electron system (eV)
  ---------------------------------------------------
  alpha Z        PSCENC =        59.93625244
  Ewald energy   TEWEN  =     31652.86799389
  -Hartree energ DENC   =    -37828.31078546
  -exchange      EXHF   =         0.00000000
  -V(xc)+E(xc)   XCENC  =       415.89380850
  PAW double counting   =      6538.03749920    -6258.26020123
  entropy T*S    EENTRO =        -0.00000000
  eigenvalues    EBANDS =     -3442.41127436
  atomic energy  EATOM  =      8364.30921166
  ---------------------------------------------------
  free energy    TOTEN  =      -497.93749535 eV

  energy without entropy =     -497.93749535  energy(sigma->0) =     -497.93749535


--------------------------------------------------------------------------------------------------------




--------------------------------------- Iteration      1(   5)  ---------------------------------------


    TRIAL :  cpu time    5.6883: real time    5.7759
    CORREC:  cpu time    0.0001: real time    0.0001
    CHARGE:  cpu time    0.2335: real time    0.2422
    --------------------------------------------
      LOOP:  cpu time    5.9494: real time    6.0600

 eigenvalue-minimisations  :   420
 total energy-change (2. order) :-0.6893400E+00  (-0.6876499E+00)
 number of electron     216.0000000 magnetization 
 augmentation part       -0.3107521 magnetization 

 Free energy of the ion-electron system (eV)
  ---------------------------------------------------
  alpha Z        PSCENC =        59.93625244
  Ewald energy   TEWEN  =     31652.86799389
  -Hartree energ DENC   =    -37828.31078546
  -exchange      EXHF   =         0.00000000
  -V(xc)+E(xc)   XCENC  =       415.89380850
  PAW double counting   =      6538.03749920    -6258.26020123
  entropy T*S    EENTRO =        -0.00000000
  eigenvalues    EBANDS =     -3443.10061437
  atomic energy  EATOM  =      8364.30921166
  ---------------------------------------------------
  free energy    TOTEN  =      -498.62683536 eV

  energy without entropy =     -498.62683536  energy(sigma->0) =     -498.62683536


--------------------------------------------------------------------------------------------------------




--------------------------------------- Iteration      1(   6)  ---------------------------------------


    POTLOK:  cpu time    0.2694: real time    0.2719
    SETDIJ:  cpu time    0.0030: real time    0.0030
    TRIAL :  cpu time    2.0069: real time    2.0309
    CORREC:  cpu time    0.7957: real time    0.8028
    CHARGE:  cpu time    0.2319: real time    0.2339
    --------------------------------------------
      LOOP:  cpu time    3.3529: real time    3.3896

 eigenvalue-minimisations  :     0
 total energy-change (2. order) : 0.4867858E+02  (-0.1445233E+02)
 number of electron     216.0000000 magnetization 
 augmentation part       -0.4042514 magnetization 

 Free energy of the ion-electron system (eV)
  ---------------------------------------------------
  alpha Z        PSCENC =        59.93625244
  Ewald energy   TEWEN  =     31652.86799389
  -Hartree energ DENC   =    -39226.24278308
  -exchange      EXHF   =         0.00000000
  -V(xc)+E(xc)   XCENC  =       462.94446147
  PAW double counting   =    104144.91505123  -103870.49742285
  entropy T*S    EENTRO =        -0.00000000
  eigenvalues    EBANDS =     -2038.18102333
  atomic energy  EATOM  =      8364.30921166
  ---------------------------------------------------
  free energy    TOTEN  =      -449.94825856 eV

  energy without entropy =     -449.94825856  energy(sigma->0) =     -449.94825856


--------------------------------------------------------------------------------------------------------




--------------------------------------- Iteration      1(   7)  ---------------------------------------


    POTLOK:  cpu time    0.2697: real time    0.2720
    SETDIJ:  cpu time    0.0030: real time    0.0030
    TRIAL :  cpu time    2.0009: real time    2.0226
    CORREC:  cpu time    0.7973: real time    0.8051
    CHARGE:  cpu time    0.2318: real time    0.2339
    --------------------------------------------
      LOOP:  cpu time    3.4124: real time    3.4478

 eigenvalue-minimisations  :     0
 total energy-change (2. order) :-0.1449102E+02  (-0.1762116E+01)
 number of electron     216.0000000 magnetization 
 augmentation part       -0.4500849 magnetization 

 Free energy of the ion-electron system (eV)
  ---------------------------------------------------
  alpha Z        PSCENC =        59.93625244
  Ewald energy   TEWEN  =     31652.86799389
  -Hartree energ DENC   =    -38745.90254131
  -exchange      EXHF   =         0.00000000
  -V(xc)+E(xc)   XCENC  =       446.79060096
  PAW double counting   =    120338.05266672  -120061.56747480
  entropy T*S    EENTRO =        -0.00000000
  eigenvalues    EBANDS =     -2518.92598984
  atomic energy  EATOM  =      8364.30921166
  ---------------------------------------------------
  free energy    TOTEN  =      -464.43928026 eV

  energy without entropy =     -464.43928026  energy(sigma->0) =     -464.43928026


--------------------------------------------------------------------------------------------------------




--------------------------------------- Iteration      1(   8)  ---------------------------------------


    POTLOK:  cpu time    0.2672: real time    0.2701
    SETDIJ:  cpu time    0.0030: real time    0.0030
    TRIAL :  cpu time    2.0036: real time    2.0246
    CORREC:  cpu time    0.7965: real time    0.8037
    CHARGE:  cpu time    0.2320: real time    0.2340
    --------------------------------------------
      LOOP:  cpu time    3.3607: real time    3.4078

 eigenvalue-minimisations  :     0
 total energy-change (2. order) :-0.1760977E+01  (-0.4556205E+00)
 number of electron     216.0000000 magnetization 
 augmentation part       -0.4658860 magnetization 

 Free energy of the ion-electron system (eV)
  ---------------------------------------------------
  alpha Z        PSCENC =        59.93625244
  Ewald energy   TEWEN  =     31652.86799389
  -Hartree energ DENC   =    -38714.93002026
  -exchange      EXHF   =         0.00000000
  -V(xc)+E(xc)   XCENC  =       446.16968542
  PAW double counting   =    124599.70611316  -124322.92614617
  entropy T*S    EENTRO =        -0.00000000
  eigenvalues    EBANDS =     -2551.33334770
  atomic energy  EATOM  =      8364.30921166
  ---------------------------------------------------
  free energy    TOTEN  =      -466.20025755 eV

  energy without entropy =     -466.20025755  energy(sigma->0) =     -466.20025755


--------------------------------------------------------------------------------------------------------




--------------------------------------- Iteration      1(   9)  ---------------------------------------


    POTLOK:  cpu time    0.2681: real time    0.2701
    SETDIJ:  cpu time    0.0030: real time    0.0030
    TRIAL :  cpu time    2.0038: real time    2.0244
    CORREC:  cpu time    0.7955: real time    0.8027
    CHARGE:  cpu time    0.2324: real time    0.2343
    --------------------------------------------
      LOOP:  cpu time    3.3660: real time    3.4003

 eigenvalue-minimisations  :     0
 total energy-change (2. order) :-0.4554298E+00  (-0.1411528E+00)
 number of electron     216.0000000 magnetization 
 augmentation part       -0.4731742 magnetization 

 Free energy of the ion-electron system (eV)
  ---------------------------------------------------
  alpha Z        PSCENC =        59.93625244
  Ewald energy   TEWEN  =     31652.86799389
  -Hartree energ DENC   =    -38730.77543335
  -exchange      EXHF   =         0.00000000
  -V(xc)+E(xc)   XCENC  =       446.37232316
  PAW double counting   =    127161.32335158  -126884.44300061
  entropy T*S    EENTRO =        -0.00000000
  eigenvalues    EBANDS =     -2536.24638614
  atomic energy  EATOM  =      8364.30921166
  ---------------------------------------------------
  free energy    TOTEN  =      -466.65568737 eV

  energy without entropy =     -466.65568737  energy(sigma->0) =     -466.65568737


--------------------------------------------------------------------------------------------------------




--------------------------------------- Iteration      1(  10)  ---------------------------------------


    POTLOK:  cpu time    0.2687: real time    0.2707
    SETDIJ:  cpu time    0.0030: real time    0.0030
    TRIAL :  cpu time    2.0124: real time    2.0331
    CORREC:  cpu time    0.8049: real time    0.8140
    CHARGE:  cpu time    0.2327: real time    0.2346
    --------------------------------------------
      LOOP:  cpu time    3.3829: real time    3.4177

 eigenvalue-minimisations  :     0
 total energy-change (2. order) :-0.1409317E+00  (-0.5516220E-01)
 number of electron     216.0000000 magnetization 
 augmentation part       -0.4744260 magnetization 

 Free energy of the ion-electron system (eV)
  ---------------------------------------------------
  alpha Z        PSCENC =        59.93625244
  Ewald energy   TEWEN  =     31652.86799389
  -Hartree energ DENC   =    -38732.04052723
  -exchange      EXHF   =         0.00000000
  -V(xc)+E(xc)   XCENC  =       446.29397742
  PAW double counting   =    127421.08076644  -127144.13954220
  entropy T*S    EENTRO =        -0.00000000
  eigenvalues    EBANDS =     -2535.10475146
  atomic energy  EATOM  =      8364.30921166
  ---------------------------------------------------
  free energy    TOTEN  =      -466.79661903 eV

  energy without entropy =     -466.79661903  energy(sigma->0) =     -466.79661903


--------------------------------------------------------------------------------------------------------




--------------------------------------- Iteration      1(  11)  ---------------------------------------


    POTLOK:  cpu time    0.2682: real time    0.2703
    SETDIJ:  cpu time    0.0033: real time    0.0033
    TRIAL :  cpu time    2.0037: real time    2.0243
    CORREC:  cpu time    0.7972: real time    0.8044
    CHARGE:  cpu time    0.2321: real time    0.2341
    --------------------------------------------
      LOOP:  cpu time    3.3093: real time    3.3450

 eigenvalue-minimisations  :     0
 total energy-change (2. order) :-0.5501289E-01  (-0.2255139E-01)
 number of electron     216.0000000 magnetization 
 augmentation part       -0.4744473 magnetization 

 Free energy of the ion-electron system (eV)
  ---------------------------------------------------
  alpha Z        PSCENC =        59.93625244
  Ewald energy   TEWEN  =     31652.86799389
  -Hartree energ DENC   =    -38728.66276897
  -exchange      EXHF   =         0.00000000
  -V(xc)+E(xc)   XCENC  =       446.23621877
  PAW double counting   =    126844.42379336  -126567.48285630
  entropy T*S    EENTRO =        -0.00000000
  eigenvalues    EBANDS =     -2538.47947679
  atomic energy  EATOM  =      8364.30921166
  ---------------------------------------------------
  free energy    TOTEN  =      -466.85163193 eV

  energy without entropy =     -466.85163193  energy(sigma->0) =     -466.85163193


--------------------------------------------------------------------------------------------------------




--------------------------------------- Iteration      1(  12)  ---------------------------------------


    POTLOK:  cpu time    0.2680: real time    0.2699
    SETDIJ:  cpu time    0.0030: real time    0.0031
    TRIAL :  cpu time    2.0019: real time    2.0223
    CORREC:  cpu time    0.7954: real time    0.8027
    CHARGE:  cpu time    0.2315: real time    0.2347
    --------------------------------------------
      LOOP:  cpu time    3.3424: real time    3.3762

 eigenvalue-minimisations  :     0
 total energy-change (2. order) :-0.2244907E-01  (-0.7983390E-02)
 number of electron     216.0000000 magnetization 
 augmentation part       -0.4747853 magnetization 

 Free energy of the ion-electron system (eV)
  ---------------------------------------------------
  alpha Z        PSCENC =        59.93625244
  Ewald energy   TEWEN  =     31652.86799389
  -Hartree energ DENC   =    -38727.20831242
  -exchange      EXHF   =         0.00000000
  -V(xc)+E(xc)   XCENC  =       446.20602457
  PAW double counting   =    126466.37887106  -126189.45353111
  entropy T*S    EENTRO =        -0.00000000
  eigenvalues    EBANDS =     -2539.91059109
  atomic energy  EATOM  =      8364.30921166
  ---------------------------------------------------
  free energy    TOTEN  =      -466.87408100 eV

  energy without entropy =     -466.87408100  energy(sigma->0) =     -466.87408100


--------------------------------------------------------------------------------------------------------




--------------------------------------- Iteration      1(  13)  ---------------------------------------


    POTLOK:  cpu time    0.2728: real time    0.2747
    SETDIJ:  cpu time    0.0028: real time    0.0028
    TRIAL :  cpu time    2.0028: real time    2.0233
    CORREC:  cpu time    0.7940: real time    0.8012
    CHARGE:  cpu time    0.2318: real time    0.2339
    --------------------------------------------
      LOOP:  cpu time    3.3469: real time    3.3933

 eigenvalue-minimisations  :     0
 total energy-change (2. order) :-0.7959930E-02  (-0.2305449E-02)
 number of electron     216.0000000 magnetization 
 augmentation part       -0.4745177 magnetization 

 Free energy of the ion-electron system (eV)
  ---------------------------------------------------
  alpha Z        PSCENC =        59.93625244
  Ewald energy   TEWEN  =     31652.86799389
  -Hartree energ DENC   =    -38727.16873949
  -exchange      EXHF   =         0.00000000
  -V(xc)+E(xc)   XCENC  =       446.19714387
  PAW double counting   =    126389.26843233  -126112.34867622
  entropy T*S    EENTRO =        -0.00000000
  eigenvalues    EBANDS =     -2539.94365942
  atomic energy  EATOM  =      8364.30921166
  ---------------------------------------------------
  free energy    TOTEN  =      -466.88204093 eV

  energy without entropy =     -466.88204093  energy(sigma->0) =     -466.88204093


--------------------------------------------------------------------------------------------------------




--------------------------------------- Iteration      1(  14)  ---------------------------------------


    POTLOK:  cpu time    0.2666: real time    0.2685
    SETDIJ:  cpu time    0.0030: real time    0.0030
    TRIAL :  cpu time    2.0038: real time    2.0249
    CORREC:  cpu time    0.7878: real time    0.7995
    CHARGE:  cpu time    0.2325: real time    0.2345
    --------------------------------------------
      LOOP:  cpu time    3.3565: real time    3.4076

 eigenvalue-minimisations  :     0
 total energy-change (2. order) :-0.2305493E-02  (-0.6578785E-03)
 number of electron     216.0000000 magnetization 
 augmentation part       -0.4742765 magnetization 

 Free energy of the ion-electron system (eV)
  ---------------------------------------------------
  alpha Z        PSCENC =        59.93625244
  Ewald energy   TEWEN  =     31652.86799389
  -Hartree energ DENC   =    -38727.09699315
  -exchange      EXHF   =         0.00000000
  -V(xc)+E(xc)   XCENC  =       446.19730696
  PAW double counting   =    126449.92461732  -126173.00624309
  entropy T*S    EENTRO =        -0.00000000
  eigenvalues    EBANDS =     -2540.01649245
  atomic energy  EATOM  =      8364.30921166
  ---------------------------------------------------
  free energy    TOTEN  =      -466.88434642 eV

  energy without entropy =     -466.88434642  energy(sigma->0) =     -466.88434642


--------------------------------------------------------------------------------------------------------




--------------------------------------- Iteration      1(  15)  ---------------------------------------


    POTLOK:  cpu time    0.2649: real time    0.2668
    SETDIJ:  cpu time    0.0031: real time    0.0031
    TRIAL :  cpu time    2.0027: real time    2.0235
    CORREC:  cpu time    0.7940: real time    0.8013
    CHARGE:  cpu time    0.2326: real time    0.2347
    --------------------------------------------
      LOOP:  cpu time    3.3943: real time    3.4291

 eigenvalue-minimisations  :     0
 total energy-change (2. order) :-0.6598233E-03  (-0.2254635E-03)
 number of electron     216.0000000 magnetization 
 augmentation part       -0.4739672 magnetization 

 Free energy of the ion-electron system (eV)
  ---------------------------------------------------
  alpha Z        PSCENC =        59.93625244
  Ewald energy   TEWEN  =     31652.86799389
  -Hartree energ DENC   =    -38726.76904780
  -exchange      EXHF   =         0.00000000
  -V(xc)+E(xc)   XCENC  =       446.18494424
  PAW double counting   =    126491.99923842  -126215.07960137
  entropy T*S    EENTRO =        -0.00000000
  eigenvalues    EBANDS =     -2540.33399774
  atomic energy  EATOM  =      8364.30921166
  ---------------------------------------------------
  free energy    TOTEN  =      -466.88500625 eV

  energy without entropy =     -466.88500625  energy(sigma->0) =     -466.88500625


--------------------------------------------------------------------------------------------------------




--------------------------------------- Iteration      1(  16)  ---------------------------------------


    POTLOK:  cpu time    0.2645: real time    0.2664
    SETDIJ:  cpu time    0.0029: real time    0.0030
    TRIAL :  cpu time    2.0033: real time    2.0238
    CORREC:  cpu time    0.7920: real time    0.7991
    CHARGE:  cpu time    0.2335: real time    0.2354
    --------------------------------------------
      LOOP:  cpu time    3.3421: real time    3.3761

 eigenvalue-minimisations  :     0
 total energy-change (2. order) :-0.2270732E-03  (-0.8153754E-04)
 number of electron     216.0000000 magnetization 
 augmentation part       -0.4737820 magnetization 

 Free energy of the ion-electron system (eV)
  ---------------------------------------------------
  alpha Z        PSCENC =        59.93625244
  Ewald energy   TEWEN  =     31652.86799389
  -Hartree energ DENC   =    -38726.86623772
  -exchange      EXHF   =         0.00000000
  -V(xc)+E(xc)   XCENC  =       446.18865467
  PAW double counting   =    126475.68986897  -126198.77082558
  entropy T*S    EENTRO =        -0.00000000
  eigenvalues    EBANDS =     -2540.24015166
  atomic energy  EATOM  =      8364.30921166
  ---------------------------------------------------
  free energy    TOTEN  =      -466.88523332 eV

  energy without entropy =     -466.88523332  energy(sigma->0) =     -466.88523332


--------------------------------------------------------------------------------------------------------




--------------------------------------- Iteration      1(  17)  ---------------------------------------


    POTLOK:  cpu time    0.2645: real time    0.2664
    SETDIJ:  cpu time    0.0029: real time    0.0029
    TRIAL :  cpu time    2.0022: real time    2.0240
    CORREC:  cpu time    0.7920: real time    0.7993
    CHARGE:  cpu time    0.2327: real time    0.2345
    --------------------------------------------
      LOOP:  cpu time    3.3556: real time    3.3925

 eigenvalue-minimisations  :     0
 total energy-change (2. order) :-0.8248336E-04  (-0.3115493E-04)
 number of electron     216.0000000 magnetization 
 augmentation part       -0.4737714 magnetization 

 Free energy of the ion-electron system (eV)
  ---------------------------------------------------
  alpha Z        PSCENC =        59.93625244
  Ewald energy   TEWEN  =     31652.86799389
  -Hartree energ DENC   =    -38726.98079906
  -exchange      EXHF   =         0.00000000
  -V(xc)+E(xc)   XCENC  =       446.19215670
  PAW double counting   =    126447.76764396  -126170.84898113
  entropy T*S    EENTRO =        -0.00000000
  eigenvalues    EBANDS =     -2540.12879426
  atomic energy  EATOM  =      8364.30921166
  ---------------------------------------------------
  free energy    TOTEN  =      -466.88531580 eV

  energy without entropy =     -466.88531580  energy(sigma->0) =     -466.88531580


--------------------------------------------------------------------------------------------------------




--------------------------------------- Iteration      1(  18)  ---------------------------------------


    POTLOK:  cpu time    0.2642: real time    0.2662
    SETDIJ:  cpu time    0.0029: real time    0.0030
    TRIAL :  cpu time    2.0046: real time    2.0254
    CORREC:  cpu time    0.7921: real time    0.7996
    CHARGE:  cpu time    0.2326: real time    0.2345
    --------------------------------------------
      LOOP:  cpu time    3.3274: real time    3.3866

 eigenvalue-minimisations  :     0
 total energy-change (2. order) :-0.3150094E-04  (-0.1171254E-04)
 number of electron     216.0000000 magnetization 
 augmentation part       -0.4738105 magnetization 

 Free energy of the ion-electron system (eV)
  ---------------------------------------------------
  alpha Z        PSCENC =        59.93625244
  Ewald energy   TEWEN  =     31652.86799389
  -Hartree energ DENC   =    -38726.96415228
  -exchange      EXHF   =         0.00000000
  -V(xc)+E(xc)   XCENC  =       446.19096752
  PAW double counting   =    126438.20103554  -126161.28201984
  entropy T*S    EENTRO =        -0.00000000
  eigenvalues    EBANDS =     -2540.14463625
  atomic energy  EATOM  =      8364.30921166
  ---------------------------------------------------
  free energy    TOTEN  =      -466.88534731 eV

  energy without entropy =     -466.88534731  energy(sigma->0) =     -466.88534731


--------------------------------------------------------------------------------------------------------




--------------------------------------- Iteration      1(  19)  ---------------------------------------


    POTLOK:  cpu time    0.2653: real time    0.2673
    SETDIJ:  cpu time    0.0030: real time    0.0030
    TRIAL :  cpu time    2.0083: real time    2.0311
    CORREC:  cpu time    0.7909: real time    0.8004
    CHARGE:  cpu time    0.2491: real time    0.2511
    --------------------------------------------
      LOOP:  cpu time    3.3380: real time    3.3756

 eigenvalue-minimisations  :     0
 total energy-change (2. order) :-0.1148776E-04  (-0.4471806E-05)
 number of electron     216.0000000 magnetization 
 augmentation part       -0.4738866 magnetization 

 Free energy of the ion-electron system (eV)
  ---------------------------------------------------
  alpha Z        PSCENC =        59.93625244
  Ewald energy   TEWEN  =     31652.86799389
  -Hartree energ DENC   =    -38726.98302359
  -exchange      EXHF   =         0.00000000
  -V(xc)+E(xc)   XCENC  =       446.19215657
  PAW double counting   =    126441.57509396  -126164.65603891
  entropy T*S    EENTRO =        -0.00000000
  eigenvalues    EBANDS =     -2540.12700483
  atomic energy  EATOM  =      8364.30921166
  ---------------------------------------------------
  free energy    TOTEN  =      -466.88535879 eV

  energy without entropy =     -466.88535879  energy(sigma->0) =     -466.88535879


--------------------------------------------------------------------------------------------------------




--------------------------------------- Iteration      1(  20)  ---------------------------------------


    POTLOK:  cpu time    0.2641: real time    0.2660
    SETDIJ:  cpu time    0.0031: real time    0.0031
    TRIAL :  cpu time    2.0071: real time    2.0280
    CORREC:  cpu time    0.7916: real time    0.7999
    CHARGE:  cpu time    0.2319: real time    0.2341
    --------------------------------------------
      LOOP:  cpu time    3.3628: real time    3.3998

 eigenvalue-minimisations  :     0
 total energy-change (2. order) :-0.4151283E-05  (-0.1697512E-05)
 number of electron     216.0000000 magnetization 
 augmentation part       -0.4739048 magnetization 

 Free energy of the ion-electron system (eV)
  ---------------------------------------------------
  alpha Z        PSCENC =        59.93625244
  Ewald energy   TEWEN  =     31652.86799389
  -Hartree energ DENC   =    -38726.97192761
  -exchange      EXHF   =         0.00000000
  -V(xc)+E(xc)   XCENC  =       446.19130602
  PAW double counting   =    126446.66195225  -126169.74258937
  entropy T*S    EENTRO =        -0.00000000
  eigenvalues    EBANDS =     -2540.13756223
  atomic energy  EATOM  =      8364.30921166
  ---------------------------------------------------
  free energy    TOTEN  =      -466.88536294 eV

  energy without entropy =     -466.88536294  energy(sigma->0) =     -466.88536294


--------------------------------------------------------------------------------------------------------




--------------------------------------- Iteration      1(  21)  ---------------------------------------


    POTLOK:  cpu time    0.2607: real time    0.2658
    SETDIJ:  cpu time    0.0030: real time    0.0031
    TRIAL :  cpu time    1.9819: real time    2.0229
    CORREC:  cpu time    0.7931: real time    0.8006
    CHARGE:  cpu time    0.2328: real time    0.2348
    --------------------------------------------
      LOOP:  cpu time    3.2804: real time    3.3679

 eigenvalue-minimisations  :     0
 total energy-change (2. order) :-0.1480104E-05  (-0.7090011E-06)
 number of electron     216.0000000 magnetization 
 augmentation part       -0.4739164 magnetization 

 Free energy of the ion-electron system (eV)
  ---------------------------------------------------
  alpha Z        PSCENC =        59.93625244
  Ewald energy   TEWEN  =     31652.86799389
  -Hartree energ DENC   =    -38726.99508620
  -exchange      EXHF   =         0.00000000
  -V(xc)+E(xc)   XCENC  =       446.19237929
  PAW double counting   =    126448.22066534  -126171.30141513
  entropy T*S    EENTRO =        -0.00000000
  eigenvalues    EBANDS =     -2540.11536573
  atomic energy  EATOM  =      8364.30921166
  ---------------------------------------------------
  free energy    TOTEN  =      -466.88536442 eV

  energy without entropy =     -466.88536442  energy(sigma->0) =     -466.88536442


--------------------------------------------------------------------------------------------------------




--------------------------------------- Iteration      1(  22)  ---------------------------------------


    POTLOK:  cpu time    0.2635: real time    0.2654
    SETDIJ:  cpu time    0.0030: real time    0.0030
    TRIAL :  cpu time    2.0059: real time    2.0267
    CORREC:  cpu time    0.7919: real time    0.7992
    EDDIAG:  cpu time    0.4574: real time    0.4621
    CHARGE:  cpu time    0.2325: real time    0.2345
    --------------------------------------------
      LOOP:  cpu time    3.7901: real time    3.8449

 eigenvalue-minimisations  :     0
 total energy-change (2. order) :-0.6737682E-06  (-0.3189008E-06)
 number of electron     216.0000000 magnetization 
 augmentation part       -0.4739125 magnetization 

 Free energy of the ion-electron system (eV)
  ---------------------------------------------------
  alpha Z        PSCENC =        59.93625244
  Ewald energy   TEWEN  =     31652.86799389
  -Hartree energ DENC   =    -38726.98482545
  -exchange      EXHF   =         0.00000000
  -V(xc)+E(xc)   XCENC  =       446.19187037
  PAW double counting   =    126447.81048822  -126170.89119528
  entropy T*S    EENTRO =        -0.00000000
  eigenvalues    EBANDS =     -2540.12516094
  atomic energy  EATOM  =      8364.30921166
  ---------------------------------------------------
  free energy    TOTEN  =      -466.88536510 eV

  energy without entropy =     -466.88536510  energy(sigma->0) =     -466.88536510


--------------------------------------------------------------------------------------------------------


  average scaling for gradient   0.9426


 average (electrostatic) potential at core
  the test charge radii are     0.5770  0.5955
  (the norm of the test charge is              1.0000)
       1 -85.4325       2 -85.4313       3 -85.4337       4 -85.4355       5 -85.4297
       6 -85.4290       7 -85.4333       8 -85.4307       9 -85.4309      10 -85.4329
      11 -85.4291      12 -85.4297      13 -85.4327      14 -85.4307      15 -85.4289
      16 -85.4295      17 -85.4305      18 -85.4315      19 -85.4323      20 -85.4306
      21 -85.4288      22 -85.4284      23 -85.4364      24 -85.4361      25 -85.4287
      26 -85.4295      27 -85.4312      28 -85.4333      29 -85.4290      30 -85.4288
      31 -85.4346      32 -85.4330      33 -85.4301      34 -85.4294      35 -85.4294
      36 -85.4300      37 -85.4312      38 -85.4320      39 -85.4321      40 -85.4317
      41 -85.4318      42 -85.4325      43 -85.4306      44 -85.4325      45 -85.4289
      46 -85.4293      47 -85.4297      48 -85.4291      49 -85.4317      50 -85.4308
      51 -89.3878      52-120.0533      53-120.0528
 
 
 
 E-fermi :  -3.7862     XC(G=0):  -2.4089     alpha+bet : -2.1113

 Fermi energy:        -3.7861961273

 k-point     1 :       0.0000    0.0000    0.0000
  band No.  band energies     occupation 
      1     -27.3276      2.00000
      2     -26.3052      2.00000
      3     -21.9984      2.00000
      4     -21.0569      2.00000
      5     -21.0565      2.00000
      6     -21.0565      2.00000
      7     -21.0551      2.00000
      8     -21.0543      2.00000
      9     -21.0543      2.00000
     10     -19.2080      2.00000
     11     -19.2078      2.00000
     12     -19.2076      2.00000
     13     -19.2072      2.00000
     14     -19.2071      2.00000
     15     -19.2070      2.00000
     16     -18.3091      2.00000
     17     -18.3090      2.00000
     18     -18.3088      2.00000
     19     -18.3082      2.00000
     20     -18.3080      2.00000
     21     -18.3077      2.00000
     22     -16.1469      2.00000
     23     -16.1467      2.00000
     24     -16.1458      2.00000
     25     -16.1457      2.00000
     26     -16.1449      2.00000
     27     -16.1448      2.00000
     28     -15.1299      2.00000
     29     -15.1299      2.00000
     30     -15.1294      2.00000
     31     -15.1293      2.00000
     32     -15.1287      2.00000
     33     -15.1286      2.00000
     34     -13.7785      2.00000
     35     -13.7784      2.00000
     36     -13.7778      2.00000
     37     -13.7776      2.00000
     38     -13.7775      2.00000
     39     -13.7773      2.00000
     40     -12.1071      2.00000
     41     -11.3887      2.00000
     42     -11.3885      2.00000
     43     -11.3880      2.00000
     44     -11.3880      2.00000
     45     -11.3871      2.00000
     46     -11.3868      2.00000
     47     -11.2660      2.00000
     48     -11.2660      2.00000
     49     -11.2654      2.00000
     50     -11.2654      2.00000
     51     -11.2646      2.00000
     52     -11.2644      2.00000
     53     -10.8817      2.00000
     54     -10.7987      2.00000
     55     -10.7986      2.00000
     56     -10.0226      2.00000
     57      -9.8816      2.00000
     58      -9.8815      2.00000
     59      -9.8801      2.00000
     60      -9.8797      2.00000
     61      -9.8795      2.00000
     62      -9.8795      2.00000
     63      -8.9094      2.00000
     64      -8.9085      2.00000
     65      -8.9069      2.00000
     66      -8.9060      2.00000
     67      -8.9046      2.00000
     68      -8.9045      2.00000
     69      -8.5985      2.00000
     70      -8.5979      2.00000
     71      -8.5976      2.00000
     72      -8.5972      2.00000
     73      -8.5967      2.00000
     74      -8.5966      2.00000
     75      -8.5653      2.00000
     76      -8.5653      2.00000
     77      -8.5650      2.00000
     78      -8.5649      2.00000
     79      -8.5644      2.00000
     80      -8.5635      2.00000
     81      -7.2594      2.00000
     82      -7.2593      2.00000
     83      -6.9391      2.00000
     84      -6.9379      2.00000
     85      -6.9376      2.00000
     86      -6.9370      2.00000
     87      -6.9357      2.00000
     88      -6.9356      2.00000
     89      -6.7803      2.00000
     90      -6.7802      2.00000
     91      -6.7801      2.00000
     92      -6.7797      2.00000
     93      -6.7795      2.00000
     94      -6.7793      2.00000
     95      -5.8873      2.00000
     96      -5.8862      2.00000
     97      -5.8859      2.00000
     98      -5.8857      2.00000
     99      -5.8854      2.00000
    100      -5.8850      2.00000
    101      -5.4455      2.00000
    102      -5.4433      2.00000
    103      -3.9075      2.00000
    104      -3.9074      2.00000
    105      -3.9072      2.00000
    106      -3.9068      2.00000
    107      -3.9050      2.00000
    108      -3.9048      2.00000
    109      -1.0938      0.00000
    110      -1.0935      0.00000
    111      -1.0921      0.00000
    112      -1.0918      0.00000
    113      -1.0916      0.00000
    114      -1.0914      0.00000
    115       0.4749      0.00000
    116       0.7790      0.00000
    117       0.7798      0.00000
    118       0.7803      0.00000
    119       0.7810      0.00000
    120       0.7811      0.00000
    121       0.7834      0.00000
    122       1.0174      0.00000
    123       1.2601      0.00000
    124       1.2994      0.00000
    125       1.6494      0.00000
    126       1.8888      0.00000
    127       1.9467      0.00000
    128       2.0039      0.00000
    129       2.0565      0.00000
    130       2.0632      0.00000
    131       2.1096      0.00000
    132       2.5095      0.00000
    133       2.5146      0.00000
    134       2.5157      0.00000
    135       2.5157      0.00000
    136       2.5173      0.00000
    137       2.5503      0.00000
    138       2.8767      0.00000
    139       3.4034      0.00000
    140       3.7143      0.00000


--------------------------------------------------------------------------------------------------------


 soft charge-density along one line, spin component           1
         0         1         2         3         4         5         6         7         8         9
 total charge-density along one line
 
 pseudopotential strength for first ion, spin component:           1
 12.709  21.388   0.000   0.000   0.000   0.000   0.000   0.000
 21.388  35.991   0.000   0.000   0.000   0.000   0.000   0.000
  0.000   0.000  -3.095  -0.000   0.000  -5.547  -0.000   0.000
  0.000   0.000  -0.000  -3.096  -0.000  -0.000  -5.548  -0.000
  0.000   0.000   0.000  -0.000  -3.095   0.000  -0.000  -5.547
  0.000   0.000  -5.547  -0.000   0.000  -9.919  -0.000   0.000
  0.000   0.000  -0.000  -5.548  -0.000  -0.000  -9.921  -0.000
  0.000   0.000   0.000  -0.000  -5.547   0.000  -0.000  -9.919
 total augmentation occupancy for first ion, spin component:           1
  8.451  -3.031  -0.000  -0.002  -0.000   0.000   0.001   0.000
 -3.031   1.122   0.000   0.001   0.000  -0.000  -0.000  -0.000
 -0.000   0.000   7.733  -0.008   0.000  -2.679   0.003  -0.000
 -0.002   0.001  -0.008   3.531  -0.000   0.003  -0.988   0.000
 -0.000   0.000   0.000  -0.000   7.732  -0.000   0.000  -2.678
  0.000  -0.000  -2.679   0.003  -0.000   0.941  -0.001   0.000
  0.001  -0.000   0.003  -0.988   0.000  -0.001   0.282  -0.000
  0.000  -0.000  -0.000   0.000  -2.678   0.000  -0.000   0.941


------------------------ aborting loop because EDIFF is reached ----------------------------------------


    FORLOC:  cpu time    0.0517: real time    0.0523
    FORNL :  cpu time    0.7369: real time    0.7459
    FORCOR:  cpu time    0.2854: real time    0.2876
    OFIELD:  cpu time    0.0014: real time    0.0014

 ---------------------------------------------------------------------------------------------

         DFTD3 V3.0 Rev 1        
 IVDW         = 11
 DF revpbe    
 parameters
 VDW_S6       =    1.0000
 VDW_S8       =    1.0100
 VDW_SR       =    0.9230
 rs18     =    1.0000
 alpha6   =   14.0000
 alpha8   =   16.0000
 k1-k3    =   16.0000    1.3333   -4.0000
 VDW_RADIUS   =   50.2022 A
 VDW_CNRADIUS =   21.1671 A
 Edisp (eV)   -3.68449

 E6    (eV) :    -2.6256
 E8    (eV) :    -1.0589
 % E8        : 28.74
    FORVDW:  cpu time    0.1785: real time    0.1798

 VOLUME and BASIS-vectors are now :
 -----------------------------------------------------------------------------
  energy-cutoff  :     1000.00
  volume of cell :     2631.08
      direct lattice vectors                 reciprocal lattice vectors
    12.325000000  0.000000000  0.000000000     0.081135903  0.046843835  0.000000000
    -6.162500000 10.673763102  0.000000000     0.000000000  0.093687670  0.000000000
     0.000000000  0.000000000 20.000000000     0.000000000  0.000000000  0.050000000

  length of vectors
    12.325000000 12.325000000 20.000000000     0.093687670  0.093687670  0.050000000


 FORCES acting on ions:
    Electron-Ion                     Ewald-Force                    Non-Local-Force
 -----------------------------------------------------------------------------------------------
   0.378E+01 0.328E+01 0.186E+02   -.379E+01 -.328E+01 -.186E+02   0.770E-02 -.109E-02 0.757E-02
   0.550E+01 0.268E+01 0.217E+02   -.551E+01 -.268E+01 -.217E+02   0.833E-02 -.470E-02 -.567E-02
   0.236E+01 0.632E+01 0.239E+02   -.236E+01 -.633E+01 -.239E+02   -.615E-03 0.170E-01 0.515E-02
   0.312E+01 0.452E+01 0.305E+02   -.313E+01 -.452E+01 -.305E+02   0.161E-01 0.281E-02 -.270E-02
   0.403E+01 0.957E+00 0.189E+02   -.404E+01 -.955E+00 -.189E+02   0.204E-02 -.789E-02 0.517E-03
   0.414E+01 -.817E+00 0.191E+02   -.414E+01 0.820E+00 -.191E+02   -.674E-02 0.213E-02 -.727E-02
   0.591E+01 0.216E+01 0.286E+02   -.592E+01 -.215E+01 -.286E+02   0.189E-01 -.228E-01 -.218E-02
   0.573E+01 -.205E+01 0.299E+02   -.574E+01 0.206E+01 -.299E+02   -.239E-03 -.988E-02 -.765E-02
   -.282E+01 0.571E+01 0.241E+02   0.283E+01 -.571E+01 -.241E+02   -.498E-02 -.857E-02 -.698E-02
   -.425E+01 0.357E+01 0.299E+02   0.426E+01 -.358E+01 -.299E+02   -.336E-01 0.202E-01 0.595E-02
   0.105E+01 -.104E+01 0.166E+02   -.104E+01 0.104E+01 -.166E+02   0.220E-02 -.234E-02 -.283E-02
   0.907E+00 -.761E+00 0.159E+02   -.905E+00 0.760E+00 -.159E+02   -.930E-02 0.429E-02 0.374E-02
   0.227E+01 -.487E+01 0.321E+02   -.228E+01 0.488E+01 -.321E+02   0.343E-01 -.131E-01 0.111E-02
   0.129E+01 -.634E+01 0.250E+02   -.129E+01 0.635E+01 -.250E+02   0.871E-02 0.264E-02 -.179E-01
   -.364E+01 0.224E+01 0.183E+02   0.364E+01 -.224E+01 -.183E+02   0.746E-02 -.354E-02 0.266E-02
   -.497E+01 0.148E+01 0.198E+02   0.498E+01 -.148E+01 -.198E+02   -.451E-02 0.767E-02 -.958E-02
   -.647E+00 -.255E+00 0.153E+02   0.654E+00 0.252E+00 -.153E+02   -.293E-02 0.127E-02 0.136E-02
   0.299E+00 0.225E+01 0.159E+02   -.297E+00 -.225E+01 -.159E+02   -.476E-02 0.285E-02 0.923E-02
   -.964E+00 -.595E+01 0.214E+02   0.959E+00 0.596E+01 -.214E+02   0.945E-02 -.450E-02 0.139E-02
   -.511E+00 -.337E+01 0.172E+02   0.505E+00 0.337E+01 -.172E+02   0.251E-02 -.312E-02 -.133E-02
   0.550E+01 -.243E+01 0.228E+02   -.550E+01 0.243E+01 -.228E+02   0.119E-02 -.488E-02 -.229E-01
   0.367E+01 -.305E+01 0.200E+02   -.368E+01 0.305E+01 -.200E+02   -.666E-02 0.548E-02 -.778E-02
   -.109E+01 0.207E+01 0.346E+02   0.109E+01 -.207E+01 -.346E+02   -.134E-01 0.134E-01 0.163E-01
   -.148E+01 -.325E+01 0.340E+02   0.148E+01 0.326E+01 -.340E+02   0.142E-01 -.192E-01 0.375E-02
   0.193E+01 -.767E+00 0.167E+02   -.193E+01 0.765E+00 -.167E+02   0.184E-02 -.185E-02 -.659E-02
   0.439E+00 0.170E+01 0.167E+02   -.436E+00 -.170E+01 -.167E+02   -.762E-02 0.479E-02 0.285E-02
   -.638E+01 0.879E+00 0.254E+02   0.639E+01 -.885E+00 -.254E+02   0.585E-02 0.111E-01 -.350E-02
   -.611E+01 -.243E+01 0.241E+02   0.612E+01 0.243E+01 -.241E+02   -.144E-01 0.112E-01 0.373E-02
   0.218E+01 -.436E+01 0.206E+02   -.218E+01 0.436E+01 -.206E+02   0.768E-02 0.131E-02 -.116E-01
   0.190E+00 -.184E+01 0.175E+02   -.193E+00 0.184E+01 -.175E+02   -.356E-02 0.265E-02 -.571E-02
   -.451E+01 -.471E+01 0.273E+02   0.451E+01 0.471E+01 -.273E+02   -.162E-01 -.107E-01 -.380E-02
   -.306E+01 -.567E+01 0.220E+02   0.307E+01 0.568E+01 -.220E+02   0.680E-03 -.549E-02 0.629E-02
   0.253E+00 0.101E+01 0.158E+02   -.256E+00 -.101E+01 -.158E+02   0.735E-02 -.565E-02 0.548E-02
   0.656E+00 0.988E+00 0.165E+02   -.660E+00 -.986E+00 -.165E+02   -.140E-02 0.380E-02 -.355E-02
   -.255E+01 0.404E+00 0.174E+02   0.255E+01 -.406E+00 -.174E+02   0.389E-02 -.175E-02 0.273E-02
   -.226E+01 -.955E+00 0.171E+02   0.226E+01 0.954E+00 -.171E+02   -.666E-02 0.377E-02 0.151E-02
   -.438E+01 -.228E+01 0.188E+02   0.439E+01 0.228E+01 -.188E+02   -.537E-02 0.168E-02 0.320E-02
   -.278E+01 -.222E+01 0.169E+02   0.278E+01 0.222E+01 -.169E+02   -.649E-02 0.151E-02 0.963E-02
   -.254E+01 -.327E+01 0.177E+02   0.254E+01 0.327E+01 -.177E+02   -.504E-02 -.113E-02 0.649E-02
   -.385E+00 -.841E+00 0.160E+02   0.386E+00 0.842E+00 -.160E+02   0.236E-02 -.205E-03 0.817E-02
   0.953E+00 0.237E+01 0.164E+02   -.953E+00 -.237E+01 -.164E+02   -.450E-02 0.358E-02 0.786E-02
   0.295E+01 0.461E+01 0.192E+02   -.295E+01 -.461E+01 -.192E+02   0.170E-02 0.128E-02 0.105E-01
   0.265E+00 0.401E+01 0.174E+02   -.259E+00 -.401E+01 -.174E+02   -.290E-02 0.352E-02 0.117E-02
   -.735E-01 0.630E+01 0.219E+02   0.796E-01 -.631E+01 -.219E+02   -.121E-01 0.546E-02 0.628E-02
   -.756E+00 0.145E+01 0.173E+02   0.758E+00 -.146E+01 -.173E+02   0.327E-02 -.276E-02 -.220E-02
   -.294E+01 0.363E+01 0.194E+02   0.295E+01 -.363E+01 -.194E+02   -.902E-02 0.184E-02 -.613E-02
   -.650E+00 -.168E+01 0.166E+02   0.648E+00 0.168E+01 -.166E+02   0.868E-02 -.215E-02 0.371E-02
   -.152E+01 0.576E+00 0.159E+02   0.152E+01 -.575E+00 -.159E+02   -.195E-02 0.281E-02 -.566E-02
   0.158E+00 -.105E+01 0.159E+02   -.160E+00 0.105E+01 -.159E+02   0.583E-02 -.381E-02 0.593E-02
   0.166E+01 0.119E+01 0.160E+02   -.167E+01 -.119E+01 -.160E+02   0.253E-02 0.111E-02 0.304E-02
   0.202E-01 0.150E-02 -.258E+03   -.241E-01 0.221E-02 0.258E+03   -.329E-02 0.188E-02 -.359E-02
   -.229E+03 0.156E+03 -.399E+03   0.279E+03 -.190E+03 0.402E+03   -.510E+02 0.347E+02 -.342E+01
   0.229E+03 -.156E+03 -.379E+03   -.279E+03 0.190E+03 0.376E+03   0.510E+02 -.347E+02 0.308E+01
 -----------------------------------------------------------------------------------------------
   -.597E-02 0.129E-01 0.339E+00   0.000E+00 0.284E-13 0.455E-12   0.566E-02 -.128E-01 -.337E+00
 
 
 POSITION                                       TOTAL-FORCE (eV/Angst)
 -----------------------------------------------------------------------------------
     11.98348      0.00342      0.01417         0.003033     -0.001232     -0.000567
     -0.34154      1.42665      0.01100        -0.001376     -0.000055     -0.002659
      2.12355      0.00315      0.01249        -0.001305      0.009550     -0.005005
      2.12326      1.42653      0.00641         0.012032      0.001038     -0.006417
     10.75099      2.13819      0.01213         0.000183     -0.005234      0.000265
     -1.57382      3.56123      0.01110        -0.008232      0.005064     -0.001168
      0.89078      2.13854      0.00548         0.008509     -0.017784      0.003080
      0.89099      3.56147      0.00181        -0.012778     -0.001778      0.011639
      4.58864      0.00346      0.01135         0.004178     -0.016553     -0.002792
      4.58894      1.42623      0.00646        -0.021922      0.012311      0.014482
      9.51854      4.27281      0.01369         0.006868     -0.003383      0.000441
     -2.80632      5.69591      0.01434        -0.006308      0.003310      0.000970
      2.12300      4.27302      0.00000         0.023292     -0.004273      0.020352
      2.12335      5.69594      0.00581        -0.001082      0.009797     -0.002313
      7.05344      0.00333      0.01399         0.008955     -0.005018     -0.000051
      7.05353      1.42635      0.01368        -0.001529      0.004649     -0.003202
      8.28610      6.40752      0.01601         0.003327     -0.001590     -0.000457
     -4.03885      7.83070      0.01636        -0.001947      0.000923      0.000250
      3.35586      6.40753      0.01007         0.004646      0.000425     -0.000954
      3.35599      7.83072      0.01320        -0.003431      0.000331     -0.000295
     -0.34146      4.27290      0.00723        -0.002037     -0.001190     -0.004198
     -0.34138      5.69591      0.00946        -0.008840      0.005974     -0.000910
      3.35624      2.13791      0.00222        -0.012446      0.011164      0.017517
      3.35573      3.56155      0.00139         0.012678     -0.014797      0.009849
     -1.57395      6.40758      0.01311         0.005987     -0.004124     -0.000374
     -1.57385      7.83068      0.01438        -0.004628      0.003707      0.000371
      5.82093      2.13784      0.01033         0.016886      0.004825     -0.002219
      5.82114      3.56097      0.01156        -0.005572      0.007559     -0.002736
      0.89092      6.40755      0.00907         0.004197      0.002093     -0.001968
      0.89106      7.83068      0.01235        -0.007047      0.003416      0.000588
      4.58871      4.27293      0.00850        -0.011667     -0.006209     -0.009183
      4.58852      5.69606      0.01149         0.001689     -0.000141     -0.003116
      9.51845      0.00337      0.01490         0.004586     -0.004592      0.000435
      9.51855      1.42644      0.01438        -0.005058      0.005764     -0.000021
      8.28593      2.13803      0.01453         0.006244     -0.003632      0.000929
      8.28613      3.56115      0.01464        -0.004114      0.001980      0.000342
      7.05356      4.27269      0.01457         0.003241     -0.001049      0.000007
      7.05362      5.69588      0.01553        -0.002338      0.001317      0.000268
      5.82112      6.40755      0.01489        -0.002510      0.001729      0.000438
      5.82102      7.83073      0.01579         0.002577      0.000493      0.000040
      7.05363      8.54227      0.01631        -0.004531      0.000915      0.001473
     -5.27149      9.96549      0.01495        -0.000440     -0.002265     -0.001413
     -2.80638      8.54234      0.01558         0.003448     -0.001740     -0.000605
     -2.80627      9.96553      0.01362        -0.005750     -0.000164     -0.003022
     -0.34149      8.54239      0.01378         0.005869     -0.004492      0.000564
     -0.34138      9.96550      0.01354        -0.005655      0.000007     -0.000777
      2.12343      8.54232      0.01336         0.005645     -0.001522      0.000960
      2.12354      9.96544      0.01469        -0.005618      0.003992     -0.001573
      4.58846      8.54235      0.01505         0.003577     -0.002849      0.001243
      4.58853      9.96550      0.01517        -0.003192      0.003387      0.000514
      3.04930      2.68154      5.29732        -0.006962      0.005521      0.019305
      4.02070      2.02068      5.36174        -0.250219      0.169767     -0.039713
      2.07767      3.34267      5.23786         0.256886     -0.175341     -0.008616
 -----------------------------------------------------------------------------------
    total drift:                               -0.000308      0.000018      0.001584


--------------------------------------------------------------------------------------------------------



  FREE ENERGIE OF THE ION-ELECTRON SYSTEM (eV)
  ---------------------------------------------------
  free  energy   TOTEN  =      -470.56985898 eV

  energy  without entropy=     -470.56985898  energy(sigma->0) =     -470.56985898
 


--------------------------------------------------------------------------------------------------------


    POTLOK:  cpu time    0.2748: real time    0.2768


--------------------------------------------------------------------------------------------------------


     LOOP+:  cpu time  108.2922: real time  109.9469
    4ORBIT:  cpu time    0.0000: real time    0.0000

 total amount of memory used by VASP MPI-rank0   175916. kBytes
=======================================================================

   base      :      30000. kBytes
   nonl-proj :      46129. kBytes
   fftplans  :      35778. kBytes
   grid      :      52596. kBytes
   one-center:         43. kBytes
   wavefun   :      11370. kBytes
 
  
  
 General timing and accounting informations for this job:
 ========================================================
  
                  Total CPU time used (sec):      144.265
                            User time (sec):      133.806
                          System time (sec):       10.459
                         Elapsed time (sec):      147.734
  
                   Maximum memory used (kb):      517180.
                   Average memory used (kb):          N/A
  
                          Minor page faults:        52742
                          Major page faults:          102
                 Voluntary context switches:         3680
