 vasp.6.2.1 16May21 (build Nov 06 2021 14:46:37) complex                        
  
 executed on             LinuxIFC date 2025.03.03  18:03:37
 running on  112 total cores
 distrk:  each k-point on  112 cores,    1 groups
 distr:  one band on NCORE=   4 cores,   28 groups


--------------------------------------------------------------------------------------------------------


 INCAR:
   ALGO = Conjugate
   NCORE = 4
   ISMEAR = 0
   SIGMA = 0.01
   PREC = Accurate
   EDIFF = 1E-6
   ENCUT = 1000
   ISIF = 0
   GGA = RE
   IVDW = 11
   LWAVE = .FALSE.
   LCHARGE = .FALSE.
   SYMPREC = 1E-6

 POTCAR:    PAW_PBE C_h 06Feb2004                 
 POTCAR:    PAW_PBE O_h 06Feb2004                 
 -----------------------------------------------------------------------------
|                                                                             |
|           W    W    AA    RRRRR   N    N  II  N    N   GGGG   !!!           |
|           W    W   A  A   R    R  NN   N  II  NN   N  G    G  !!!           |
|           W    W  A    A  R    R  N N  N  II  N N  N  G       !!!           |
|           W WW W  AAAAAA  RRRRR   N  N N  II  N  N N  G  GGG   !            |
|           WW  WW  A    A  R   R   N   NN  II  N   NN  G    G                |
|           W    W  A    A  R    R  N    N  II  N    N   GGGG   !!!           |
|                                                                             |
|     For optimal performance we recommend to set                             |
|       NCORE = 2 up to number-of-cores-per-socket                            |
|     NCORE specifies how many cores store one orbital (NPAR=cpu/NCORE).      |
|     This setting can greatly improve the performance of VASP for DFT.       |
|     The default, NCORE=1 might be grossly inefficient on modern             |
|     multi-core architectures or massively parallel machines. Do your        |
|     own testing! More info at https://www.vasp.at/wiki/index.php/NCORE      |
|     Unfortunately you need to use the default for GW and RPA                |
|     calculations (for HF NCORE is supported but not extensively tested      |
|     yet).                                                                   |
|                                                                             |
 -----------------------------------------------------------------------------

 POTCAR:    PAW_PBE C_h 06Feb2004                 
   VRHFIN =C: s2p2                                                                                  
   LEXCH  = PE                                                                                      
   EATOM  =   147.1560 eV,   10.8157 Ry                                                             
                                                                                                    
   TITEL  = PAW_PBE C_h 06Feb2004                                                                   
   LULTRA =        F    use ultrasoft PP ?                                                          
   IUNSCR =        1    unscreen: 0-lin 1-nonlin 2-no                                               
   RPACOR =    0.800    partial core radius                                                         
   POMASS =   12.011; ZVAL   =    4.000    mass and valenz                                          
   RCORE  =    1.100    outmost cutoff radius                                                       
   RWIGS  =    1.630; RWIGS  =    0.863    wigner-seitz radius (au A)                               
   ENMAX  =  700.000; ENMIN  =  500.000 eV                                                          
   ICORE  =        2    local potential                                                             
   LCOR   =        T    correct aug charges                                                         
   LPAW   =        T    paw PP                                                                      
   EAUG   =  946.768                                                                                
   DEXC   =    0.000                                                                                
   RMAX   =    1.128    core radius for proj-oper                                                   
   RAUG   =    1.300    factor for augmentation sphere                                              
   RDEP   =    1.162    radius for radial grids                                                     
   RDEPT  =    1.088    core radius for aug-charge                                                  
                                                                                                    
   Atomic configuration                                                                             
    4 entries                                                                                       
     n  l   j            E        occ.                                                              
     1  0  0.50      -273.3789   2.0000                                                             
     2  0  0.50       -13.7508   2.0000                                                             
     2  1  0.50        -5.2854   2.0000                                                             
     3  2  1.50        -5.4423   0.0000                                                             
   Description                                                                                      
     l       E           TYP  RCUT    TYP  RCUT                                                     
     0    -13.7508458     23  1.100                                                                 
     0     -8.2022199     23  1.100                                                                 
     1     -5.2854383     23  1.100                                                                 
     1      1.1560700     23  1.100                                                                 
     2     -5.4423304      7  1.100                                                                 
  local pseudopotential read in
  partial core-charges read in
  partial kinetic energy density read in
  atomic valenz-charges read in
  non local Contribution for L=           0  read in
    real space projection operators read in
  non local Contribution for L=           0  read in
    real space projection operators read in
  non local Contribution for L=           1  read in
    real space projection operators read in
  non local Contribution for L=           1  read in
    real space projection operators read in
    PAW grid and wavefunctions read in
 
   number of l-projection  operators is LMAX  =           4
   number of lm-projection operators is LMMAX =           8
 
 POTCAR:    PAW_PBE O_h 06Feb2004                 
   VRHFIN =O: s2p4                                                                                  
   LEXCH  = PE                                                                                      
   EATOM  =   432.3788 eV,   31.7789 Ry                                                             
                                                                                                    
   TITEL  = PAW_PBE O_h 06Feb2004                                                                   
   LULTRA =        F    use ultrasoft PP ?                                                          
   IUNSCR =        1    unscreen: 0-lin 1-nonlin 2-no                                               
   RPACOR =    0.800    partial core radius                                                         
   POMASS =   16.000; ZVAL   =    6.000    mass and valenz                                          
   RCORE  =    1.100    outmost cutoff radius                                                       
   RWIGS  =    1.400; RWIGS  =    0.741    wigner-seitz radius (au A)                               
   ENMAX  =  700.000; ENMIN  =  500.000 eV                                                          
   ICORE  =        2    local potential                                                             
   LCOR   =        T    correct aug charges                                                         
   LPAW   =        T    paw PP                                                                      
   EAUG   =  888.804                                                                                
   DEXC   =    0.000                                                                                
   RMAX   =    1.128    core radius for proj-oper                                                   
   RAUG   =    1.300    factor for augmentation sphere                                              
   RDEP   =    1.125    radius for radial grids                                                     
   RDEPT  =    1.088    core radius for aug-charge                                                  
                                                                                                    
   Atomic configuration                                                                             
    4 entries                                                                                       
     n  l   j            E        occ.                                                              
     1  0  0.50      -514.6923   2.0000                                                             
     2  0  0.50       -23.9615   2.0000                                                             
     2  1  0.50        -9.0305   4.0000                                                             
     3  2  1.50        -9.5241   0.0000                                                             
   Description                                                                                      
     l       E           TYP  RCUT    TYP  RCUT                                                     
     0    -23.9615319     23  1.100                                                                 
     0    -25.3221145     23  1.100                                                                 
     1     -9.0304911     23  1.100                                                                 
     1     -5.4802209     23  1.100                                                                 
     2     -9.5240782      7  1.100                                                                 
  local pseudopotential read in
  partial core-charges read in
  partial kinetic energy density read in
  atomic valenz-charges read in
  non local Contribution for L=           0  read in
    real space projection operators read in
  non local Contribution for L=           0  read in
    real space projection operators read in
  non local Contribution for L=           1  read in
    real space projection operators read in
  non local Contribution for L=           1  read in
    real space projection operators read in
    PAW grid and wavefunctions read in
 
   number of l-projection  operators is LMAX  =           4
   number of lm-projection operators is LMMAX =           8
 
 -----------------------------------------------------------------------------
|                                                                             |
|               ----> ADVICE to this user running VASP <----                  |
|                                                                             |
|     You have a (more or less) 'large supercell' and for larger cells it     |
|     might be more efficient to use real-space projection operators.         |
|     Therefore, try LREAL= Auto in the INCAR file.                           |
|     Mind: For very accurate calculation, you might also keep the            |
|     reciprocal projection scheme (i.e. LREAL=.FALSE.).                      |
|                                                                             |
 -----------------------------------------------------------------------------

 -----------------------------------------------------------------------------
|                                                                             |
|               ----> ADVICE to this user running VASP <----                  |
|                                                                             |
|     You enforced a specific xc type in the INCAR file but a different       |
|     type was found in the POTCAR file.                                      |
|     I HOPE YOU KNOW WHAT YOU ARE DOING!                                     |
|                                                                             |
 -----------------------------------------------------------------------------

  PAW_PBE C_h 06Feb2004                 :
 energy of atom  1       EATOM= -147.1560
 kinetic energy error for atom=    0.0031 (will be added to EATOM!!)
  PAW_PBE O_h 06Feb2004                 :
 energy of atom  2       EATOM= -432.3788
 kinetic energy error for atom=    0.0171 (will be added to EATOM!!)
 
 
 POSCAR:  C  O
  positions in cartesian coordinates
  No initial velocities read in
 exchange correlation table for  LEXCH =       40
   RHO(1)=    0.500       N(1)  =     2000
   RHO(2)=  100.500       N(2)  =     4000
 


--------------------------------------------------------------------------------------------------------


 ion  position               nearest neighbor table
   1  0.972  0.000  0.001-  50 1.42   2 1.42  42 1.42
   2  0.039  0.134  0.001-   5 1.42   7 1.42   1 1.42
   3  0.172  0.000  0.001-  42 1.42  44 1.42   4 1.42
   4  0.239  0.134  0.000-   7 1.42   3 1.42  23 1.42
   5  0.972  0.200  0.001-   6 1.42   2 1.42  34 1.42
   6  0.039  0.334  0.001-   5 1.42  21 1.42  11 1.42
   7  0.172  0.200  0.000-   8 1.42   2 1.42   4 1.42
   8  0.239  0.334  0.000-  13 1.42   7 1.42  21 1.42
   9  0.372  0.000  0.001-  10 1.42  44 1.42  46 1.42
  10  0.439  0.134  0.000-  27 1.42   9 1.42  23 1.42
  11  0.972  0.400  0.001-  12 1.42  36 1.42   6 1.42
  12  0.039  0.534  0.001-  25 1.42  11 1.42  17 1.42
  13  0.372  0.400  0.000-   8 1.42  14 1.42  24 1.42
  14  0.439  0.534  0.000-  13 1.42  29 1.42  19 1.42
  15  0.572  0.000  0.001-  46 1.42  16 1.42  48 1.42
  16  0.639  0.134  0.001-  15 1.42  35 1.42  27 1.42
  17  0.972  0.600  0.001-  38 1.42  18 1.42  12 1.42
  18  0.039  0.734  0.001-  43 1.42  41 1.42  17 1.42
  19  0.572  0.600  0.001-  14 1.42  20 1.42  32 1.42
  20  0.639  0.734  0.001-  49 1.42  19 1.42  47 1.42
  21  0.172  0.400  0.000-  22 1.42   8 1.42   6 1.42
  22  0.239  0.534  0.000-  21 1.42  29 1.42  25 1.42
  23  0.372  0.200  0.000-  10 1.42   4 1.42  24 1.42
  24  0.439  0.334  0.000-  13 1.42  31 1.42  23 1.42
  25  0.172  0.600  0.001-  26 1.42  12 1.42  22 1.42
  26  0.239  0.734  0.001-  25 1.42  45 1.42  43 1.42
  27  0.572  0.200  0.001-  10 1.42  28 1.42  16 1.42
  28  0.639  0.334  0.001-  27 1.42  37 1.42  31 1.42
  29  0.372  0.600  0.000-  22 1.42  14 1.42  30 1.42
  30  0.439  0.734  0.001-  47 1.42  29 1.42  45 1.42
  31  0.572  0.400  0.000-  32 1.42  28 1.42  24 1.42
  32  0.639  0.534  0.001-  31 1.42  39 1.42  19 1.42
  33  0.772  0.000  0.001-  34 1.42  48 1.42  50 1.42
  34  0.839  0.134  0.001-  33 1.42   5 1.42  35 1.42
  35  0.772  0.200  0.001-  36 1.42  16 1.42  34 1.42
  36  0.839  0.334  0.001-  35 1.42  11 1.42  37 1.42
  37  0.772  0.400  0.001-  28 1.42  38 1.42  36 1.42
  38  0.839  0.534  0.001-  17 1.42  37 1.42  39 1.42
  39  0.772  0.600  0.001-  40 1.42  38 1.42  32 1.42
  40  0.839  0.734  0.001-  39 1.42  49 1.42  41 1.42
  41  0.972  0.800  0.001-  18 1.42  42 1.42  40 1.42
  42  0.039  0.934  0.001-   3 1.42  41 1.42   1 1.42
  43  0.172  0.800  0.001-  18 1.42  44 1.42  26 1.42
  44  0.239  0.934  0.001-   9 1.42  43 1.42   3 1.42
  45  0.372  0.800  0.001-  26 1.42  46 1.42  30 1.42
  46  0.439  0.934  0.001-  15 1.42  45 1.42   9 1.42
  47  0.572  0.800  0.001-  30 1.42  48 1.42  20 1.42
  48  0.639  0.934  0.001-  47 1.42  33 1.42  15 1.42
  49  0.772  0.800  0.001-  50 1.42  20 1.42  40 1.42
  50  0.839  0.934  0.001-  49 1.42   1 1.42  33 1.42
  51  0.373  0.251  0.445-  52 1.18  53 1.18
  52  0.421  0.189  0.449-  51 1.18
  53  0.325  0.313  0.442-  51 1.18
 
  LATTYP: Found a hexagonal cell.
 ALAT       =    12.3250000000
 C/A-ratio  =     1.6227180527
  
  Lattice vectors:
  
 A1 = (  12.3250000000,   0.0000000000,   0.0000000000)
 A2 = (  -6.1625000000,  10.6737631016,   0.0000000000)
 A3 = (   0.0000000000,   0.0000000000,  20.0000000000)


Analysis of symmetry for initial positions (statically):
=====================================================================
 Subroutine PRICEL returns:
 Original cell was already a primitive cell.
 

 Routine SETGRP: Setting up the symmetry group for a 
 hexagonal supercell.


 Subroutine GETGRP returns: Found  1 space group operations
 (whereof  1 operations were pure point group operations)
 out of a pool of 24 trial point group operations.


The static configuration has the point symmetry C_1 .


Analysis of symmetry for dynamics (positions and initial velocities):
=====================================================================
 Subroutine PRICEL returns:
 Original cell was already a primitive cell.
 

 Routine SETGRP: Setting up the symmetry group for a 
 hexagonal supercell.


 Subroutine GETGRP returns: Found  1 space group operations
 (whereof  1 operations were pure point group operations)
 out of a pool of 24 trial point group operations.


The dynamic configuration has the point symmetry C_1 .


 Subroutine INISYM returns: Found  1 space group operations
 (whereof  1 operations are pure point group operations),
 and found     1 'primitive' translations


----------------------------------------------------------------------------------------

                                     Primitive cell                                     

  volume of cell :    2631.0826

  direct lattice vectors                    reciprocal lattice vectors
    12.325000000  0.000000000  0.000000000     0.081135903  0.046843835  0.000000000
    -6.162500000 10.673763102  0.000000000     0.000000000  0.093687670  0.000000000
     0.000000000  0.000000000 20.000000000     0.000000000  0.000000000  0.050000000

  length of vectors
    12.325000000 12.325000000 20.000000000     0.093687670  0.093687670  0.050000000

  position of ions in fractional coordinates (direct lattice)
     0.972450841  0.000320818  0.000708389
     0.039118382  0.133659505  0.000550216
     0.172443627  0.000295449  0.000624535
     0.239096278  0.133647917  0.000320585
     0.972452058  0.200322012  0.000606523
     0.039128360  0.333643771  0.000555187
     0.172451764  0.200354552  0.000273959
     0.239124359  0.333665720  0.000090325
     0.372465565  0.000324403  0.000567391
     0.439137473  0.133619939  0.000322923
     0.972449824  0.400309362  0.000684513
     0.039124981  0.533636789  0.000716763
     0.372416176  0.400329481  0.000000000
     0.439099602  0.533638981  0.000290518
     0.572443676  0.000312125  0.000699475
     0.639110207  0.133631751  0.000684093
     0.972452703  0.600305653  0.000800361
     0.039124495  0.733640359  0.000818141
     0.572433471  0.600306242  0.000503618
     0.639111888  0.733641879  0.000659881
     0.172454630  0.400318228  0.000361306
     0.239120185  0.533636548  0.000473136
     0.372459750  0.200295993  0.000111246
     0.439107096  0.333673419  0.000069702
     0.172452155  0.600311506  0.000655425
     0.239123371  0.733638574  0.000718912
     0.572431082  0.200289171  0.000516621
     0.639112773  0.333618630  0.000577970
     0.372439808  0.600308022  0.000453556
     0.439116090  0.733637858  0.000617737
     0.572469358  0.400320504  0.000424897
     0.639119408  0.533650873  0.000574513
     0.772445723  0.000315427  0.000745201
     0.839116277  0.133640203  0.000719132
     0.772440513  0.200307432  0.000726291
     0.839120241  0.333635728  0.000731834
     0.772446320  0.400298367  0.000728722
     0.839118980  0.533633964  0.000776376
     0.772456143  0.600308173  0.000744639
     0.839115033  0.733643180  0.000789390
     0.972455313  0.800305582  0.000815291
     0.039114714  0.933643289  0.000747563
     0.172457971  0.800312211  0.000779216
     0.239134551  0.933647193  0.000681063
     0.372451396  0.800316674  0.000689249
     0.439124489  0.933644769  0.000676788
     0.572441101  0.800310054  0.000668168
     0.639115067  0.933638985  0.000734556
     0.772445098  0.800313187  0.000752577
     0.839116614  0.933644338  0.000758538
     0.373021009  0.251226878  0.445449359
     0.420879805  0.189313152  0.448670452
     0.325156981  0.313167186  0.442476615

  ion indices of the primitive-cell ions
   primitive index   ion index
                 1           1
                 2           2
                 3           3
                 4           4
                 5           5
                 6           6
                 7           7
                 8           8
                 9           9
                10          10
                11          11
                12          12
                13          13
                14          14
                15          15
                16          16
                17          17
                18          18
                19          19
                20          20
                21          21
                22          22
                23          23
                24          24
                25          25
                26          26
                27          27
                28          28
                29          29
                30          30
                31          31
                32          32
                33          33
                34          34
                35          35
                36          36
                37          37
                38          38
                39          39
                40          40
                41          41
                42          42
                43          43
                44          44
                45          45
                46          46
                47          47
                48          48
                49          49
                50          50
                51          51
                52          52
                53          53

----------------------------------------------------------------------------------------

 
 
 KPOINTS: auto                                    

Automatic generation of k-mesh.
 Grid dimensions read from file:
 generate k-points for:    1    1    1

 Generating k-lattice:

  Cartesian coordinates                     Fractional coordinates (reciprocal lattice)
     0.081135903  0.046843835  0.000000000     1.000000000 -0.000000000  0.000000000
     0.000000000  0.093687670  0.000000000     0.000000000  1.000000000  0.000000000
     0.000000000  0.000000000  0.050000000     0.000000000  0.000000000  1.000000000

  Length of vectors
     0.093687670  0.093687670  0.050000000

  Shift w.r.t. Gamma in fractional coordinates (k-lattice)
     0.000000000  0.000000000  0.000000000

 
 Subroutine IBZKPT returns following result:
 ===========================================
 
 Found      1 irreducible k-points:
 
 Following reciprocal coordinates:
            Coordinates               Weight
  0.000000  0.000000  0.000000      1.000000
 
 Following cartesian coordinates:
            Coordinates               Weight
  0.000000  0.000000  0.000000      1.000000
 


--------------------------------------------------------------------------------------------------------




 Dimension of arrays:
   k-points           NKPTS =      1   k-points in BZ     NKDIM =      1   number of bands    NBANDS=    140
   number of dos      NEDOS =    301   number of ions     NIONS =     53
   non local maximal  LDIM  =      4   non local SUM 2l+1 LMDIM =      8
   total plane-waves  NPLWV = ******
   max r-space proj   IRMAX =      1   max aug-charges    IRDMAX=   9736
   dimension x,y,z NGX =   128 NGY =  128 NGZ =  210
   dimension x,y,z NGXF=   256 NGYF=  256 NGZF=  420
   support grid    NGXF=   256 NGYF=  256 NGZF=  420
   ions per type =              51   2
   NGX,Y,Z   is equivalent  to a cutoff of  17.27, 17.27, 17.46 a.u.
   NGXF,Y,Z  is equivalent  to a cutoff of  34.53, 34.53, 34.91 a.u.

 SYSTEM =  unknown system                          
 POSCAR =   C  O                                   

 Startparameter for this run:
   NWRITE =      2    write-flag & timer
   PREC   = accura    normal or accurate (medium, high low for compatibility)
   ISTART =      0    job   : 0-new  1-cont  2-samecut
   ICHARG =      2    charge: 1-file 2-atom 10-const
   ISPIN  =      1    spin polarized calculation?
   LNONCOLLINEAR =      F non collinear calculations
   LSORBIT =      F    spin-orbit coupling
   INIWAV =      1    electr: 0-lowe 1-rand  2-diag
   LASPH  =      F    aspherical Exc in radial PAW
 Electronic Relaxation 1
   ENCUT  = 1000.0 eV  73.50 Ry    8.57 a.u.  31.78 31.78 51.57*2*pi/ulx,y,z
   ENINI  = 1000.0     initial cutoff
   ENAUG  =  946.8 eV  augmentation charge cutoff
   NELM   =     60;   NELMIN=  2; NELMDL= -5     # of ELM steps 
   EDIFF  = 0.1E-05   stopping-criterion for ELM
   LREAL  =      F    real-space projection
   NLSPLINE    = F    spline interpolate recip. space projectors
   LCOMPAT=      F    compatible to vasp.4.4
   GGA_COMPAT  = T    GGA compatible to vasp.4.4-vasp.4.6
   LMAXPAW     = -100 max onsite density
   LMAXMIX     =    2 max onsite mixed and CHGCAR
   VOSKOWN=      0    Vosko Wilk Nusair interpolation
   ROPT   =    0.00000   0.00000
 Ionic relaxation
   EDIFFG = 0.1E-04   stopping-criterion for IOM
   NSW    =      0    number of steps for IOM
   NBLOCK =      1;   KBLOCK =      1    inner block; outer block 
   IBRION =     -1    ionic relax: 0-MD 1-quasi-New 2-CG
   NFREE  =      0    steps in history (QN), initial steepest desc. (CG)
   ISIF   =      0    stress and relaxation
   IWAVPR =     10    prediction:  0-non 1-charg 2-wave 3-comb
   ISYM   =      2    0-nonsym 1-usesym 2-fastsym
   LCORR  =      T    Harris-Foulkes like correction to forces

   POTIM  = 0.5000    time-step for ionic-motion
   TEIN   =    0.0    initial temperature
   TEBEG  =    0.0;   TEEND  =   0.0 temperature during run
   SMASS  =  -3.00    Nose mass-parameter (am)
   estimated Nose-frequenzy (Omega)   =  0.10E-29 period in steps = 0.13E+47 mass=  -0.347E-26a.u.
   SCALEE = 1.0000    scale energy and forces
   NPACO  =    256;   APACO  = 16.0  distance and # of slots for P.C.
   PSTRESS=    0.0 pullay stress

  Mass of Ions in am
   POMASS =  12.01 16.00
  Ionic Valenz
   ZVAL   =   4.00  6.00
  Atomic Wigner-Seitz radii
   RWIGS  =  -1.00 -1.00
  virtual crystal weights 
   VCA    =   1.00  1.00
   NELECT =     216.0000    total number of electrons
   NUPDOWN=      -1.0000    fix difference up-down

 DOS related values:
   EMIN   =  10.00;   EMAX   =-10.00  energy-range for DOS
   EFERMI =   0.00
   ISMEAR =     0;   SIGMA  =   0.01  broadening in eV -4-tet -1-fermi 0-gaus

 Electronic relaxation 2 (details)
   IALGO  =     58    algorithm
   LDIAG  =      T    sub-space diagonalisation (order eigenvalues)
   LSUBROT=      F    optimize rotation matrix (better conditioning)
   TURBO    =      0    0=normal 1=particle mesh
   IRESTART =      0    0=no restart 2=restart with 2 vectors
   NREBOOT  =      0    no. of reboots
   NMIN     =      0    reboot dimension
   EREF     =   0.00    reference energy to select bands
   IMIX   =      4    mixing-type and parameters
     AMIX     =   0.40;   BMIX     =  1.00
     AMIX_MAG =   1.60;   BMIX_MAG =  1.00
     AMIN     =   0.10
     WC   =   100.;   INIMIX=   1;  MIXPRE=   1;  MAXMIX= -45

 Intra band minimization:
   WEIMIN = 0.0000     energy-eigenvalue tresh-hold
   EBREAK =  0.18E-08  absolut break condition
   DEPER  =   0.30     relativ break condition  

   TIME   =   0.40     timestep for ELM

  volume/ion in A,a.u.               =      49.64       335.01
  Fermi-wavevector in a.u.,A,eV,Ry     =   0.711510  1.344560  6.887909  0.506247
  Thomas-Fermi vector in A             =   1.798641
 
 Write flags
   LWAVE        =      F    write WAVECAR
   LDOWNSAMPLE  =      F    k-point downsampling of WAVECAR
   LCHARG       =      T    write CHGCAR
   LVTOT        =      F    write LOCPOT, total local potential
   LVHAR        =      F    write LOCPOT, Hartree potential only
   LELF         =      F    write electronic localiz. function (ELF)
   LORBIT       =      0    0 simple, 1 ext, 2 COOP (PROOUT), +10 PAW based schemes


 Dipole corrections
   LMONO  =      F    monopole corrections only (constant potential shift)
   LDIPOL =      F    correct potential (dipole corrections)
   IDIPOL =      0    1-x, 2-y, 3-z, 4-all directions 
   EPSILON=  1.0000000 bulk dielectric constant

 Exchange correlation treatment:
   GGA     =    RE    GGA type
   LEXCH   =    40    internal setting for exchange type
   VOSKOWN=      0    Vosko Wilk Nusair interpolation
   LHFCALC =     F    Hartree Fock is set to
   LHFONE  =     F    Hartree Fock one center treatment
   AEXX    =    0.0000 exact exchange contribution

 Linear response parameters
   LEPSILON=     F    determine dielectric tensor
   LRPA    =     F    only Hartree local field effects (RPA)
   LNABLA  =     F    use nabla operator in PAW spheres
   LVEL    =     F    velocity operator in full k-point grid
   LINTERFAST=   F  fast interpolation
   KINTER  =     0    interpolate to denser k-point grid
   CSHIFT  =0.1000    complex shift for real part using Kramers Kronig
   OMEGAMAX=  -1.0    maximum frequency
   DEG_THRESHOLD= 0.2000000E-02 threshold for treating states as degnerate
   RTIME   =   -0.100 relaxation time in fs
  (WPLASMAI=    0.000 imaginary part of plasma frequency in eV, 0.658/RTIME)
   DFIELD  = 0.0000000 0.0000000 0.0000000 field for delta impulse in time
 
 Orbital magnetization related:
   ORBITALMAG=     F  switch on orbital magnetization
   LCHIMAG   =     F  perturbation theory with respect to B field
   DQ        =  0.001000  dq finite difference perturbation B field
   LLRAUG    =     F  two centre corrections for induced B field



--------------------------------------------------------------------------------------------------------


 Static calculation
 charge density and potential will be updated during run
 non-spin polarized calculation
 Conjugate gradient for all bands (Freysoldt, et al. PRB 79, 241103 (2009))
 preconditioned conjugated gradient                                        
 perform sub-space diagonalisation
    before iterative eigenvector-optimisation
 modified Broyden-mixing scheme, WC =      100.0
 initial mixing is a Kerker type mixing with AMIX =  0.4000 and BMIX =      1.0000
 Hartree-type preconditioning will be used
 using additional bands           32
 reciprocal scheme for non local part
 use partial core corrections
 no Harris-corrections to forces 
 use gradient corrections 
 use of overlap-Matrix (Vanderbilt PP)
 Gauss-broadening in eV      SIGMA  =   0.01


--------------------------------------------------------------------------------------------------------


  energy-cutoff  :     1000.00
  volume of cell :     2631.08
      direct lattice vectors                 reciprocal lattice vectors
    12.325000000  0.000000000  0.000000000     0.081135903  0.046843835  0.000000000
    -6.162500000 10.673763102  0.000000000     0.000000000  0.093687670  0.000000000
     0.000000000  0.000000000 20.000000000     0.000000000  0.000000000  0.050000000

  length of vectors
    12.325000000 12.325000000 20.000000000     0.093687670  0.093687670  0.050000000


 
 k-points in units of 2pi/SCALE and weight: auto                                    
   0.00000000  0.00000000  0.00000000       1.000
 
 k-points in reciprocal lattice and weights: auto                                    
   0.00000000  0.00000000  0.00000000       1.000
 
 position of ions in fractional coordinates (direct lattice) 
   0.97245084  0.00032082  0.00070839
   0.03911838  0.13365950  0.00055022
   0.17244363  0.00029545  0.00062454
   0.23909628  0.13364792  0.00032058
   0.97245206  0.20032201  0.00060652
   0.03912836  0.33364377  0.00055519
   0.17245176  0.20035455  0.00027396
   0.23912436  0.33366572  0.00009033
   0.37246557  0.00032440  0.00056739
   0.43913747  0.13361994  0.00032292
   0.97244982  0.40030936  0.00068451
   0.03912498  0.53363679  0.00071676
   0.37241618  0.40032948  0.00000000
   0.43909960  0.53363898  0.00029052
   0.57244368  0.00031213  0.00069947
   0.63911021  0.13363175  0.00068409
   0.97245270  0.60030565  0.00080036
   0.03912449  0.73364036  0.00081814
   0.57243347  0.60030624  0.00050362
   0.63911189  0.73364188  0.00065988
   0.17245463  0.40031823  0.00036131
   0.23912018  0.53363655  0.00047314
   0.37245975  0.20029599  0.00011125
   0.43910710  0.33367342  0.00006970
   0.17245216  0.60031151  0.00065542
   0.23912337  0.73363857  0.00071891
   0.57243108  0.20028917  0.00051662
   0.63911277  0.33361863  0.00057797
   0.37243981  0.60030802  0.00045356
   0.43911609  0.73363786  0.00061774
   0.57246936  0.40032050  0.00042490
   0.63911941  0.53365087  0.00057451
   0.77244572  0.00031543  0.00074520
   0.83911628  0.13364020  0.00071913
   0.77244051  0.20030743  0.00072629
   0.83912024  0.33363573  0.00073183
   0.77244632  0.40029837  0.00072872
   0.83911898  0.53363396  0.00077638
   0.77245614  0.60030817  0.00074464
   0.83911503  0.73364318  0.00078939
   0.97245531  0.80030558  0.00081529
   0.03911471  0.93364329  0.00074756
   0.17245797  0.80031221  0.00077922
   0.23913455  0.93364719  0.00068106
   0.37245140  0.80031667  0.00068925
   0.43912449  0.93364477  0.00067679
   0.57244110  0.80031005  0.00066817
   0.63911507  0.93363899  0.00073456
   0.77244510  0.80031319  0.00075258
   0.83911661  0.93364434  0.00075854
   0.37302101  0.25122688  0.44544936
   0.42087980  0.18931315  0.44867045
   0.32515698  0.31316719  0.44247662
 
 position of ions in cartesian coordinates  (Angst):
  11.98347958  0.00342433  0.01416777
  -0.34154264  1.42664989  0.01100432
   2.12354700  0.00315355  0.01249070
   2.12325634  1.42652621  0.00641170
  10.75098721  2.13818970  0.01213047
  -1.57382270  3.56123457  0.01110375
   0.89078307  2.13853702  0.00547917
   0.89099273  3.56146885  0.00180651
   4.58863896  0.00346260  0.01134782
   4.58893648  1.42622757  0.00645846
   9.51853763  4.27280730  0.01369027
  -2.80632132  5.69591267  0.01433526
   2.12299894  4.27302204  0.00000000
   2.12335237  5.69593607  0.00581036
   7.05344483  0.00333155  0.01398950
   7.05352764  1.42635365  0.01368187
   8.28609598  6.40752033  0.01600723
  -4.03884931  7.83070339  0.01636283
   3.35585531  6.40752662  0.01007237
   3.35598594  7.83071962  0.01319763
  -0.34145776  4.27290193  0.00722612
  -0.34137895  5.69591010  0.00946273
   3.35624236  2.13791198  0.00222492
   3.35573251  3.56155103  0.00139405
  -1.57394684  6.40758280  0.01310850
  -1.57385216  7.83068434  0.01437823
   5.82093107  2.13783916  0.01033241
   5.82114012  3.56096622  0.01155939
   0.89092245  6.40754561  0.00907111
   0.89106251  7.83067670  0.01235474
   4.58870974  4.27292622  0.00849795
   4.58852320  5.69606300  0.01149026
   9.51844972  0.00336679  0.01490402
   9.51855036  1.42644387  0.01438264
   8.28593477  2.13803408  0.01452582
   8.28612680  3.56114872  0.01463668
   7.05356221  4.27268994  0.01457444
   7.05362213  5.69588251  0.01552751
   5.82112285  6.40754723  0.01489279
   5.82101669  7.83073350  0.01578780
   7.05362858  8.54227219  0.01630582
  -5.27148792  9.96548729  0.01495127
  -2.80637951  8.54234295  0.01558431
  -2.80626749  9.96552896  0.01362126
  -0.34148805  8.54239058  0.01378498
  -0.34137657  9.96550309  0.01353576
   2.12342586  8.54231992  0.01336337
   2.12354296  9.96544135  0.01469111
   4.58845581  8.54235337  0.01505154
   4.58852904  9.96549848  0.01517076
   3.04929830  2.68153618  8.90898718
   4.02070129  2.02068374  8.97340904
   2.07766701  3.34267235  8.84953231
 


--------------------------------------------------------------------------------------------------------


 k-point   1 :   0.0000 0.0000 0.0000  plane waves:  189031

 maximum and minimum number of plane-waves per node :     47262    47254

 maximum number of plane-waves:    189031
 maximum index in each direction: 
   IXMAX=   31   IYMAX=   31   IZMAX=   51
   IXMIN=  -31   IYMIN=  -31   IZMIN=  -51


 parallel 3D FFT for wavefunctions:
    minimum data exchange during FFTs selected (reduces bandwidth)
 parallel 3D FFT for charge:
    minimum data exchange during FFTs selected (reduces bandwidth)


 total amount of memory used by VASP MPI-rank0   175916. kBytes
=======================================================================

   base      :      30000. kBytes
   nonl-proj :      46129. kBytes
   fftplans  :      35778. kBytes
   grid      :      52596. kBytes
   one-center:         43. kBytes
   wavefun   :      11370. kBytes
 
     INWAV:  cpu time    0.0000: real time    0.0000
 Broyden mixing: mesh for mixing (old mesh)
   NGX = 63   NGY = 63   NGZ =103
  (NGX  =256   NGY  =256   NGZ  =420)
  gives a total of 408807 points

 initial charge density was supplied:
 charge density of overlapping atoms calculated
 number of electron     216.0000000 magnetization 
 keeping initial charge density in first step


--------------------------------------------------------------------------------------------------------


 Maximum index for augmentation-charges          459 (set IRDMAX)


--------------------------------------------------------------------------------------------------------


 First call to EWALD:  gamma=   0.128
 Maximum number of real-space cells 3x 3x 2
 Maximum number of reciprocal cells 3x 3x 4

    FEWALD:  cpu time    0.0022: real time    0.0022


--------------------------------------- Iteration      1(   1)  ---------------------------------------


    POTLOK:  cpu time    0.3077: real time    0.3107
    SETDIJ:  cpu time    0.0045: real time    0.0046
    TRIAL :  cpu time    4.1693: real time    4.2216
    CORREC:  cpu time    0.0006: real time    0.0006
    --------------------------------------------
      LOOP:  cpu time    4.4866: real time    4.5510

 eigenvalue-minimisations  :   280
 total energy-change (2. order) : 0.2662934E+04  (-0.1113781E+05)
 number of electron     216.0000000 magnetization 
 augmentation part      216.0000000 magnetization 

 Free energy of the ion-electron system (eV)
  ---------------------------------------------------
  alpha Z        PSCENC =        59.93625244
  Ewald energy   TEWEN  =     29343.19250866
  -Hartree energ DENC   =    -35518.65041254
  -exchange      EXHF   =         0.00000000
  -V(xc)+E(xc)   XCENC  =       415.89498771
  PAW double counting   =      6538.03749920    -6258.26020123
  entropy T*S    EENTRO =        -0.00000000
  eigenvalues    EBANDS =      -281.52549295
  atomic energy  EATOM  =      8364.30921166
  ---------------------------------------------------
  free energy    TOTEN  =      2662.93435295 eV

  energy without entropy =     2662.93435295  energy(sigma->0) =     2662.93435295


--------------------------------------------------------------------------------------------------------




--------------------------------------- Iteration      1(   2)  ---------------------------------------


    TRIAL :  cpu time    6.6532: real time    6.7381
    CORREC:  cpu time    0.0001: real time    0.0001
    --------------------------------------------
      LOOP:  cpu time    6.7463: real time    6.8331

 eigenvalue-minimisations  :   504
 total energy-change (2. order) :-0.2470815E+04  (-0.2354497E+04)
 number of electron     216.0000000 magnetization 
 augmentation part      216.0000000 magnetization 

 Free energy of the ion-electron system (eV)
  ---------------------------------------------------
  alpha Z        PSCENC =        59.93625244
  Ewald energy   TEWEN  =     29343.19250866
  -Hartree energ DENC   =    -35518.65041254
  -exchange      EXHF   =         0.00000000
  -V(xc)+E(xc)   XCENC  =       415.89498771
  PAW double counting   =      6538.03749920    -6258.26020123
  entropy T*S    EENTRO =        -0.00000000
  eigenvalues    EBANDS =     -2752.34026325
  atomic energy  EATOM  =      8364.30921166
  ---------------------------------------------------
  free energy    TOTEN  =       192.11958265 eV

  energy without entropy =      192.11958265  energy(sigma->0) =      192.11958265


--------------------------------------------------------------------------------------------------------




--------------------------------------- Iteration      1(   3)  ---------------------------------------


    TRIAL :  cpu time    5.0889: real time    5.1452
    CORREC:  cpu time    0.0001: real time    0.0003
    --------------------------------------------
      LOOP:  cpu time    5.1361: real time    5.1940

 eigenvalue-minimisations  :   364
 total energy-change (2. order) :-0.6574333E+03  (-0.6544988E+03)
 number of electron     216.0000000 magnetization 
 augmentation part      216.0000000 magnetization 

 Free energy of the ion-electron system (eV)
  ---------------------------------------------------
  alpha Z        PSCENC =        59.93625244
  Ewald energy   TEWEN  =     29343.19250866
  -Hartree energ DENC   =    -35518.65041254
  -exchange      EXHF   =         0.00000000
  -V(xc)+E(xc)   XCENC  =       415.89498771
  PAW double counting   =      6538.03749920    -6258.26020123
  entropy T*S    EENTRO =        -0.00000000
  eigenvalues    EBANDS =     -3409.77354855
  atomic energy  EATOM  =      8364.30921166
  ---------------------------------------------------
  free energy    TOTEN  =      -465.31370265 eV

  energy without entropy =     -465.31370265  energy(sigma->0) =     -465.31370265


--------------------------------------------------------------------------------------------------------




--------------------------------------- Iteration      1(   4)  ---------------------------------------


    TRIAL :  cpu time    5.4040: real time    5.4609
    CORREC:  cpu time    0.0001: real time    0.0001
    --------------------------------------------
      LOOP:  cpu time    5.5159: real time    5.5778

 eigenvalue-minimisations  :   392
 total energy-change (2. order) :-0.3262396E+02  (-0.3250535E+02)
 number of electron     216.0000000 magnetization 
 augmentation part      216.0000000 magnetization 

 Free energy of the ion-electron system (eV)
  ---------------------------------------------------
  alpha Z        PSCENC =        59.93625244
  Ewald energy   TEWEN  =     29343.19250866
  -Hartree energ DENC   =    -35518.65041254
  -exchange      EXHF   =         0.00000000
  -V(xc)+E(xc)   XCENC  =       415.89498771
  PAW double counting   =      6538.03749920    -6258.26020123
  entropy T*S    EENTRO =        -0.00000000
  eigenvalues    EBANDS =     -3442.39750407
  atomic energy  EATOM  =      8364.30921166
  ---------------------------------------------------
  free energy    TOTEN  =      -497.93765817 eV

  energy without entropy =     -497.93765817  energy(sigma->0) =     -497.93765817


--------------------------------------------------------------------------------------------------------




--------------------------------------- Iteration      1(   5)  ---------------------------------------


    TRIAL :  cpu time    5.7089: real time    5.7710
    CORREC:  cpu time    0.0001: real time    0.0003
    CHARGE:  cpu time    0.2318: real time    0.2358
    --------------------------------------------
      LOOP:  cpu time    5.9918: real time    6.0591

 eigenvalue-minimisations  :   420
 total energy-change (2. order) :-0.6871169E+00  (-0.6855109E+00)
 number of electron     216.0000000 magnetization 
 augmentation part       -0.3106381 magnetization 

 Free energy of the ion-electron system (eV)
  ---------------------------------------------------
  alpha Z        PSCENC =        59.93625244
  Ewald energy   TEWEN  =     29343.19250866
  -Hartree energ DENC   =    -35518.65041254
  -exchange      EXHF   =         0.00000000
  -V(xc)+E(xc)   XCENC  =       415.89498771
  PAW double counting   =      6538.03749920    -6258.26020123
  entropy T*S    EENTRO =        -0.00000000
  eigenvalues    EBANDS =     -3443.08462095
  atomic energy  EATOM  =      8364.30921166
  ---------------------------------------------------
  free energy    TOTEN  =      -498.62477505 eV

  energy without entropy =     -498.62477505  energy(sigma->0) =     -498.62477505


--------------------------------------------------------------------------------------------------------




--------------------------------------- Iteration      1(   6)  ---------------------------------------


    POTLOK:  cpu time    0.2756: real time    0.2779
    SETDIJ:  cpu time    0.0028: real time    0.0028
    TRIAL :  cpu time    2.0206: real time    2.0420
    CORREC:  cpu time    0.8019: real time    0.8094
    CHARGE:  cpu time    0.2319: real time    0.2340
    --------------------------------------------
      LOOP:  cpu time    3.4309: real time    3.4655

 eigenvalue-minimisations  :     0
 total energy-change (2. order) : 0.4868226E+02  (-0.1444598E+02)
 number of electron     216.0000000 magnetization 
 augmentation part       -0.4039826 magnetization 

 Free energy of the ion-electron system (eV)
  ---------------------------------------------------
  alpha Z        PSCENC =        59.93625244
  Ewald energy   TEWEN  =     29343.19250866
  -Hartree energ DENC   =    -36916.75870894
  -exchange      EXHF   =         0.00000000
  -V(xc)+E(xc)   XCENC  =       462.94651278
  PAW double counting   =    104135.76200994  -103861.34527404
  entropy T*S    EENTRO =        -0.00000000
  eigenvalues    EBANDS =     -2037.98503075
  atomic energy  EATOM  =      8364.30921166
  ---------------------------------------------------
  free energy    TOTEN  =      -449.94251824 eV

  energy without entropy =     -449.94251824  energy(sigma->0) =     -449.94251824


--------------------------------------------------------------------------------------------------------




--------------------------------------- Iteration      1(   7)  ---------------------------------------


    POTLOK:  cpu time    0.2780: real time    0.2806
    SETDIJ:  cpu time    0.0029: real time    0.0030
    TRIAL :  cpu time    2.0141: real time    2.0376
    CORREC:  cpu time    0.7993: real time    0.8072
    CHARGE:  cpu time    0.2294: real time    0.2351
    --------------------------------------------
      LOOP:  cpu time    3.3564: real time    3.3970

 eigenvalue-minimisations  :     0
 total energy-change (2. order) :-0.1448516E+02  (-0.1770599E+01)
 number of electron     216.0000000 magnetization 
 augmentation part       -0.4503529 magnetization 

 Free energy of the ion-electron system (eV)
  ---------------------------------------------------
  alpha Z        PSCENC =        59.93625244
  Ewald energy   TEWEN  =     29343.19250866
  -Hartree energ DENC   =    -36436.01502193
  -exchange      EXHF   =         0.00000000
  -V(xc)+E(xc)   XCENC  =       446.77053739
  PAW double counting   =    120342.24037625  -120065.75736243
  entropy T*S    EENTRO =        -0.00000000
  eigenvalues    EBANDS =     -2519.10417766
  atomic energy  EATOM  =      8364.30921166
  ---------------------------------------------------
  free energy    TOTEN  =      -464.42767562 eV

  energy without entropy =     -464.42767562  energy(sigma->0) =     -464.42767562


--------------------------------------------------------------------------------------------------------




--------------------------------------- Iteration      1(   8)  ---------------------------------------


    POTLOK:  cpu time    0.2765: real time    0.2788
    SETDIJ:  cpu time    0.0030: real time    0.0030
    TRIAL :  cpu time    2.0130: real time    2.0344
    CORREC:  cpu time    0.8147: real time    0.8221
    CHARGE:  cpu time    0.2328: real time    0.2348
    --------------------------------------------
      LOOP:  cpu time    3.3806: real time    3.4147

 eigenvalue-minimisations  :     0
 total energy-change (2. order) :-0.1769326E+01  (-0.4552650E+00)
 number of electron     216.0000000 magnetization 
 augmentation part       -0.4663460 magnetization 

 Free energy of the ion-electron system (eV)
  ---------------------------------------------------
  alpha Z        PSCENC =        59.93625244
  Ewald energy   TEWEN  =     29343.19250866
  -Hartree energ DENC   =    -36404.73511228
  -exchange      EXHF   =         0.00000000
  -V(xc)+E(xc)   XCENC  =       446.15438125
  PAW double counting   =    124617.45077302  -124340.67155293
  entropy T*S    EENTRO =        -0.00000000
  eigenvalues    EBANDS =     -2551.83346353
  atomic energy  EATOM  =      8364.30921166
  ---------------------------------------------------
  free energy    TOTEN  =      -466.19700170 eV

  energy without entropy =     -466.19700170  energy(sigma->0) =     -466.19700170


--------------------------------------------------------------------------------------------------------




--------------------------------------- Iteration      1(   9)  ---------------------------------------


    POTLOK:  cpu time    0.2750: real time    0.2771
    SETDIJ:  cpu time    0.0027: real time    0.0027
    TRIAL :  cpu time    2.0074: real time    2.0325
    CORREC:  cpu time    0.8023: real time    0.8097
    CHARGE:  cpu time    0.2329: real time    0.2349
    --------------------------------------------
      LOOP:  cpu time    3.3673: real time    3.4051

 eigenvalue-minimisations  :     0
 total energy-change (2. order) :-0.4551123E+00  (-0.1418025E+00)
 number of electron     216.0000000 magnetization 
 augmentation part       -0.4735273 magnetization 

 Free energy of the ion-electron system (eV)
  ---------------------------------------------------
  alpha Z        PSCENC =        59.93625244
  Ewald energy   TEWEN  =     29343.19250866
  -Hartree energ DENC   =    -36420.80090840
  -exchange      EXHF   =         0.00000000
  -V(xc)+E(xc)   XCENC  =       446.35976022
  PAW double counting   =    127151.22666973  -126874.34641564
  entropy T*S    EENTRO =        -0.00000000
  eigenvalues    EBANDS =     -2536.52919266
  atomic energy  EATOM  =      8364.30921166
  ---------------------------------------------------
  free energy    TOTEN  =      -466.65211397 eV

  energy without entropy =     -466.65211397  energy(sigma->0) =     -466.65211397


--------------------------------------------------------------------------------------------------------




--------------------------------------- Iteration      1(  10)  ---------------------------------------


    POTLOK:  cpu time    0.2741: real time    0.2761
    SETDIJ:  cpu time    0.0029: real time    0.0029
    TRIAL :  cpu time    2.0127: real time    2.0338
    CORREC:  cpu time    0.7978: real time    0.8075
    CHARGE:  cpu time    0.2322: real time    0.2341
    --------------------------------------------
      LOOP:  cpu time    3.3822: real time    3.4194

 eigenvalue-minimisations  :     0
 total energy-change (2. order) :-0.1416210E+00  (-0.5568089E-01)
 number of electron     216.0000000 magnetization 
 augmentation part       -0.4745687 magnetization 

 Free energy of the ion-electron system (eV)
  ---------------------------------------------------
  alpha Z        PSCENC =        59.93625244
  Ewald energy   TEWEN  =     29343.19250866
  -Hartree energ DENC   =    -36422.51167338
  -exchange      EXHF   =         0.00000000
  -V(xc)+E(xc)   XCENC  =       446.29204433
  PAW double counting   =    127434.47112835  -127157.53017858
  entropy T*S    EENTRO =        -0.00000000
  eigenvalues    EBANDS =     -2534.95302848
  atomic energy  EATOM  =      8364.30921166
  ---------------------------------------------------
  free energy    TOTEN  =      -466.79373501 eV

  energy without entropy =     -466.79373501  energy(sigma->0) =     -466.79373501


--------------------------------------------------------------------------------------------------------




--------------------------------------- Iteration      1(  11)  ---------------------------------------


    POTLOK:  cpu time    0.2749: real time    0.2768
    SETDIJ:  cpu time    0.0028: real time    0.0028
    TRIAL :  cpu time    2.0099: real time    2.0312
    CORREC:  cpu time    0.8030: real time    0.8098
    CHARGE:  cpu time    0.2325: real time    0.2345
    --------------------------------------------
      LOOP:  cpu time    3.3371: real time    3.3849

 eigenvalue-minimisations  :     0
 total energy-change (2. order) :-0.5555707E-01  (-0.2258479E-01)
 number of electron     216.0000000 magnetization 
 augmentation part       -0.4744851 magnetization 

 Free energy of the ion-electron system (eV)
  ---------------------------------------------------
  alpha Z        PSCENC =        59.93625244
  Ewald energy   TEWEN  =     29343.19250866
  -Hartree energ DENC   =    -36419.02754177
  -exchange      EXHF   =         0.00000000
  -V(xc)+E(xc)   XCENC  =       446.23437633
  PAW double counting   =    126860.27830684  -126583.33722958
  entropy T*S    EENTRO =        -0.00000000
  eigenvalues    EBANDS =     -2538.43517666
  atomic energy  EATOM  =      8364.30921166
  ---------------------------------------------------
  free energy    TOTEN  =      -466.84929208 eV

  energy without entropy =     -466.84929208  energy(sigma->0) =     -466.84929208


--------------------------------------------------------------------------------------------------------




--------------------------------------- Iteration      1(  12)  ---------------------------------------


    POTLOK:  cpu time    0.2734: real time    0.2754
    SETDIJ:  cpu time    0.0032: real time    0.0032
    TRIAL :  cpu time    2.0108: real time    2.0321
    CORREC:  cpu time    0.8026: real time    0.8102
    CHARGE:  cpu time    0.2330: real time    0.2349
    --------------------------------------------
      LOOP:  cpu time    3.3566: real time    3.4285

 eigenvalue-minimisations  :     0
 total energy-change (2. order) :-0.2248990E-01  (-0.8082142E-02)
 number of electron     216.0000000 magnetization 
 augmentation part       -0.4748051 magnetization 

 Free energy of the ion-electron system (eV)
  ---------------------------------------------------
  alpha Z        PSCENC =        59.93625244
  Ewald energy   TEWEN  =     29343.19250866
  -Hartree energ DENC   =    -36417.58084946
  -exchange      EXHF   =         0.00000000
  -V(xc)+E(xc)   XCENC  =       446.20638900
  PAW double counting   =    126472.65662456  -126195.73140060
  entropy T*S    EENTRO =        -0.00000000
  eigenvalues    EBANDS =     -2539.86051825
  atomic energy  EATOM  =      8364.30921166
  ---------------------------------------------------
  free energy    TOTEN  =      -466.87178198 eV

  energy without entropy =     -466.87178198  energy(sigma->0) =     -466.87178198


--------------------------------------------------------------------------------------------------------




--------------------------------------- Iteration      1(  13)  ---------------------------------------


    POTLOK:  cpu time    0.2742: real time    0.2761
    SETDIJ:  cpu time    0.0028: real time    0.0028
    TRIAL :  cpu time    2.0091: real time    2.0305
    CORREC:  cpu time    0.7962: real time    0.8073
    CHARGE:  cpu time    0.2322: real time    0.2342
    --------------------------------------------
      LOOP:  cpu time    3.3563: real time    3.3971

 eigenvalue-minimisations  :     0
 total energy-change (2. order) :-0.8061082E-02  (-0.2417906E-02)
 number of electron     216.0000000 magnetization 
 augmentation part       -0.4745191 magnetization 

 Free energy of the ion-electron system (eV)
  ---------------------------------------------------
  alpha Z        PSCENC =        59.93625244
  Ewald energy   TEWEN  =     29343.19250866
  -Hartree energ DENC   =    -36417.56572033
  -exchange      EXHF   =         0.00000000
  -V(xc)+E(xc)   XCENC  =       446.19925596
  PAW double counting   =    126389.84344377  -126112.92394028
  entropy T*S    EENTRO =        -0.00000000
  eigenvalues    EBANDS =     -2539.87085494
  atomic energy  EATOM  =      8364.30921166
  ---------------------------------------------------
  free energy    TOTEN  =      -466.87984306 eV

  energy without entropy =     -466.87984306  energy(sigma->0) =     -466.87984306


--------------------------------------------------------------------------------------------------------




--------------------------------------- Iteration      1(  14)  ---------------------------------------


    POTLOK:  cpu time    0.2742: real time    0.2763
    SETDIJ:  cpu time    0.0029: real time    0.0030
    TRIAL :  cpu time    2.0102: real time    2.0311
    CORREC:  cpu time    0.8018: real time    0.8085
    CHARGE:  cpu time    0.2329: real time    0.2349
    --------------------------------------------
      LOOP:  cpu time    3.3913: real time    3.4237

 eigenvalue-minimisations  :     0
 total energy-change (2. order) :-0.2417425E-02  (-0.6876554E-03)
 number of electron     216.0000000 magnetization 
 augmentation part       -0.4742650 magnetization 

 Free energy of the ion-electron system (eV)
  ---------------------------------------------------
  alpha Z        PSCENC =        59.93625244
  Ewald energy   TEWEN  =     29343.19250866
  -Hartree energ DENC   =    -36417.45059026
  -exchange      EXHF   =         0.00000000
  -V(xc)+E(xc)   XCENC  =       446.19821613
  PAW double counting   =    126455.46075090  -126178.54238472
  entropy T*S    EENTRO =        -0.00000000
  eigenvalues    EBANDS =     -2539.98622531
  atomic energy  EATOM  =      8364.30921166
  ---------------------------------------------------
  free energy    TOTEN  =      -466.88226049 eV

  energy without entropy =     -466.88226049  energy(sigma->0) =     -466.88226049


--------------------------------------------------------------------------------------------------------




--------------------------------------- Iteration      1(  15)  ---------------------------------------


    POTLOK:  cpu time    0.2739: real time    0.2757
    SETDIJ:  cpu time    0.0028: real time    0.0028
    TRIAL :  cpu time    1.9998: real time    2.0355
    CORREC:  cpu time    0.7998: real time    0.8068
    CHARGE:  cpu time    0.2322: real time    0.2341
    --------------------------------------------
      LOOP:  cpu time    3.3436: real time    3.3914

 eigenvalue-minimisations  :     0
 total energy-change (2. order) :-0.6893297E-03  (-0.2427591E-03)
 number of electron     216.0000000 magnetization 
 augmentation part       -0.4739608 magnetization 

 Free energy of the ion-electron system (eV)
  ---------------------------------------------------
  alpha Z        PSCENC =        59.93625244
  Ewald energy   TEWEN  =     29343.19250866
  -Hartree energ DENC   =    -36417.14001752
  -exchange      EXHF   =         0.00000000
  -V(xc)+E(xc)   XCENC  =       446.18664357
  PAW double counting   =    126496.33691316  -126219.41735725
  entropy T*S    EENTRO =        -0.00000000
  eigenvalues    EBANDS =     -2540.28710455
  atomic energy  EATOM  =      8364.30921166
  ---------------------------------------------------
  free energy    TOTEN  =      -466.88294982 eV

  energy without entropy =     -466.88294982  energy(sigma->0) =     -466.88294982


--------------------------------------------------------------------------------------------------------




--------------------------------------- Iteration      1(  16)  ---------------------------------------


    POTLOK:  cpu time    0.2735: real time    0.2753
    SETDIJ:  cpu time    0.0027: real time    0.0027
    TRIAL :  cpu time    2.0131: real time    2.0334
    CORREC:  cpu time    0.7962: real time    0.8061
    CHARGE:  cpu time    0.2325: real time    0.2344
    --------------------------------------------
      LOOP:  cpu time    3.3810: real time    3.4163

 eigenvalue-minimisations  :     0
 total energy-change (2. order) :-0.2441894E-03  (-0.8978386E-04)
 number of electron     216.0000000 magnetization 
 augmentation part       -0.4737718 magnetization 

 Free energy of the ion-electron system (eV)
  ---------------------------------------------------
  alpha Z        PSCENC =        59.93625244
  Ewald energy   TEWEN  =     29343.19250866
  -Hartree energ DENC   =    -36417.23931052
  -exchange      EXHF   =         0.00000000
  -V(xc)+E(xc)   XCENC  =       446.19028578
  PAW double counting   =    126477.63822468  -126200.71922824
  entropy T*S    EENTRO =        -0.00000000
  eigenvalues    EBANDS =     -2540.19113848
  atomic energy  EATOM  =      8364.30921166
  ---------------------------------------------------
  free energy    TOTEN  =      -466.88319401 eV

  energy without entropy =     -466.88319401  energy(sigma->0) =     -466.88319401


--------------------------------------------------------------------------------------------------------




--------------------------------------- Iteration      1(  17)  ---------------------------------------


    POTLOK:  cpu time    0.2720: real time    0.2739
    SETDIJ:  cpu time    0.0031: real time    0.0031
    TRIAL :  cpu time    2.0127: real time    2.0332
    CORREC:  cpu time    0.8068: real time    0.8138
    CHARGE:  cpu time    0.2326: real time    0.2345
    --------------------------------------------
      LOOP:  cpu time    3.3888: real time    3.4212

 eigenvalue-minimisations  :     0
 total energy-change (2. order) :-0.9078445E-04  (-0.3424583E-04)
 number of electron     216.0000000 magnetization 
 augmentation part       -0.4737611 magnetization 

 Free energy of the ion-electron system (eV)
  ---------------------------------------------------
  alpha Z        PSCENC =        59.93625244
  Ewald energy   TEWEN  =     29343.19250866
  -Hartree energ DENC   =    -36417.34502770
  -exchange      EXHF   =         0.00000000
  -V(xc)+E(xc)   XCENC  =       446.19344799
  PAW double counting   =    126448.16697138  -126171.24832543
  entropy T*S    EENTRO =        -0.00000000
  eigenvalues    EBANDS =     -2540.08832380
  atomic energy  EATOM  =      8364.30921166
  ---------------------------------------------------
  free energy    TOTEN  =      -466.88328479 eV

  energy without entropy =     -466.88328479  energy(sigma->0) =     -466.88328479


--------------------------------------------------------------------------------------------------------




--------------------------------------- Iteration      1(  18)  ---------------------------------------


    POTLOK:  cpu time    0.2735: real time    0.2756
    SETDIJ:  cpu time    0.0030: real time    0.0030
    TRIAL :  cpu time    2.0115: real time    2.0322
    CORREC:  cpu time    0.8019: real time    0.8093
    CHARGE:  cpu time    0.2321: real time    0.2341
    --------------------------------------------
      LOOP:  cpu time    3.3693: real time    3.4030

 eigenvalue-minimisations  :     0
 total energy-change (2. order) :-0.3456013E-04  (-0.1276351E-04)
 number of electron     216.0000000 magnetization 
 augmentation part       -0.4738082 magnetization 

 Free energy of the ion-electron system (eV)
  ---------------------------------------------------
  alpha Z        PSCENC =        59.93625244
  Ewald energy   TEWEN  =     29343.19250866
  -Hartree energ DENC   =    -36417.33736288
  -exchange      EXHF   =         0.00000000
  -V(xc)+E(xc)   XCENC  =       446.19247335
  PAW double counting   =    126438.56649739  -126161.64752657
  entropy T*S    EENTRO =        -0.00000000
  eigenvalues    EBANDS =     -2540.09537341
  atomic energy  EATOM  =      8364.30921166
  ---------------------------------------------------
  free energy    TOTEN  =      -466.88331935 eV

  energy without entropy =     -466.88331935  energy(sigma->0) =     -466.88331935


--------------------------------------------------------------------------------------------------------




--------------------------------------- Iteration      1(  19)  ---------------------------------------


    POTLOK:  cpu time    0.2721: real time    0.2739
    SETDIJ:  cpu time    0.0027: real time    0.0027
    TRIAL :  cpu time    2.0092: real time    2.0357
    CORREC:  cpu time    0.7998: real time    0.8069
    CHARGE:  cpu time    0.2320: real time    0.2338
    --------------------------------------------
      LOOP:  cpu time    3.3416: real time    3.3824

 eigenvalue-minimisations  :     0
 total energy-change (2. order) :-0.1249442E-04  (-0.4694933E-05)
 number of electron     216.0000000 magnetization 
 augmentation part       -0.4738856 magnetization 

 Free energy of the ion-electron system (eV)
  ---------------------------------------------------
  alpha Z        PSCENC =        59.93625244
  Ewald energy   TEWEN  =     29343.19250866
  -Hartree energ DENC   =    -36417.35882574
  -exchange      EXHF   =         0.00000000
  -V(xc)+E(xc)   XCENC  =       446.19366917
  PAW double counting   =    126442.43979789  -126165.52076438
  entropy T*S    EENTRO =        -0.00000000
  eigenvalues    EBANDS =     -2540.07518155
  atomic energy  EATOM  =      8364.30921166
  ---------------------------------------------------
  free energy    TOTEN  =      -466.88333185 eV

  energy without entropy =     -466.88333185  energy(sigma->0) =     -466.88333185


--------------------------------------------------------------------------------------------------------




--------------------------------------- Iteration      1(  20)  ---------------------------------------


    POTLOK:  cpu time    0.2727: real time    0.2746
    SETDIJ:  cpu time    0.0031: real time    0.0032
    TRIAL :  cpu time    2.0103: real time    2.0310
    CORREC:  cpu time    0.7988: real time    0.8059
    CHARGE:  cpu time    0.2308: real time    0.2327
    --------------------------------------------
      LOOP:  cpu time    3.3511: real time    3.3867

 eigenvalue-minimisations  :     0
 total energy-change (2. order) :-0.4379937E-05  (-0.1782935E-05)
 number of electron     216.0000000 magnetization 
 augmentation part       -0.4739016 magnetization 

 Free energy of the ion-electron system (eV)
  ---------------------------------------------------
  alpha Z        PSCENC =        59.93625244
  Ewald energy   TEWEN  =     29343.19250866
  -Hartree energ DENC   =    -36417.34369103
  -exchange      EXHF   =         0.00000000
  -V(xc)+E(xc)   XCENC  =       446.19268305
  PAW double counting   =    126447.77268218  -126170.85332819
  entropy T*S    EENTRO =        -0.00000000
  eigenvalues    EBANDS =     -2540.08965500
  atomic energy  EATOM  =      8364.30921166
  ---------------------------------------------------
  free energy    TOTEN  =      -466.88333623 eV

  energy without entropy =     -466.88333623  energy(sigma->0) =     -466.88333623


--------------------------------------------------------------------------------------------------------




--------------------------------------- Iteration      1(  21)  ---------------------------------------


    POTLOK:  cpu time    0.2730: real time    0.2749
    SETDIJ:  cpu time    0.0027: real time    0.0027
    TRIAL :  cpu time    2.0133: real time    2.0340
    CORREC:  cpu time    0.7999: real time    0.8070
    CHARGE:  cpu time    0.2320: real time    0.2339
    --------------------------------------------
      LOOP:  cpu time    3.3815: real time    3.4155

 eigenvalue-minimisations  :     0
 total energy-change (2. order) :-0.1550114E-05  (-0.7375810E-06)
 number of electron     216.0000000 magnetization 
 augmentation part       -0.4739163 magnetization 

 Free energy of the ion-electron system (eV)
  ---------------------------------------------------
  alpha Z        PSCENC =        59.93625244
  Ewald energy   TEWEN  =     29343.19250866
  -Hartree energ DENC   =    -36417.36884104
  -exchange      EXHF   =         0.00000000
  -V(xc)+E(xc)   XCENC  =       446.19387000
  PAW double counting   =    126449.28908136  -126172.36986039
  entropy T*S    EENTRO =        -0.00000000
  eigenvalues    EBANDS =     -2540.06556048
  atomic energy  EATOM  =      8364.30921166
  ---------------------------------------------------
  free energy    TOTEN  =      -466.88333778 eV

  energy without entropy =     -466.88333778  energy(sigma->0) =     -466.88333778


--------------------------------------------------------------------------------------------------------




--------------------------------------- Iteration      1(  22)  ---------------------------------------


    POTLOK:  cpu time    0.2738: real time    0.2757
    SETDIJ:  cpu time    0.0029: real time    0.0030
    TRIAL :  cpu time    2.0084: real time    2.0315
    CORREC:  cpu time    0.8008: real time    0.8079
    EDDIAG:  cpu time    0.4559: real time    0.4610
    CHARGE:  cpu time    0.2318: real time    0.2337
    --------------------------------------------
      LOOP:  cpu time    3.8071: real time    3.8498

 eigenvalue-minimisations  :     0
 total energy-change (2. order) :-0.6997434E-06  (-0.3321735E-06)
 number of electron     216.0000000 magnetization 
 augmentation part       -0.4739106 magnetization 

 Free energy of the ion-electron system (eV)
  ---------------------------------------------------
  alpha Z        PSCENC =        59.93625244
  Ewald energy   TEWEN  =     29343.19250866
  -Hartree energ DENC   =    -36417.35623635
  -exchange      EXHF   =         0.00000000
  -V(xc)+E(xc)   XCENC  =       446.19317952
  PAW double counting   =    126448.75066841  -126171.83137621
  entropy T*S    EENTRO =        -0.00000000
  eigenvalues    EBANDS =     -2540.07754662
  atomic energy  EATOM  =      8364.30921166
  ---------------------------------------------------
  free energy    TOTEN  =      -466.88333848 eV

  energy without entropy =     -466.88333848  energy(sigma->0) =     -466.88333848


--------------------------------------------------------------------------------------------------------


  average scaling for gradient   0.9501


 average (electrostatic) potential at core
  the test charge radii are     0.5770  0.5955
  (the norm of the test charge is              1.0000)
       1 -85.4312       2 -85.4308       3 -85.4311       4 -85.4317       5 -85.4303
       6 -85.4303       7 -85.4311       8 -85.4302       9 -85.4305      10 -85.4306
      11 -85.4303      12 -85.4302      13 -85.4306      14 -85.4305      15 -85.4302
      16 -85.4303      17 -85.4307      18 -85.4309      19 -85.4312      20 -85.4307
      21 -85.4301      22 -85.4301      23 -85.4320      24 -85.4320      25 -85.4302
      26 -85.4303      27 -85.4305      28 -85.4313      29 -85.4301      30 -85.4302
      31 -85.4314      32 -85.4309      33 -85.4304      34 -85.4303      35 -85.4304
      36 -85.4304      37 -85.4309      38 -85.4310      39 -85.4308      40 -85.4309
      41 -85.4308      42 -85.4309      43 -85.4307      44 -85.4311      45 -85.4302
      46 -85.4302      47 -85.4302      48 -85.4303      49 -85.4310      50 -85.4308
      51 -89.3899      52-120.0553      53-120.0547
 
 
 
 E-fermi :  -3.8465     XC(G=0):  -2.4495     alpha+bet : -2.1113

 Fermi energy:        -3.8465118518

 k-point     1 :       0.0000    0.0000    0.0000
  band No.  band energies     occupation 
      1     -27.3298      2.00000
      2     -26.3074      2.00000
      3     -21.9980      2.00000
      4     -21.0568      2.00000
      5     -21.0553      2.00000
      6     -21.0552      2.00000
      7     -21.0549      2.00000
      8     -21.0548      2.00000
      9     -21.0542      2.00000
     10     -19.2078      2.00000
     11     -19.2077      2.00000
     12     -19.2075      2.00000
     13     -19.2068      2.00000
     14     -19.2063      2.00000
     15     -19.2061      2.00000
     16     -18.3089      2.00000
     17     -18.3087      2.00000
     18     -18.3083      2.00000
     19     -18.3081      2.00000
     20     -18.3073      2.00000
     21     -18.3070      2.00000
     22     -16.1464      2.00000
     23     -16.1460      2.00000
     24     -16.1454      2.00000
     25     -16.1452      2.00000
     26     -16.1447      2.00000
     27     -16.1445      2.00000
     28     -15.1298      2.00000
     29     -15.1298      2.00000
     30     -15.1287      2.00000
     31     -15.1286      2.00000
     32     -15.1282      2.00000
     33     -15.1281      2.00000
     34     -13.7781      2.00000
     35     -13.7780      2.00000
     36     -13.7773      2.00000
     37     -13.7772      2.00000
     38     -13.7771      2.00000
     39     -13.7768      2.00000
     40     -12.1091      2.00000
     41     -11.3884      2.00000
     42     -11.3881      2.00000
     43     -11.3877      2.00000
     44     -11.3876      2.00000
     45     -11.3865      2.00000
     46     -11.3862      2.00000
     47     -11.2655      2.00000
     48     -11.2654      2.00000
     49     -11.2647      2.00000
     50     -11.2647      2.00000
     51     -11.2646      2.00000
     52     -11.2644      2.00000
     53     -10.8837      2.00000
     54     -10.8009      2.00000
     55     -10.8008      2.00000
     56     -10.0222      2.00000
     57      -9.8813      2.00000
     58      -9.8812      2.00000
     59      -9.8796      2.00000
     60      -9.8793      2.00000
     61      -9.8791      2.00000
     62      -9.8790      2.00000
     63      -8.9075      2.00000
     64      -8.9064      2.00000
     65      -8.9061      2.00000
     66      -8.9060      2.00000
     67      -8.9059      2.00000
     68      -8.9055      2.00000
     69      -8.5984      2.00000
     70      -8.5972      2.00000
     71      -8.5969      2.00000
     72      -8.5968      2.00000
     73      -8.5966      2.00000
     74      -8.5962      2.00000
     75      -8.5653      2.00000
     76      -8.5651      2.00000
     77      -8.5642      2.00000
     78      -8.5641      2.00000
     79      -8.5640      2.00000
     80      -8.5632      2.00000
     81      -7.2615      2.00000
     82      -7.2614      2.00000
     83      -6.9387      2.00000
     84      -6.9370      2.00000
     85      -6.9369      2.00000
     86      -6.9365      2.00000
     87      -6.9357      2.00000
     88      -6.9356      2.00000
     89      -6.7802      2.00000
     90      -6.7799      2.00000
     91      -6.7797      2.00000
     92      -6.7793      2.00000
     93      -6.7789      2.00000
     94      -6.7787      2.00000
     95      -5.8861      2.00000
     96      -5.8860      2.00000
     97      -5.8857      2.00000
     98      -5.8856      2.00000
     99      -5.8849      2.00000
    100      -5.8847      2.00000
    101      -5.4451      2.00000
    102      -5.4429      2.00000
    103      -3.9069      2.00000
    104      -3.9065      2.00000
    105      -3.9060      2.00000
    106      -3.9059      2.00000
    107      -3.9054      2.00000
    108      -3.9054      2.00000
    109      -1.0926      0.00000
    110      -1.0924      0.00000
    111      -1.0922      0.00000
    112      -1.0920      0.00000
    113      -1.0913      0.00000
    114      -1.0910      0.00000
    115       0.6378      0.00000
    116       0.7804      0.00000
    117       0.7807      0.00000
    118       0.7810      0.00000
    119       0.7811      0.00000
    120       0.7814      0.00000
    121       0.7826      0.00000
    122       0.8467      0.00000
    123       1.2523      0.00000
    124       1.3947      0.00000
    125       1.4595      0.00000
    126       2.0404      0.00000
    127       2.0473      0.00000
    128       2.0562      0.00000
    129       2.0688      0.00000
    130       2.0714      0.00000
    131       2.4000      0.00000
    132       2.5152      0.00000
    133       2.5165      0.00000
    134       2.5167      0.00000
    135       2.5178      0.00000
    136       2.5184      0.00000
    137       2.6244      0.00000
    138       2.6635      0.00000
    139       2.9907      0.00000
    140       3.8842      0.00000


--------------------------------------------------------------------------------------------------------


 soft charge-density along one line, spin component           1
         0         1         2         3         4         5         6         7         8         9
 total charge-density along one line
 
 pseudopotential strength for first ion, spin component:           1
 12.709  21.388   0.000   0.000   0.000   0.000   0.000   0.000
 21.388  35.991   0.000   0.000   0.000   0.000   0.000   0.000
  0.000   0.000  -3.095  -0.000   0.000  -5.547  -0.000   0.000
  0.000   0.000  -0.000  -3.096  -0.000  -0.000  -5.548  -0.000
  0.000   0.000   0.000  -0.000  -3.095   0.000  -0.000  -5.547
  0.000   0.000  -5.547  -0.000   0.000  -9.919  -0.000   0.000
  0.000   0.000  -0.000  -5.548  -0.000  -0.000  -9.921  -0.000
  0.000   0.000   0.000  -0.000  -5.547   0.000  -0.000  -9.919
 total augmentation occupancy for first ion, spin component:           1
  8.451  -3.031  -0.000  -0.002  -0.000   0.000   0.001   0.000
 -3.031   1.122   0.000   0.001   0.000  -0.000  -0.000  -0.000
 -0.000   0.000   7.733  -0.008   0.000  -2.679   0.003  -0.000
 -0.002   0.001  -0.008   3.531  -0.000   0.003  -0.988   0.000
 -0.000   0.000   0.000  -0.000   7.732  -0.000   0.000  -2.678
  0.000  -0.000  -2.679   0.003  -0.000   0.941  -0.001   0.000
  0.001  -0.000   0.003  -0.988   0.000  -0.001   0.282  -0.000
  0.000  -0.000  -0.000   0.000  -2.678   0.000  -0.000   0.941


------------------------ aborting loop because EDIFF is reached ----------------------------------------


    FORLOC:  cpu time    0.0515: real time    0.0520
    FORNL :  cpu time    0.7441: real time    0.7532
    FORCOR:  cpu time    0.2927: real time    0.2948
    OFIELD:  cpu time    0.0015: real time    0.0015

 ---------------------------------------------------------------------------------------------

         DFTD3 V3.0 Rev 1        
 IVDW         = 11
 DF revpbe    
 parameters
 VDW_S6       =    1.0000
 VDW_S8       =    1.0100
 VDW_SR       =    0.9230
 rs18     =    1.0000
 alpha6   =   14.0000
 alpha8   =   16.0000
 k1-k3    =   16.0000    1.3333   -4.0000
 VDW_RADIUS   =   50.2022 A
 VDW_CNRADIUS =   21.1671 A
 Edisp (eV)   -3.65640

 E6    (eV) :    -2.6022
 E8    (eV) :    -1.0542
 % E8        : 28.83
    FORVDW:  cpu time    0.1825: real time    0.1845

 VOLUME and BASIS-vectors are now :
 -----------------------------------------------------------------------------
  energy-cutoff  :     1000.00
  volume of cell :     2631.08
      direct lattice vectors                 reciprocal lattice vectors
    12.325000000  0.000000000  0.000000000     0.081135903  0.046843835  0.000000000
    -6.162500000 10.673763102  0.000000000     0.000000000  0.093687670  0.000000000
     0.000000000  0.000000000 20.000000000     0.000000000  0.000000000  0.050000000

  length of vectors
    12.325000000 12.325000000 20.000000000     0.093687670  0.093687670  0.050000000


 FORCES acting on ions:
    Electron-Ion                     Ewald-Force                    Non-Local-Force
 -----------------------------------------------------------------------------------------------
   0.595E+00 0.528E+00 0.414E+01   -.595E+00 -.529E+00 -.415E+01   0.420E-02 -.592E-03 0.561E-02
   0.808E+00 0.457E+00 0.493E+01   -.811E+00 -.455E+00 -.493E+01   0.259E-02 -.303E-02 -.591E-02
   0.323E+00 0.876E+00 0.471E+01   -.325E+00 -.876E+00 -.472E+01   -.598E-05 0.112E-01 -.232E-02
   0.404E+00 0.584E+00 0.655E+01   -.401E+00 -.583E+00 -.654E+01   0.113E-01 0.692E-03 -.168E-01
   0.670E+00 0.180E+00 0.460E+01   -.669E+00 -.181E+00 -.460E+01   -.894E-03 -.510E-02 0.413E-02
   0.684E+00 -.159E+00 0.476E+01   -.687E+00 0.160E+00 -.476E+01   -.645E-02 0.365E-02 -.163E-02
   0.762E+00 0.353E+00 0.674E+01   -.764E+00 -.354E+00 -.673E+01   0.113E-01 -.188E-01 -.733E-02
   0.794E+00 -.241E+00 0.789E+01   -.798E+00 0.243E+00 -.788E+01   -.776E-02 -.492E-02 -.580E-02
   -.376E+00 0.880E+00 0.517E+01   0.379E+00 -.883E+00 -.517E+01   0.469E-03 -.135E-01 -.490E-02
   -.460E+00 0.413E+00 0.693E+01   0.460E+00 -.413E+00 -.692E+01   -.253E-01 0.145E-01 0.143E-02
   0.174E+00 -.185E+00 0.410E+01   -.171E+00 0.184E+00 -.410E+01   0.399E-02 -.281E-02 0.120E-02
   0.180E+00 -.149E+00 0.399E+01   -.181E+00 0.149E+00 -.399E+01   -.637E-02 0.321E-02 0.708E-02
   0.200E+00 -.607E+00 0.857E+01   -.200E+00 0.608E+00 -.855E+01   0.260E-01 -.712E-02 -.307E-02
   0.133E+00 -.962E+00 0.633E+01   -.137E+00 0.965E+00 -.632E+01   0.322E-02 0.725E-02 -.159E-01
   -.643E+00 0.383E+00 0.424E+01   0.645E+00 -.384E+00 -.425E+01   0.755E-02 -.412E-02 0.863E-02
   -.796E+00 0.209E+00 0.429E+01   0.795E+00 -.209E+00 -.429E+01   -.126E-02 0.495E-02 -.399E-02
   -.114E+00 -.477E-01 0.360E+01   0.116E+00 0.461E-01 -.360E+01   0.286E-03 0.153E-03 0.230E-02
   0.549E-01 0.393E+00 0.361E+01   -.546E-01 -.394E+00 -.362E+01   -.262E-02 0.132E-02 0.924E-02
   -.169E+00 -.911E+00 0.515E+01   0.169E+00 0.913E+00 -.515E+01   0.558E-02 -.131E-02 -.593E-04
   -.104E+00 -.571E+00 0.422E+01   0.101E+00 0.572E+00 -.422E+01   -.433E-03 -.681E-03 -.480E-03
   0.868E+00 -.362E+00 0.582E+01   -.868E+00 0.362E+00 -.581E+01   -.212E-02 -.192E-02 -.154E-01
   0.633E+00 -.500E+00 0.517E+01   -.635E+00 0.501E+00 -.517E+01   -.696E-02 0.541E-02 -.652E-03
   -.134E+00 0.231E+00 0.822E+01   0.130E+00 -.229E+00 -.821E+01   -.996E-02 0.103E-01 -.127E-02
   -.208E+00 -.376E+00 0.823E+01   0.211E+00 0.374E+00 -.821E+01   0.118E-01 -.144E-01 -.126E-01
   0.340E+00 -.119E+00 0.419E+01   -.338E+00 0.118E+00 -.419E+01   0.389E-02 -.274E-02 -.186E-02
   0.108E+00 0.292E+00 0.400E+01   -.109E+00 -.291E+00 -.401E+01   -.475E-02 0.311E-02 0.670E-02
   -.935E+00 0.683E-01 0.550E+01   0.939E+00 -.702E-01 -.550E+01   0.126E-01 0.752E-02 -.252E-02
   -.848E+00 -.366E+00 0.498E+01   0.849E+00 0.366E+00 -.498E+01   -.799E-02 0.889E-02 -.150E-03
   0.332E+00 -.709E+00 0.525E+01   -.331E+00 0.709E+00 -.525E+01   0.391E-02 0.243E-02 -.556E-02
   0.321E-01 -.310E+00 0.438E+01   -.342E-01 0.311E+00 -.438E+01   -.500E-02 0.236E-02 -.916E-03
   -.602E+00 -.595E+00 0.575E+01   0.600E+00 0.596E+00 -.575E+01   -.114E-01 -.790E-02 -.146E-01
   -.451E+00 -.874E+00 0.483E+01   0.453E+00 0.874E+00 -.484E+01   0.493E-03 -.527E-03 0.867E-03
   0.278E-01 0.205E+00 0.386E+01   -.275E-01 -.205E+00 -.387E+01   0.469E-02 -.451E-02 0.797E-02
   0.106E+00 0.170E+00 0.395E+01   -.109E+00 -.169E+00 -.395E+01   -.242E-02 0.471E-02 -.855E-04
   -.425E+00 0.818E-01 0.403E+01   0.428E+00 -.828E-01 -.403E+01   0.428E-02 -.253E-02 0.711E-02
   -.373E+00 -.181E+00 0.398E+01   0.372E+00 0.181E+00 -.398E+01   -.344E-02 0.218E-02 0.465E-02
   -.688E+00 -.388E+00 0.405E+01   0.691E+00 0.386E+00 -.405E+01   -.272E-03 0.899E-03 0.329E-02
   -.464E+00 -.377E+00 0.382E+01   0.465E+00 0.378E+00 -.382E+01   -.340E-02 0.122E-02 0.876E-02
   -.426E+00 -.535E+00 0.394E+01   0.425E+00 0.537E+00 -.394E+01   -.258E-02 0.340E-03 0.403E-02
   -.602E-01 -.157E+00 0.373E+01   0.612E-01 0.156E+00 -.374E+01   0.172E-02 0.817E-03 0.689E-02
   0.166E+00 0.405E+00 0.364E+01   -.167E+00 -.405E+00 -.364E+01   -.383E-02 0.137E-02 0.635E-02
   0.494E+00 0.726E+00 0.401E+01   -.493E+00 -.727E+00 -.402E+01   -.110E-02 -.108E-02 0.663E-02
   0.637E-01 0.663E+00 0.376E+01   -.609E-01 -.665E+00 -.376E+01   0.269E-03 0.246E-03 0.249E-02
   0.119E-01 0.937E+00 0.446E+01   -.115E-01 -.938E+00 -.447E+01   -.755E-02 0.123E-02 0.465E-02
   -.133E+00 0.242E+00 0.412E+01   0.135E+00 -.244E+00 -.412E+01   0.426E-02 -.317E-02 0.287E-02
   -.448E+00 0.587E+00 0.433E+01   0.448E+00 -.587E+00 -.434E+01   -.566E-02 -.116E-03 -.274E-03
   -.149E+00 -.296E+00 0.421E+01   0.150E+00 0.296E+00 -.421E+01   0.580E-02 -.117E-02 0.694E-02
   -.275E+00 0.934E-01 0.384E+01   0.273E+00 -.927E-01 -.384E+01   -.378E-02 0.328E-02 -.182E-02
   0.211E-01 -.178E+00 0.384E+01   -.212E-01 0.178E+00 -.384E+01   0.390E-02 -.297E-02 0.562E-02
   0.287E+00 0.207E+00 0.379E+01   -.289E+00 -.206E+00 -.380E+01   -.750E-03 0.185E-02 0.335E-02
   -.448E-02 0.301E-01 -.596E+02   0.516E-03 -.264E-01 0.596E+02   -.304E-02 0.168E-02 -.336E-02
   -.229E+03 0.156E+03 -.101E+03   0.279E+03 -.190E+03 0.104E+03   -.510E+02 0.347E+02 -.342E+01
   0.229E+03 -.156E+03 -.813E+02   -.279E+03 0.190E+03 0.782E+02   0.510E+02 -.347E+02 0.308E+01
 -----------------------------------------------------------------------------------------------
   -.674E-02 0.134E-01 0.343E+00   0.568E-13 0.568E-13 -.426E-13   0.694E-02 -.141E-01 -.342E+00
 
 
 POSITION                                       TOTAL-FORCE (eV/Angst)
 -----------------------------------------------------------------------------------
     11.98348      0.00342      0.01417         0.003298     -0.001675     -0.000725
     -0.34154      1.42665      0.01100        -0.000518     -0.000162     -0.003269
      2.12355      0.00315      0.01249        -0.001727      0.011057     -0.006019
      2.12326      1.42653      0.00641         0.013654      0.001354     -0.008661
     10.75099      2.13819      0.01213         0.000383     -0.005809      0.000007
     -1.57382      3.56123      0.01110        -0.009094      0.004813     -0.001347
      0.89078      2.13854      0.00548         0.009872     -0.019387      0.001816
      0.89099      3.56147      0.00181        -0.011806     -0.002620      0.010441
      4.58864      0.00346      0.01135         0.003527     -0.015917     -0.003475
      4.58894      1.42623      0.00646        -0.024120      0.013646      0.012903
      9.51854      4.27281      0.01369         0.006592     -0.003135      0.000345
     -2.80632      5.69591      0.01434        -0.006663      0.003458      0.000858
      2.12300      4.27302      0.00000         0.025605     -0.005242      0.018655
      2.12335      5.69594      0.00581        -0.000382      0.009206     -0.003061
      7.05344      0.00333      0.01399         0.009482     -0.005354     -0.000216
      7.05353      1.42635      0.01368        -0.001753      0.005101     -0.003525
      8.28610      6.40752      0.01601         0.002882     -0.001450     -0.000583
     -4.03885      7.83070      0.01636        -0.002267      0.000904      0.000180
      3.35586      6.40753      0.01007         0.005659      0.000491     -0.001238
      3.35599      7.83072      0.01320        -0.003156     -0.000019     -0.000535
     -0.34146      4.27290      0.00723        -0.001856     -0.001537     -0.004722
     -0.34138      5.69591      0.00946        -0.009301      0.006630     -0.001140
      3.35624      2.13791      0.00222        -0.013810      0.012210      0.014430
      3.35573      3.56155      0.00139         0.013834     -0.016241      0.007044
     -1.57395      6.40758      0.01311         0.005400     -0.003935     -0.000464
     -1.57385      7.83068      0.01438        -0.004953      0.003832      0.000226
      5.82093      2.13784      0.01033         0.016061      0.005381     -0.003021
      5.82114      3.56097      0.01156        -0.006573      0.008702     -0.003435
      0.89092      6.40755      0.00907         0.004684      0.002366     -0.002284
      0.89106      7.83068      0.01235        -0.006900      0.003963      0.000485
      4.58871      4.27293      0.00850        -0.013208     -0.006706     -0.010763
      4.58852      5.69606      0.01149         0.001965     -0.001232     -0.003761
      9.51845      0.00337      0.01490         0.004854     -0.004718      0.000330
      9.51855      1.42644      0.01438        -0.005153      0.005474     -0.000122
      8.28593      2.13803      0.01453         0.006801     -0.003402      0.000826
      8.28613      3.56115      0.01464        -0.004423      0.002274      0.000178
      7.05356      4.27269      0.01457         0.002519     -0.001057     -0.000356
      7.05362      5.69588      0.01553        -0.002534      0.001574      0.000177
      5.82112      6.40755      0.01489        -0.003021      0.001577      0.000202
      5.82102      7.83073      0.01579         0.002750      0.000297     -0.000068
      7.05363      8.54227      0.01631        -0.004731      0.001309      0.001325
     -5.27149      9.96549      0.01495         0.000153     -0.001953     -0.001793
     -2.80638      8.54234      0.01558         0.003100     -0.001291     -0.000882
     -2.80627      9.96553      0.01362        -0.006958     -0.000032     -0.003459
     -0.34149      8.54239      0.01378         0.005834     -0.004938      0.000436
     -0.34138      9.96550      0.01354        -0.006042     -0.000050     -0.001048
      2.12343      8.54232      0.01336         0.005982     -0.001549      0.000823
      2.12354      9.96544      0.01469        -0.005165      0.003855     -0.001661
      4.58846      8.54235      0.01505         0.003771     -0.002814      0.001175
      4.58853      9.96550      0.01517        -0.002720      0.003382      0.000324
      3.04930      2.68154      8.90899        -0.006827      0.005336      0.032562
      4.02070      2.02068      8.97341        -0.250352      0.169798     -0.033115
      2.07767      3.34267      8.84953         0.257352     -0.175763     -0.001002
 -----------------------------------------------------------------------------------
    total drift:                                0.000201     -0.000639      0.001099


--------------------------------------------------------------------------------------------------------



  FREE ENERGIE OF THE ION-ELECTRON SYSTEM (eV)
  ---------------------------------------------------
  free  energy   TOTEN  =      -470.53973678 eV

  energy  without entropy=     -470.53973678  energy(sigma->0) =     -470.53973678
 


--------------------------------------------------------------------------------------------------------


    POTLOK:  cpu time    0.2809: real time    0.2835


--------------------------------------------------------------------------------------------------------


     LOOP+:  cpu time  108.8380: real time  110.5259
    4ORBIT:  cpu time    0.0000: real time    0.0000

 total amount of memory used by VASP MPI-rank0   175916. kBytes
=======================================================================

   base      :      30000. kBytes
   nonl-proj :      46129. kBytes
   fftplans  :      35778. kBytes
   grid      :      52596. kBytes
   one-center:         43. kBytes
   wavefun   :      11370. kBytes
 
  
  
 General timing and accounting informations for this job:
 ========================================================
  
                  Total CPU time used (sec):      144.760
                            User time (sec):      131.456
                          System time (sec):       13.305
                         Elapsed time (sec):      148.006
  
                   Maximum memory used (kb):      513320.
                   Average memory used (kb):          N/A
  
                          Minor page faults:        53648
                          Major page faults:           96
                 Voluntary context switches:         3446
