 vasp.6.2.1 16May21 (build Nov 06 2021 14:46:37) complex                        
  
 executed on             LinuxIFC date 2025.04.16  17:45:03
 running on  112 total cores
 distrk:  each k-point on  112 cores,    1 groups
 distr:  one band on NCORE=   4 cores,   28 groups


--------------------------------------------------------------------------------------------------------


 INCAR:
   ALGO = Conjugate
   NCORE = 4
   ISMEAR = 0
   SIGMA = 0.01
   PREC = Accurate
   EDIFF = 1E-6
   ENCUT = 1000
   ISIF = 0
   GGA = RE
   IVDW = 11
   LWAVE = .FALSE.
   LCHARGE = .FALSE.
   SYMPREC = 1E-6

 POTCAR:    PAW_PBE C_h 06Feb2004                 
 POTCAR:    PAW_PBE O_h 06Feb2004                 
 -----------------------------------------------------------------------------
|                                                                             |
|           W    W    AA    RRRRR   N    N  II  N    N   GGGG   !!!           |
|           W    W   A  A   R    R  NN   N  II  NN   N  G    G  !!!           |
|           W    W  A    A  R    R  N N  N  II  N N  N  G       !!!           |
|           W WW W  AAAAAA  RRRRR   N  N N  II  N  N N  G  GGG   !            |
|           WW  WW  A    A  R   R   N   NN  II  N   NN  G    G                |
|           W    W  A    A  R    R  N    N  II  N    N   GGGG   !!!           |
|                                                                             |
|     For optimal performance we recommend to set                             |
|       NCORE = 2 up to number-of-cores-per-socket                            |
|     NCORE specifies how many cores store one orbital (NPAR=cpu/NCORE).      |
|     This setting can greatly improve the performance of VASP for DFT.       |
|     The default, NCORE=1 might be grossly inefficient on modern             |
|     multi-core architectures or massively parallel machines. Do your        |
|     own testing! More info at https://www.vasp.at/wiki/index.php/NCORE      |
|     Unfortunately you need to use the default for GW and RPA                |
|     calculations (for HF NCORE is supported but not extensively tested      |
|     yet).                                                                   |
|                                                                             |
 -----------------------------------------------------------------------------

 POTCAR:    PAW_PBE C_h 06Feb2004                 
   VRHFIN =C: s2p2                                                                                  
   LEXCH  = PE                                                                                      
   EATOM  =   147.1560 eV,   10.8157 Ry                                                             
                                                                                                    
   TITEL  = PAW_PBE C_h 06Feb2004                                                                   
   LULTRA =        F    use ultrasoft PP ?                                                          
   IUNSCR =        1    unscreen: 0-lin 1-nonlin 2-no                                               
   RPACOR =    0.800    partial core radius                                                         
   POMASS =   12.011; ZVAL   =    4.000    mass and valenz                                          
   RCORE  =    1.100    outmost cutoff radius                                                       
   RWIGS  =    1.630; RWIGS  =    0.863    wigner-seitz radius (au A)                               
   ENMAX  =  700.000; ENMIN  =  500.000 eV                                                          
   ICORE  =        2    local potential                                                             
   LCOR   =        T    correct aug charges                                                         
   LPAW   =        T    paw PP                                                                      
   EAUG   =  946.768                                                                                
   DEXC   =    0.000                                                                                
   RMAX   =    1.128    core radius for proj-oper                                                   
   RAUG   =    1.300    factor for augmentation sphere                                              
   RDEP   =    1.162    radius for radial grids                                                     
   RDEPT  =    1.088    core radius for aug-charge                                                  
                                                                                                    
   Atomic configuration                                                                             
    4 entries                                                                                       
     n  l   j            E        occ.                                                              
     1  0  0.50      -273.3789   2.0000                                                             
     2  0  0.50       -13.7508   2.0000                                                             
     2  1  0.50        -5.2854   2.0000                                                             
     3  2  1.50        -5.4423   0.0000                                                             
   Description                                                                                      
     l       E           TYP  RCUT    TYP  RCUT                                                     
     0    -13.7508458     23  1.100                                                                 
     0     -8.2022199     23  1.100                                                                 
     1     -5.2854383     23  1.100                                                                 
     1      1.1560700     23  1.100                                                                 
     2     -5.4423304      7  1.100                                                                 
  local pseudopotential read in
  partial core-charges read in
  partial kinetic energy density read in
  atomic valenz-charges read in
  non local Contribution for L=           0  read in
    real space projection operators read in
  non local Contribution for L=           0  read in
    real space projection operators read in
  non local Contribution for L=           1  read in
    real space projection operators read in
  non local Contribution for L=           1  read in
    real space projection operators read in
    PAW grid and wavefunctions read in
 
   number of l-projection  operators is LMAX  =           4
   number of lm-projection operators is LMMAX =           8
 
 POTCAR:    PAW_PBE O_h 06Feb2004                 
   VRHFIN =O: s2p4                                                                                  
   LEXCH  = PE                                                                                      
   EATOM  =   432.3788 eV,   31.7789 Ry                                                             
                                                                                                    
   TITEL  = PAW_PBE O_h 06Feb2004                                                                   
   LULTRA =        F    use ultrasoft PP ?                                                          
   IUNSCR =        1    unscreen: 0-lin 1-nonlin 2-no                                               
   RPACOR =    0.800    partial core radius                                                         
   POMASS =   16.000; ZVAL   =    6.000    mass and valenz                                          
   RCORE  =    1.100    outmost cutoff radius                                                       
   RWIGS  =    1.400; RWIGS  =    0.741    wigner-seitz radius (au A)                               
   ENMAX  =  700.000; ENMIN  =  500.000 eV                                                          
   ICORE  =        2    local potential                                                             
   LCOR   =        T    correct aug charges                                                         
   LPAW   =        T    paw PP                                                                      
   EAUG   =  888.804                                                                                
   DEXC   =    0.000                                                                                
   RMAX   =    1.128    core radius for proj-oper                                                   
   RAUG   =    1.300    factor for augmentation sphere                                              
   RDEP   =    1.125    radius for radial grids                                                     
   RDEPT  =    1.088    core radius for aug-charge                                                  
                                                                                                    
   Atomic configuration                                                                             
    4 entries                                                                                       
     n  l   j            E        occ.                                                              
     1  0  0.50      -514.6923   2.0000                                                             
     2  0  0.50       -23.9615   2.0000                                                             
     2  1  0.50        -9.0305   4.0000                                                             
     3  2  1.50        -9.5241   0.0000                                                             
   Description                                                                                      
     l       E           TYP  RCUT    TYP  RCUT                                                     
     0    -23.9615319     23  1.100                                                                 
     0    -25.3221145     23  1.100                                                                 
     1     -9.0304911     23  1.100                                                                 
     1     -5.4802209     23  1.100                                                                 
     2     -9.5240782      7  1.100                                                                 
  local pseudopotential read in
  partial core-charges read in
  partial kinetic energy density read in
  atomic valenz-charges read in
  non local Contribution for L=           0  read in
    real space projection operators read in
  non local Contribution for L=           0  read in
    real space projection operators read in
  non local Contribution for L=           1  read in
    real space projection operators read in
  non local Contribution for L=           1  read in
    real space projection operators read in
    PAW grid and wavefunctions read in
 
   number of l-projection  operators is LMAX  =           4
   number of lm-projection operators is LMMAX =           8
 
 -----------------------------------------------------------------------------
|                                                                             |
|               ----> ADVICE to this user running VASP <----                  |
|                                                                             |
|     You have a (more or less) 'large supercell' and for larger cells it     |
|     might be more efficient to use real-space projection operators.         |
|     Therefore, try LREAL= Auto in the INCAR file.                           |
|     Mind: For very accurate calculation, you might also keep the            |
|     reciprocal projection scheme (i.e. LREAL=.FALSE.).                      |
|                                                                             |
 -----------------------------------------------------------------------------

 -----------------------------------------------------------------------------
|                                                                             |
|               ----> ADVICE to this user running VASP <----                  |
|                                                                             |
|     You enforced a specific xc type in the INCAR file but a different       |
|     type was found in the POTCAR file.                                      |
|     I HOPE YOU KNOW WHAT YOU ARE DOING!                                     |
|                                                                             |
 -----------------------------------------------------------------------------

  PAW_PBE C_h 06Feb2004                 :
 energy of atom  1       EATOM= -147.1560
 kinetic energy error for atom=    0.0031 (will be added to EATOM!!)
  PAW_PBE O_h 06Feb2004                 :
 energy of atom  2       EATOM= -432.3788
 kinetic energy error for atom=    0.0171 (will be added to EATOM!!)
 
 
 POSCAR:  C  O
  positions in cartesian coordinates
  No initial velocities read in
 exchange correlation table for  LEXCH =       40
   RHO(1)=    0.500       N(1)  =     2000
   RHO(2)=  100.500       N(2)  =     4000
 


--------------------------------------------------------------------------------------------------------


 ion  position               nearest neighbor table
   1  0.972  0.000  0.001-  50 1.42   2 1.42  42 1.42
   2  0.039  0.134  0.000-   5 1.42   7 1.42   1 1.42
   3  0.172  0.000  0.000-  42 1.42  44 1.42   4 1.42
   4  0.239  0.134  0.000-   7 1.42   3 1.42  23 1.42
   5  0.972  0.200  0.000-   6 1.42   2 1.42  34 1.42
   6  0.039  0.334  0.000-   5 1.42  21 1.42  11 1.42
   7  0.172  0.200  0.000-   8 1.42   2 1.42   4 1.42
   8  0.239  0.334  0.000-  13 1.42   7 1.42  21 1.42
   9  0.372  0.000  0.000-  10 1.42  44 1.42  46 1.42
  10  0.439  0.134  0.000-  27 1.42   9 1.42  23 1.42
  11  0.972  0.400  0.001-  12 1.42  36 1.42   6 1.42
  12  0.039  0.534  0.001-  25 1.42  11 1.42  17 1.42
  13  0.372  0.400  0.000-   8 1.42  14 1.42  24 1.42
  14  0.439  0.534  0.000-  13 1.42  29 1.42  19 1.42
  15  0.572  0.000  0.001-  46 1.42  16 1.42  48 1.42
  16  0.639  0.134  0.001-  15 1.42  35 1.42  27 1.42
  17  0.972  0.600  0.001-  38 1.42  18 1.42  12 1.42
  18  0.039  0.734  0.001-  43 1.42  41 1.42  17 1.42
  19  0.572  0.600  0.000-  14 1.42  20 1.42  32 1.42
  20  0.639  0.734  0.001-  49 1.42  19 1.42  47 1.42
  21  0.172  0.400  0.000-  22 1.42   8 1.42   6 1.42
  22  0.239  0.534  0.000-  21 1.42  29 1.42  25 1.42
  23  0.372  0.200  0.000-  10 1.42   4 1.42  24 1.42
  24  0.439  0.334  0.000-  13 1.42  31 1.42  23 1.42
  25  0.172  0.600  0.001-  26 1.42  12 1.42  22 1.42
  26  0.239  0.734  0.001-  25 1.42  45 1.42  43 1.42
  27  0.572  0.200  0.000-  10 1.42  28 1.42  16 1.42
  28  0.639  0.334  0.000-  27 1.42  37 1.42  31 1.42
  29  0.372  0.600  0.000-  22 1.42  14 1.42  30 1.42
  30  0.439  0.734  0.000-  47 1.42  29 1.42  45 1.42
  31  0.572  0.400  0.000-  32 1.42  28 1.42  24 1.42
  32  0.639  0.534  0.000-  31 1.42  39 1.42  19 1.42
  33  0.772  0.000  0.001-  34 1.42  48 1.42  50 1.42
  34  0.839  0.134  0.001-  33 1.42   5 1.42  35 1.42
  35  0.772  0.200  0.001-  36 1.42  16 1.42  34 1.42
  36  0.839  0.334  0.001-  35 1.42  11 1.42  37 1.42
  37  0.772  0.400  0.001-  28 1.42  38 1.42  36 1.42
  38  0.839  0.534  0.001-  17 1.42  37 1.42  39 1.42
  39  0.772  0.600  0.001-  40 1.42  38 1.42  32 1.42
  40  0.839  0.734  0.001-  39 1.42  49 1.42  41 1.42
  41  0.972  0.800  0.001-  18 1.42  42 1.42  40 1.42
  42  0.039  0.934  0.001-   3 1.42  41 1.42   1 1.42
  43  0.172  0.800  0.001-  18 1.42  44 1.42  26 1.42
  44  0.239  0.934  0.001-   9 1.42  43 1.42   3 1.42
  45  0.372  0.800  0.001-  26 1.42  46 1.42  30 1.42
  46  0.439  0.934  0.001-  15 1.42  45 1.42   9 1.42
  47  0.572  0.800  0.001-  30 1.42  48 1.42  20 1.42
  48  0.639  0.934  0.001-  47 1.42  33 1.42  15 1.42
  49  0.772  0.800  0.001-  50 1.42  20 1.42  40 1.42
  50  0.839  0.934  0.001-  49 1.42   1 1.42  33 1.42
  51  0.373  0.251  0.283-  52 1.18  53 1.18
  52  0.421  0.189  0.285-  51 1.18
  53  0.325  0.313  0.280-  51 1.18
 
  LATTYP: Found a hexagonal cell.
 ALAT       =    12.3250000000
 C/A-ratio  =     2.0283975659
  
  Lattice vectors:
  
 A1 = (  12.3250000000,   0.0000000000,   0.0000000000)
 A2 = (  -6.1625000000,  10.6737631016,   0.0000000000)
 A3 = (   0.0000000000,   0.0000000000,  25.0000000000)


Analysis of symmetry for initial positions (statically):
=====================================================================
 Subroutine PRICEL returns:
 Original cell was already a primitive cell.
 

 Routine SETGRP: Setting up the symmetry group for a 
 hexagonal supercell.


 Subroutine GETGRP returns: Found  1 space group operations
 (whereof  1 operations were pure point group operations)
 out of a pool of 24 trial point group operations.


The static configuration has the point symmetry C_1 .


Analysis of symmetry for dynamics (positions and initial velocities):
=====================================================================
 Subroutine PRICEL returns:
 Original cell was already a primitive cell.
 

 Routine SETGRP: Setting up the symmetry group for a 
 hexagonal supercell.


 Subroutine GETGRP returns: Found  1 space group operations
 (whereof  1 operations were pure point group operations)
 out of a pool of 24 trial point group operations.


The dynamic configuration has the point symmetry C_1 .


 Subroutine INISYM returns: Found  1 space group operations
 (whereof  1 operations are pure point group operations),
 and found     1 'primitive' translations


----------------------------------------------------------------------------------------

                                     Primitive cell                                     

  volume of cell :    3288.8533

  direct lattice vectors                    reciprocal lattice vectors
    12.325000000  0.000000000  0.000000000     0.081135903  0.046843835  0.000000000
    -6.162500000 10.673763102  0.000000000     0.000000000  0.093687670  0.000000000
     0.000000000  0.000000000 25.000000000     0.000000000  0.000000000  0.040000000

  length of vectors
    12.325000000 12.325000000 25.000000000     0.093687670  0.093687670  0.040000000

  position of ions in fractional coordinates (direct lattice)
     0.972450841  0.000320818  0.000566711
     0.039118382  0.133659505  0.000440173
     0.172443627  0.000295449  0.000499628
     0.239096278  0.133647917  0.000256468
     0.972452058  0.200322012  0.000485219
     0.039128360  0.333643771  0.000444150
     0.172451764  0.200354552  0.000219167
     0.239124359  0.333665720  0.000072260
     0.372465565  0.000324403  0.000453913
     0.439137473  0.133619939  0.000258338
     0.972449824  0.400309362  0.000547611
     0.039124981  0.533636789  0.000573410
     0.372416176  0.400329481  0.000000000
     0.439099602  0.533638981  0.000232414
     0.572443676  0.000312125  0.000559580
     0.639110207  0.133631751  0.000547275
     0.972452703  0.600305653  0.000640289
     0.039124495  0.733640359  0.000654513
     0.572433471  0.600306242  0.000402895
     0.639111888  0.733641879  0.000527905
     0.172454630  0.400318228  0.000289045
     0.239120185  0.533636548  0.000378509
     0.372459750  0.200295993  0.000088997
     0.439107096  0.333673419  0.000055762
     0.172452155  0.600311506  0.000524340
     0.239123371  0.733638574  0.000575129
     0.572431082  0.200289171  0.000413296
     0.639112773  0.333618630  0.000462376
     0.372439808  0.600308022  0.000362844
     0.439116090  0.733637858  0.000494190
     0.572469358  0.400320504  0.000339918
     0.639119408  0.533650873  0.000459610
     0.772445723  0.000315427  0.000596161
     0.839116277  0.133640203  0.000575306
     0.772440513  0.200307432  0.000581033
     0.839120241  0.333635728  0.000585467
     0.772446320  0.400298367  0.000582978
     0.839118980  0.533633964  0.000621100
     0.772456143  0.600308173  0.000595712
     0.839115033  0.733643180  0.000631512
     0.972455313  0.800305582  0.000652233
     0.039114714  0.933643289  0.000598051
     0.172457971  0.800312211  0.000623372
     0.239134551  0.933647193  0.000544850
     0.372451396  0.800316674  0.000551399
     0.439124489  0.933644769  0.000541430
     0.572441101  0.800310054  0.000534535
     0.639115067  0.933638985  0.000587644
     0.772445098  0.800313187  0.000602062
     0.839116614  0.933644338  0.000606830
     0.373021009  0.251226878  0.282842712
     0.420879805  0.189313152  0.285419587
     0.325156981  0.313167186  0.280464518

  ion indices of the primitive-cell ions
   primitive index   ion index
                 1           1
                 2           2
                 3           3
                 4           4
                 5           5
                 6           6
                 7           7
                 8           8
                 9           9
                10          10
                11          11
                12          12
                13          13
                14          14
                15          15
                16          16
                17          17
                18          18
                19          19
                20          20
                21          21
                22          22
                23          23
                24          24
                25          25
                26          26
                27          27
                28          28
                29          29
                30          30
                31          31
                32          32
                33          33
                34          34
                35          35
                36          36
                37          37
                38          38
                39          39
                40          40
                41          41
                42          42
                43          43
                44          44
                45          45
                46          46
                47          47
                48          48
                49          49
                50          50
                51          51
                52          52
                53          53

----------------------------------------------------------------------------------------

 
 
 KPOINTS: auto                                    

Automatic generation of k-mesh.
 Grid dimensions read from file:
 generate k-points for:    1    1    1

 Generating k-lattice:

  Cartesian coordinates                     Fractional coordinates (reciprocal lattice)
     0.081135903  0.046843835  0.000000000     1.000000000 -0.000000000  0.000000000
     0.000000000  0.093687670  0.000000000     0.000000000  1.000000000  0.000000000
     0.000000000  0.000000000  0.040000000     0.000000000  0.000000000  1.000000000

  Length of vectors
     0.093687670  0.093687670  0.040000000

  Shift w.r.t. Gamma in fractional coordinates (k-lattice)
     0.000000000  0.000000000  0.000000000

 
 Subroutine IBZKPT returns following result:
 ===========================================
 
 Found      1 irreducible k-points:
 
 Following reciprocal coordinates:
            Coordinates               Weight
  0.000000  0.000000  0.000000      1.000000
 
 Following cartesian coordinates:
            Coordinates               Weight
  0.000000  0.000000  0.000000      1.000000
 


--------------------------------------------------------------------------------------------------------




 Dimension of arrays:
   k-points           NKPTS =      1   k-points in BZ     NKDIM =      1   number of bands    NBANDS=    140
   number of dos      NEDOS =    301   number of ions     NIONS =     53
   non local maximal  LDIM  =      4   non local SUM 2l+1 LMDIM =      8
   total plane-waves  NPLWV = ******
   max r-space proj   IRMAX =      1   max aug-charges    IRDMAX=  10008
   dimension x,y,z NGX =   128 NGY =  128 NGZ =  270
   dimension x,y,z NGXF=   256 NGYF=  256 NGZF=  540
   support grid    NGXF=   256 NGYF=  256 NGZF=  540
   ions per type =              51   2
   NGX,Y,Z   is equivalent  to a cutoff of  17.27, 17.27, 17.95 a.u.
   NGXF,Y,Z  is equivalent  to a cutoff of  34.53, 34.53, 35.91 a.u.

 SYSTEM =  unknown system                          
 POSCAR =   C  O                                   

 Startparameter for this run:
   NWRITE =      2    write-flag & timer
   PREC   = accura    normal or accurate (medium, high low for compatibility)
   ISTART =      0    job   : 0-new  1-cont  2-samecut
   ICHARG =      2    charge: 1-file 2-atom 10-const
   ISPIN  =      1    spin polarized calculation?
   LNONCOLLINEAR =      F non collinear calculations
   LSORBIT =      F    spin-orbit coupling
   INIWAV =      1    electr: 0-lowe 1-rand  2-diag
   LASPH  =      F    aspherical Exc in radial PAW
 Electronic Relaxation 1
   ENCUT  = 1000.0 eV  73.50 Ry    8.57 a.u.  31.78 31.78 64.46*2*pi/ulx,y,z
   ENINI  = 1000.0     initial cutoff
   ENAUG  =  946.8 eV  augmentation charge cutoff
   NELM   =     60;   NELMIN=  2; NELMDL= -5     # of ELM steps 
   EDIFF  = 0.1E-05   stopping-criterion for ELM
   LREAL  =      F    real-space projection
   NLSPLINE    = F    spline interpolate recip. space projectors
   LCOMPAT=      F    compatible to vasp.4.4
   GGA_COMPAT  = T    GGA compatible to vasp.4.4-vasp.4.6
   LMAXPAW     = -100 max onsite density
   LMAXMIX     =    2 max onsite mixed and CHGCAR
   VOSKOWN=      0    Vosko Wilk Nusair interpolation
   ROPT   =    0.00000   0.00000
 Ionic relaxation
   EDIFFG = 0.1E-04   stopping-criterion for IOM
   NSW    =      0    number of steps for IOM
   NBLOCK =      1;   KBLOCK =      1    inner block; outer block 
   IBRION =     -1    ionic relax: 0-MD 1-quasi-New 2-CG
   NFREE  =      0    steps in history (QN), initial steepest desc. (CG)
   ISIF   =      0    stress and relaxation
   IWAVPR =     10    prediction:  0-non 1-charg 2-wave 3-comb
   ISYM   =      2    0-nonsym 1-usesym 2-fastsym
   LCORR  =      T    Harris-Foulkes like correction to forces

   POTIM  = 0.5000    time-step for ionic-motion
   TEIN   =    0.0    initial temperature
   TEBEG  =    0.0;   TEEND  =   0.0 temperature during run
   SMASS  =  -3.00    Nose mass-parameter (am)
   estimated Nose-frequenzy (Omega)   =  0.10E-29 period in steps = 0.13E+47 mass=  -0.347E-26a.u.
   SCALEE = 1.0000    scale energy and forces
   NPACO  =    256;   APACO  = 16.0  distance and # of slots for P.C.
   PSTRESS=    0.0 pullay stress

  Mass of Ions in am
   POMASS =  12.01 16.00
  Ionic Valenz
   ZVAL   =   4.00  6.00
  Atomic Wigner-Seitz radii
   RWIGS  =  -1.00 -1.00
  virtual crystal weights 
   VCA    =   1.00  1.00
   NELECT =     216.0000    total number of electrons
   NUPDOWN=      -1.0000    fix difference up-down

 DOS related values:
   EMIN   =  10.00;   EMAX   =-10.00  energy-range for DOS
   EFERMI =   0.00
   ISMEAR =     0;   SIGMA  =   0.01  broadening in eV -4-tet -1-fermi 0-gaus

 Electronic relaxation 2 (details)
   IALGO  =     58    algorithm
   LDIAG  =      T    sub-space diagonalisation (order eigenvalues)
   LSUBROT=      F    optimize rotation matrix (better conditioning)
   TURBO    =      0    0=normal 1=particle mesh
   IRESTART =      0    0=no restart 2=restart with 2 vectors
   NREBOOT  =      0    no. of reboots
   NMIN     =      0    reboot dimension
   EREF     =   0.00    reference energy to select bands
   IMIX   =      4    mixing-type and parameters
     AMIX     =   0.40;   BMIX     =  1.00
     AMIX_MAG =   1.60;   BMIX_MAG =  1.00
     AMIN     =   0.10
     WC   =   100.;   INIMIX=   1;  MIXPRE=   1;  MAXMIX= -45

 Intra band minimization:
   WEIMIN = 0.0000     energy-eigenvalue tresh-hold
   EBREAK =  0.18E-08  absolut break condition
   DEPER  =   0.30     relativ break condition  

   TIME   =   0.40     timestep for ELM

  volume/ion in A,a.u.               =      62.05       418.76
  Fermi-wavevector in a.u.,A,eV,Ry     =   0.660508  1.248179  5.935820  0.436270
  Thomas-Fermi vector in A             =   1.732977
 
 Write flags
   LWAVE        =      F    write WAVECAR
   LDOWNSAMPLE  =      F    k-point downsampling of WAVECAR
   LCHARG       =      T    write CHGCAR
   LVTOT        =      F    write LOCPOT, total local potential
   LVHAR        =      F    write LOCPOT, Hartree potential only
   LELF         =      F    write electronic localiz. function (ELF)
   LORBIT       =      0    0 simple, 1 ext, 2 COOP (PROOUT), +10 PAW based schemes


 Dipole corrections
   LMONO  =      F    monopole corrections only (constant potential shift)
   LDIPOL =      F    correct potential (dipole corrections)
   IDIPOL =      0    1-x, 2-y, 3-z, 4-all directions 
   EPSILON=  1.0000000 bulk dielectric constant

 Exchange correlation treatment:
   GGA     =    RE    GGA type
   LEXCH   =    40    internal setting for exchange type
   VOSKOWN=      0    Vosko Wilk Nusair interpolation
   LHFCALC =     F    Hartree Fock is set to
   LHFONE  =     F    Hartree Fock one center treatment
   AEXX    =    0.0000 exact exchange contribution

 Linear response parameters
   LEPSILON=     F    determine dielectric tensor
   LRPA    =     F    only Hartree local field effects (RPA)
   LNABLA  =     F    use nabla operator in PAW spheres
   LVEL    =     F    velocity operator in full k-point grid
   LINTERFAST=   F  fast interpolation
   KINTER  =     0    interpolate to denser k-point grid
   CSHIFT  =0.1000    complex shift for real part using Kramers Kronig
   OMEGAMAX=  -1.0    maximum frequency
   DEG_THRESHOLD= 0.2000000E-02 threshold for treating states as degnerate
   RTIME   =   -0.100 relaxation time in fs
  (WPLASMAI=    0.000 imaginary part of plasma frequency in eV, 0.658/RTIME)
   DFIELD  = 0.0000000 0.0000000 0.0000000 field for delta impulse in time
 
 Orbital magnetization related:
   ORBITALMAG=     F  switch on orbital magnetization
   LCHIMAG   =     F  perturbation theory with respect to B field
   DQ        =  0.001000  dq finite difference perturbation B field
   LLRAUG    =     F  two centre corrections for induced B field



--------------------------------------------------------------------------------------------------------


 Static calculation
 charge density and potential will be updated during run
 non-spin polarized calculation
 Conjugate gradient for all bands (Freysoldt, et al. PRB 79, 241103 (2009))
 preconditioned conjugated gradient                                        
 perform sub-space diagonalisation
    before iterative eigenvector-optimisation
 modified Broyden-mixing scheme, WC =      100.0
 initial mixing is a Kerker type mixing with AMIX =  0.4000 and BMIX =      1.0000
 Hartree-type preconditioning will be used
 using additional bands           32
 reciprocal scheme for non local part
 use partial core corrections
 no Harris-corrections to forces 
 use gradient corrections 
 use of overlap-Matrix (Vanderbilt PP)
 Gauss-broadening in eV      SIGMA  =   0.01


--------------------------------------------------------------------------------------------------------


  energy-cutoff  :     1000.00
  volume of cell :     3288.85
      direct lattice vectors                 reciprocal lattice vectors
    12.325000000  0.000000000  0.000000000     0.081135903  0.046843835  0.000000000
    -6.162500000 10.673763102  0.000000000     0.000000000  0.093687670  0.000000000
     0.000000000  0.000000000 25.000000000     0.000000000  0.000000000  0.040000000

  length of vectors
    12.325000000 12.325000000 25.000000000     0.093687670  0.093687670  0.040000000


 
 k-points in units of 2pi/SCALE and weight: auto                                    
   0.00000000  0.00000000  0.00000000       1.000
 
 k-points in reciprocal lattice and weights: auto                                    
   0.00000000  0.00000000  0.00000000       1.000
 
 position of ions in fractional coordinates (direct lattice) 
   0.97245084  0.00032082  0.00056671
   0.03911838  0.13365950  0.00044017
   0.17244363  0.00029545  0.00049963
   0.23909628  0.13364792  0.00025647
   0.97245206  0.20032201  0.00048522
   0.03912836  0.33364377  0.00044415
   0.17245176  0.20035455  0.00021917
   0.23912436  0.33366572  0.00007226
   0.37246557  0.00032440  0.00045391
   0.43913747  0.13361994  0.00025834
   0.97244982  0.40030936  0.00054761
   0.03912498  0.53363679  0.00057341
   0.37241618  0.40032948  0.00000000
   0.43909960  0.53363898  0.00023241
   0.57244368  0.00031213  0.00055958
   0.63911021  0.13363175  0.00054727
   0.97245270  0.60030565  0.00064029
   0.03912449  0.73364036  0.00065451
   0.57243347  0.60030624  0.00040289
   0.63911189  0.73364188  0.00052791
   0.17245463  0.40031823  0.00028904
   0.23912018  0.53363655  0.00037851
   0.37245975  0.20029599  0.00008900
   0.43910710  0.33367342  0.00005576
   0.17245216  0.60031151  0.00052434
   0.23912337  0.73363857  0.00057513
   0.57243108  0.20028917  0.00041330
   0.63911277  0.33361863  0.00046238
   0.37243981  0.60030802  0.00036284
   0.43911609  0.73363786  0.00049419
   0.57246936  0.40032050  0.00033992
   0.63911941  0.53365087  0.00045961
   0.77244572  0.00031543  0.00059616
   0.83911628  0.13364020  0.00057531
   0.77244051  0.20030743  0.00058103
   0.83912024  0.33363573  0.00058547
   0.77244632  0.40029837  0.00058298
   0.83911898  0.53363396  0.00062110
   0.77245614  0.60030817  0.00059571
   0.83911503  0.73364318  0.00063151
   0.97245531  0.80030558  0.00065223
   0.03911471  0.93364329  0.00059805
   0.17245797  0.80031221  0.00062337
   0.23913455  0.93364719  0.00054485
   0.37245140  0.80031667  0.00055140
   0.43912449  0.93364477  0.00054143
   0.57244110  0.80031005  0.00053453
   0.63911507  0.93363899  0.00058764
   0.77244510  0.80031319  0.00060206
   0.83911661  0.93364434  0.00060683
   0.37302101  0.25122688  0.28284271
   0.42087980  0.18931315  0.28541959
   0.32515698  0.31316719  0.28046452
 
 position of ions in cartesian coordinates  (Angst):
  11.98347958  0.00342433  0.01416777
  -0.34154264  1.42664989  0.01100432
   2.12354700  0.00315355  0.01249070
   2.12325634  1.42652621  0.00641170
  10.75098721  2.13818970  0.01213047
  -1.57382270  3.56123457  0.01110375
   0.89078307  2.13853702  0.00547917
   0.89099273  3.56146885  0.00180651
   4.58863896  0.00346260  0.01134782
   4.58893648  1.42622757  0.00645846
   9.51853763  4.27280730  0.01369027
  -2.80632132  5.69591267  0.01433526
   2.12299894  4.27302204  0.00000000
   2.12335237  5.69593607  0.00581036
   7.05344483  0.00333155  0.01398950
   7.05352764  1.42635365  0.01368187
   8.28609598  6.40752033  0.01600723
  -4.03884931  7.83070339  0.01636283
   3.35585531  6.40752662  0.01007237
   3.35598594  7.83071962  0.01319763
  -0.34145776  4.27290193  0.00722612
  -0.34137895  5.69591010  0.00946273
   3.35624236  2.13791198  0.00222492
   3.35573251  3.56155103  0.00139405
  -1.57394684  6.40758280  0.01310850
  -1.57385216  7.83068434  0.01437823
   5.82093107  2.13783916  0.01033241
   5.82114012  3.56096622  0.01155939
   0.89092245  6.40754561  0.00907111
   0.89106251  7.83067670  0.01235474
   4.58870974  4.27292622  0.00849795
   4.58852320  5.69606300  0.01149026
   9.51844972  0.00336679  0.01490402
   9.51855036  1.42644387  0.01438264
   8.28593477  2.13803408  0.01452582
   8.28612680  3.56114872  0.01463668
   7.05356221  4.27268994  0.01457444
   7.05362213  5.69588251  0.01552751
   5.82112285  6.40754723  0.01489279
   5.82101669  7.83073350  0.01578780
   7.05362858  8.54227219  0.01630582
  -5.27148792  9.96548729  0.01495127
  -2.80637951  8.54234295  0.01558431
  -2.80626749  9.96552896  0.01362126
  -0.34148805  8.54239058  0.01378498
  -0.34137657  9.96550309  0.01353576
   2.12342586  8.54231992  0.01336337
   2.12354296  9.96544135  0.01469111
   4.58845581  8.54235337  0.01505154
   4.58852904  9.96549848  0.01517076
   3.04929830  2.68153618  7.07106781
   4.02070129  2.02068374  7.13548967
   2.07766701  3.34267235  7.01161294
 


--------------------------------------------------------------------------------------------------------


 k-point   1 :   0.0000 0.0000 0.0000  plane waves:  236157

 maximum and minimum number of plane-waves per node :     59046    59034

 maximum number of plane-waves:    236157
 maximum index in each direction: 
   IXMAX=   31   IYMAX=   31   IZMAX=   64
   IXMIN=  -31   IYMIN=  -31   IZMIN=  -64


 parallel 3D FFT for wavefunctions:
    minimum data exchange during FFTs selected (reduces bandwidth)
 parallel 3D FFT for charge:
    minimum data exchange during FFTs selected (reduces bandwidth)


 total amount of memory used by VASP MPI-rank0   215378. kBytes
=======================================================================

   base      :      30000. kBytes
   nonl-proj :      57634. kBytes
   fftplans  :      45914. kBytes
   grid      :      67588. kBytes
   one-center:         43. kBytes
   wavefun   :      14199. kBytes
 
     INWAV:  cpu time    0.0001: real time    0.0000
 Broyden mixing: mesh for mixing (old mesh)
   NGX = 63   NGY = 63   NGZ =129
  (NGX  =256   NGY  =256   NGZ  =540)
  gives a total of 512001 points

 initial charge density was supplied:
 charge density of overlapping atoms calculated
 number of electron     216.0000000 magnetization 
 keeping initial charge density in first step


--------------------------------------------------------------------------------------------------------


 Maximum index for augmentation-charges          471 (set IRDMAX)


--------------------------------------------------------------------------------------------------------


 First call to EWALD:  gamma=   0.119
 Maximum number of real-space cells 4x 4x 2
 Maximum number of reciprocal cells 2x 2x 4

    FEWALD:  cpu time    0.0021: real time    0.0022


--------------------------------------- Iteration      1(   1)  ---------------------------------------


    POTLOK:  cpu time    0.3946: real time    0.3982
    SETDIJ:  cpu time    0.0050: real time    0.0052
    TRIAL :  cpu time    5.6689: real time    5.7279
    CORREC:  cpu time    0.0005: real time    0.0005
    --------------------------------------------
      LOOP:  cpu time    6.0718: real time    6.1596

 eigenvalue-minimisations  :   280
 total energy-change (2. order) : 0.2770912E+04  (-0.1022593E+05)
 number of electron     216.0000000 magnetization 
 augmentation part      216.0000000 magnetization 

 Free energy of the ion-electron system (eV)
  ---------------------------------------------------
  alpha Z        PSCENC =        47.94900195
  Ewald energy   TEWEN  =     42432.44515335
  -Hartree energ DENC   =    -48501.64799612
  -exchange      EXHF   =         0.00000000
  -V(xc)+E(xc)   XCENC  =       415.89442625
  PAW double counting   =      6538.03749920    -6258.26020123
  entropy T*S    EENTRO =        -0.00000001
  eigenvalues    EBANDS =      -267.81490082
  atomic energy  EATOM  =      8364.30921166
  ---------------------------------------------------
  free energy    TOTEN  =      2770.91219424 eV

  energy without entropy =     2770.91219425  energy(sigma->0) =     2770.91219425


--------------------------------------------------------------------------------------------------------




--------------------------------------- Iteration      1(   2)  ---------------------------------------


    TRIAL :  cpu time    8.2008: real time    8.2803
    CORREC:  cpu time    0.0001: real time    0.0001
    --------------------------------------------
      LOOP:  cpu time    8.2355: real time    8.3165

 eigenvalue-minimisations  :   448
 total energy-change (2. order) :-0.2427369E+04  (-0.2261851E+04)
 number of electron     216.0000000 magnetization 
 augmentation part      216.0000000 magnetization 

 Free energy of the ion-electron system (eV)
  ---------------------------------------------------
  alpha Z        PSCENC =        47.94900195
  Ewald energy   TEWEN  =     42432.44515335
  -Hartree energ DENC   =    -48501.64799612
  -exchange      EXHF   =         0.00000000
  -V(xc)+E(xc)   XCENC  =       415.89442625
  PAW double counting   =      6538.03749920    -6258.26020123
  entropy T*S    EENTRO =        -0.00000000
  eigenvalues    EBANDS =     -2695.18341713
  atomic energy  EATOM  =      8364.30921166
  ---------------------------------------------------
  free energy    TOTEN  =       343.54367794 eV

  energy without entropy =      343.54367794  energy(sigma->0) =      343.54367794


--------------------------------------------------------------------------------------------------------




--------------------------------------- Iteration      1(   3)  ---------------------------------------


    TRIAL :  cpu time    6.9175: real time    6.9819
    CORREC:  cpu time    0.0001: real time    0.0003
    --------------------------------------------
      LOOP:  cpu time    6.9659: real time    7.0348

 eigenvalue-minimisations  :   364
 total energy-change (2. order) :-0.7876790E+03  (-0.7787434E+03)
 number of electron     216.0000000 magnetization 
 augmentation part      216.0000000 magnetization 

 Free energy of the ion-electron system (eV)
  ---------------------------------------------------
  alpha Z        PSCENC =        47.94900195
  Ewald energy   TEWEN  =     42432.44515335
  -Hartree energ DENC   =    -48501.64799612
  -exchange      EXHF   =         0.00000000
  -V(xc)+E(xc)   XCENC  =       415.89442625
  PAW double counting   =      6538.03749920    -6258.26020123
  entropy T*S    EENTRO =        -0.00000000
  eigenvalues    EBANDS =     -3482.86243272
  atomic energy  EATOM  =      8364.30921166
  ---------------------------------------------------
  free energy    TOTEN  =      -444.13533765 eV

  energy without entropy =     -444.13533765  energy(sigma->0) =     -444.13533765


--------------------------------------------------------------------------------------------------------




--------------------------------------- Iteration      1(   4)  ---------------------------------------


    TRIAL :  cpu time    6.4966: real time    6.5574
    CORREC:  cpu time    0.0001: real time    0.0001
    --------------------------------------------
      LOOP:  cpu time    6.5325: real time    6.6053

 eigenvalue-minimisations  :   336
 total energy-change (2. order) :-0.5300592E+02  (-0.5269064E+02)
 number of electron     216.0000000 magnetization 
 augmentation part      216.0000000 magnetization 

 Free energy of the ion-electron system (eV)
  ---------------------------------------------------
  alpha Z        PSCENC =        47.94900195
  Ewald energy   TEWEN  =     42432.44515335
  -Hartree energ DENC   =    -48501.64799612
  -exchange      EXHF   =         0.00000000
  -V(xc)+E(xc)   XCENC  =       415.89442625
  PAW double counting   =      6538.03749920    -6258.26020123
  entropy T*S    EENTRO =        -0.00000000
  eigenvalues    EBANDS =     -3535.86834873
  atomic energy  EATOM  =      8364.30921166
  ---------------------------------------------------
  free energy    TOTEN  =      -497.14125366 eV

  energy without entropy =     -497.14125366  energy(sigma->0) =     -497.14125366


--------------------------------------------------------------------------------------------------------




--------------------------------------- Iteration      1(   5)  ---------------------------------------


    TRIAL :  cpu time    7.7732: real time    7.8512
    CORREC:  cpu time    0.0001: real time    0.0001
    CHARGE:  cpu time    0.3185: real time    0.3219
    --------------------------------------------
      LOOP:  cpu time    8.1376: real time    8.2398

 eigenvalue-minimisations  :   420
 total energy-change (2. order) :-0.1472888E+01  (-0.1469894E+01)
 number of electron     216.0000000 magnetization 
 augmentation part       -0.3142507 magnetization 

 Free energy of the ion-electron system (eV)
  ---------------------------------------------------
  alpha Z        PSCENC =        47.94900195
  Ewald energy   TEWEN  =     42432.44515335
  -Hartree energ DENC   =    -48501.64799612
  -exchange      EXHF   =         0.00000000
  -V(xc)+E(xc)   XCENC  =       415.89442625
  PAW double counting   =      6538.03749920    -6258.26020123
  entropy T*S    EENTRO =        -0.00000000
  eigenvalues    EBANDS =     -3537.34123670
  atomic energy  EATOM  =      8364.30921166
  ---------------------------------------------------
  free energy    TOTEN  =      -498.61414163 eV

  energy without entropy =     -498.61414163  energy(sigma->0) =     -498.61414163


--------------------------------------------------------------------------------------------------------




--------------------------------------- Iteration      1(   6)  ---------------------------------------


    POTLOK:  cpu time    0.3810: real time    0.3837
    SETDIJ:  cpu time    0.0029: real time    0.0029
    TRIAL :  cpu time    2.7081: real time    2.7352
    CORREC:  cpu time    1.0705: real time    1.0790
    CHARGE:  cpu time    0.3135: real time    0.3159
    --------------------------------------------
      LOOP:  cpu time    4.5396: real time    4.5826

 eigenvalue-minimisations  :     0
 total energy-change (2. order) : 0.4864337E+02  (-0.1442037E+02)
 number of electron     216.0000000 magnetization 
 augmentation part       -0.4053513 magnetization 

 Free energy of the ion-electron system (eV)
  ---------------------------------------------------
  alpha Z        PSCENC =        47.94900195
  Ewald energy   TEWEN  =     42432.44515335
  -Hartree energ DENC   =    -49929.46720245
  -exchange      EXHF   =         0.00000000
  -V(xc)+E(xc)   XCENC  =       462.93773727
  PAW double counting   =    104357.94909685  -104083.52382442
  entropy T*S    EENTRO =        -0.00000000
  eigenvalues    EBANDS =     -2102.56994514
  atomic energy  EATOM  =      8364.30921166
  ---------------------------------------------------
  free energy    TOTEN  =      -449.97077092 eV

  energy without entropy =     -449.97077092  energy(sigma->0) =     -449.97077092


--------------------------------------------------------------------------------------------------------




--------------------------------------- Iteration      1(   7)  ---------------------------------------


    POTLOK:  cpu time    0.3831: real time    0.3862
    SETDIJ:  cpu time    0.0030: real time    0.0030
    TRIAL :  cpu time    2.7095: real time    2.7345
    CORREC:  cpu time    1.0735: real time    1.0820
    CHARGE:  cpu time    0.3135: real time    0.3157
    --------------------------------------------
      LOOP:  cpu time    4.5191: real time    4.5786

 eigenvalue-minimisations  :     0
 total energy-change (2. order) :-0.1445866E+02  (-0.1763051E+01)
 number of electron     216.0000000 magnetization 
 augmentation part       -0.4515356 magnetization 

 Free energy of the ion-electron system (eV)
  ---------------------------------------------------
  alpha Z        PSCENC =        47.94900195
  Ewald energy   TEWEN  =     42432.44515335
  -Hartree energ DENC   =    -49438.08670378
  -exchange      EXHF   =         0.00000000
  -V(xc)+E(xc)   XCENC  =       446.78938996
  PAW double counting   =    120514.68494491  -120238.19905358
  entropy T*S    EENTRO =        -0.00000000
  eigenvalues    EBANDS =     -2594.32137856
  atomic energy  EATOM  =      8364.30921166
  ---------------------------------------------------
  free energy    TOTEN  =      -464.42943407 eV

  energy without entropy =     -464.42943407  energy(sigma->0) =     -464.42943407


--------------------------------------------------------------------------------------------------------




--------------------------------------- Iteration      1(   8)  ---------------------------------------


    POTLOK:  cpu time    0.3839: real time    0.3866
    SETDIJ:  cpu time    0.0029: real time    0.0029
    TRIAL :  cpu time    2.7090: real time    2.7371
    CORREC:  cpu time    1.0682: real time    1.0815
    CHARGE:  cpu time    0.3127: real time    0.3168
    --------------------------------------------
      LOOP:  cpu time    4.5235: real time    4.5725

 eigenvalue-minimisations  :     0
 total energy-change (2. order) :-0.1761882E+01  (-0.4598436E+00)
 number of electron     216.0000000 magnetization 
 augmentation part       -0.4674227 magnetization 

 Free energy of the ion-electron system (eV)
  ---------------------------------------------------
  alpha Z        PSCENC =        47.94900195
  Ewald energy   TEWEN  =     42432.44515335
  -Hartree energ DENC   =    -49407.19102346
  -exchange      EXHF   =         0.00000000
  -V(xc)+E(xc)   XCENC  =       446.17321596
  PAW double counting   =    124708.51076336  -124431.73046413
  entropy T*S    EENTRO =        -0.00000000
  eigenvalues    EBANDS =     -2626.65717520
  atomic energy  EATOM  =      8364.30921166
  ---------------------------------------------------
  free energy    TOTEN  =      -466.19131650 eV

  energy without entropy =     -466.19131650  energy(sigma->0) =     -466.19131650


--------------------------------------------------------------------------------------------------------




--------------------------------------- Iteration      1(   9)  ---------------------------------------


    POTLOK:  cpu time    0.3798: real time    0.3824
    SETDIJ:  cpu time    0.0029: real time    0.0029
    TRIAL :  cpu time    2.7110: real time    2.7371
    CORREC:  cpu time    1.0685: real time    1.0776
    CHARGE:  cpu time    0.3143: real time    0.3165
    --------------------------------------------
      LOOP:  cpu time    4.4997: real time    4.5708

 eigenvalue-minimisations  :     0
 total energy-change (2. order) :-0.4597202E+00  (-0.1436150E+00)
 number of electron     216.0000000 magnetization 
 augmentation part       -0.4742836 magnetization 

 Free energy of the ion-electron system (eV)
  ---------------------------------------------------
  alpha Z        PSCENC =        47.94900195
  Ewald energy   TEWEN  =     42432.44515335
  -Hartree energ DENC   =    -49423.90458012
  -exchange      EXHF   =         0.00000000
  -V(xc)+E(xc)   XCENC  =       446.36457040
  PAW double counting   =    127213.09596527  -126936.21407968
  entropy T*S    EENTRO =        -0.00000000
  eigenvalues    EBANDS =     -2610.69627959
  atomic energy  EATOM  =      8364.30921166
  ---------------------------------------------------
  free energy    TOTEN  =      -466.65103675 eV

  energy without entropy =     -466.65103675  energy(sigma->0) =     -466.65103675


--------------------------------------------------------------------------------------------------------




--------------------------------------- Iteration      1(  10)  ---------------------------------------


    POTLOK:  cpu time    0.3931: real time    0.3956
    SETDIJ:  cpu time    0.0048: real time    0.0048
    TRIAL :  cpu time    2.7098: real time    2.7346
    CORREC:  cpu time    1.0686: real time    1.0770
    CHARGE:  cpu time    0.3145: real time    0.3168
    --------------------------------------------
      LOOP:  cpu time    4.5548: real time    4.5991

 eigenvalue-minimisations  :     0
 total energy-change (2. order) :-0.1434419E+00  (-0.5624505E-01)
 number of electron     216.0000000 magnetization 
 augmentation part       -0.4749129 magnetization 

 Free energy of the ion-electron system (eV)
  ---------------------------------------------------
  alpha Z        PSCENC =        47.94900195
  Ewald energy   TEWEN  =     42432.44515335
  -Hartree energ DENC   =    -49425.65630585
  -exchange      EXHF   =         0.00000000
  -V(xc)+E(xc)   XCENC  =       446.29255319
  PAW double counting   =    127447.65776259  -127170.71578310
  entropy T*S    EENTRO =        -0.00000000
  eigenvalues    EBANDS =     -2609.07607249
  atomic energy  EATOM  =      8364.30921166
  ---------------------------------------------------
  free energy    TOTEN  =      -466.79447868 eV

  energy without entropy =     -466.79447868  energy(sigma->0) =     -466.79447868


--------------------------------------------------------------------------------------------------------




--------------------------------------- Iteration      1(  11)  ---------------------------------------


    POTLOK:  cpu time    0.3824: real time    0.3849
    SETDIJ:  cpu time    0.0030: real time    0.0031
    TRIAL :  cpu time    2.7105: real time    2.7361
    CORREC:  cpu time    1.0701: real time    1.0787
    CHARGE:  cpu time    0.3143: real time    0.3166
    --------------------------------------------
      LOOP:  cpu time    4.5488: real time    4.5907

 eigenvalue-minimisations  :     0
 total energy-change (2. order) :-0.5612471E-01  (-0.2278593E-01)
 number of electron     216.0000000 magnetization 
 augmentation part       -0.4745851 magnetization 

 Free energy of the ion-electron system (eV)
  ---------------------------------------------------
  alpha Z        PSCENC =        47.94900195
  Ewald energy   TEWEN  =     42432.44515335
  -Hartree energ DENC   =    -49422.19778653
  -exchange      EXHF   =         0.00000000
  -V(xc)+E(xc)   XCENC  =       446.23817173
  PAW double counting   =    126853.06113651  -126576.12071636
  entropy T*S    EENTRO =        -0.00000000
  eigenvalues    EBANDS =     -2612.53477571
  atomic energy  EATOM  =      8364.30921166
  ---------------------------------------------------
  free energy    TOTEN  =      -466.85060339 eV

  energy without entropy =     -466.85060339  energy(sigma->0) =     -466.85060339


--------------------------------------------------------------------------------------------------------




--------------------------------------- Iteration      1(  12)  ---------------------------------------


    POTLOK:  cpu time    0.3818: real time    0.3841
    SETDIJ:  cpu time    0.0030: real time    0.0030
    TRIAL :  cpu time    2.7082: real time    2.7335
    CORREC:  cpu time    1.0678: real time    1.0762
    CHARGE:  cpu time    0.3132: real time    0.3155
    --------------------------------------------
      LOOP:  cpu time    4.5841: real time    4.6247

 eigenvalue-minimisations  :     0
 total energy-change (2. order) :-0.2269339E-01  (-0.8069409E-02)
 number of electron     216.0000000 magnetization 
 augmentation part       -0.4747727 magnetization 

 Free energy of the ion-electron system (eV)
  ---------------------------------------------------
  alpha Z        PSCENC =        47.94900195
  Ewald energy   TEWEN  =     42432.44515335
  -Hartree energ DENC   =    -49420.60863671
  -exchange      EXHF   =         0.00000000
  -V(xc)+E(xc)   XCENC  =       446.20509590
  PAW double counting   =    126469.92068531  -126192.99571734
  entropy T*S    EENTRO =        -0.00000000
  eigenvalues    EBANDS =     -2614.09809091
  atomic energy  EATOM  =      8364.30921166
  ---------------------------------------------------
  free energy    TOTEN  =      -466.87329678 eV

  energy without entropy =     -466.87329678  energy(sigma->0) =     -466.87329678


--------------------------------------------------------------------------------------------------------




--------------------------------------- Iteration      1(  13)  ---------------------------------------


    POTLOK:  cpu time    0.3866: real time    0.3890
    SETDIJ:  cpu time    0.0029: real time    0.0029
    TRIAL :  cpu time    2.7117: real time    2.7367
    CORREC:  cpu time    1.0625: real time    1.0719
    CHARGE:  cpu time    0.3129: real time    0.3161
    --------------------------------------------
      LOOP:  cpu time    4.5132: real time    4.5535

 eigenvalue-minimisations  :     0
 total energy-change (2. order) :-0.8050854E-02  (-0.2441089E-02)
 number of electron     216.0000000 magnetization 
 augmentation part       -0.4744752 magnetization 

 Free energy of the ion-electron system (eV)
  ---------------------------------------------------
  alpha Z        PSCENC =        47.94900195
  Ewald energy   TEWEN  =     42432.44515335
  -Hartree energ DENC   =    -49420.58536696
  -exchange      EXHF   =         0.00000000
  -V(xc)+E(xc)   XCENC  =       446.19778415
  PAW double counting   =    126392.41456861  -126115.49515749
  entropy T*S    EENTRO =        -0.00000000
  eigenvalues    EBANDS =     -2614.11654293
  atomic energy  EATOM  =      8364.30921166
  ---------------------------------------------------
  free energy    TOTEN  =      -466.88134764 eV

  energy without entropy =     -466.88134764  energy(sigma->0) =     -466.88134764


--------------------------------------------------------------------------------------------------------




--------------------------------------- Iteration      1(  14)  ---------------------------------------


    POTLOK:  cpu time    0.3783: real time    0.3811
    SETDIJ:  cpu time    0.0029: real time    0.0029
    TRIAL :  cpu time    2.7011: real time    2.7337
    CORREC:  cpu time    1.0631: real time    1.0748
    CHARGE:  cpu time    0.3121: real time    0.3159
    --------------------------------------------
      LOOP:  cpu time    4.5064: real time    4.5598

 eigenvalue-minimisations  :     0
 total energy-change (2. order) :-0.2441649E-02  (-0.7051340E-03)
 number of electron     216.0000000 magnetization 
 augmentation part       -0.4742442 magnetization 

 Free energy of the ion-electron system (eV)
  ---------------------------------------------------
  alpha Z        PSCENC =        47.94900195
  Ewald energy   TEWEN  =     42432.44515335
  -Hartree energ DENC   =    -49420.54382590
  -exchange      EXHF   =         0.00000000
  -V(xc)+E(xc)   XCENC  =       446.19924878
  PAW double counting   =    126455.53495069  -126178.61683316
  entropy T*S    EENTRO =        -0.00000000
  eigenvalues    EBANDS =     -2614.16069666
  atomic energy  EATOM  =      8364.30921166
  ---------------------------------------------------
  free energy    TOTEN  =      -466.88378928 eV

  energy without entropy =     -466.88378928  energy(sigma->0) =     -466.88378928


--------------------------------------------------------------------------------------------------------




--------------------------------------- Iteration      1(  15)  ---------------------------------------


    POTLOK:  cpu time    0.3756: real time    0.3781
    SETDIJ:  cpu time    0.0029: real time    0.0030
    TRIAL :  cpu time    2.7082: real time    2.7383
    CORREC:  cpu time    1.0604: real time    1.0705
    CHARGE:  cpu time    0.3134: real time    0.3166
    --------------------------------------------
      LOOP:  cpu time    4.5325: real time    4.5790

 eigenvalue-minimisations  :     0
 total energy-change (2. order) :-0.7072334E-03  (-0.2442677E-03)
 number of electron     216.0000000 magnetization 
 augmentation part       -0.4739447 magnetization 

 Free energy of the ion-electron system (eV)
  ---------------------------------------------------
  alpha Z        PSCENC =        47.94900195
  Ewald energy   TEWEN  =     42432.44515335
  -Hartree energ DENC   =    -49420.18118086
  -exchange      EXHF   =         0.00000000
  -V(xc)+E(xc)   XCENC  =       446.18587825
  PAW double counting   =    126496.63961361  -126219.72000488
  entropy T*S    EENTRO =        -0.00000000
  eigenvalues    EBANDS =     -2614.51216961
  atomic energy  EATOM  =      8364.30921166
  ---------------------------------------------------
  free energy    TOTEN  =      -466.88449652 eV

  energy without entropy =     -466.88449652  energy(sigma->0) =     -466.88449652


--------------------------------------------------------------------------------------------------------




--------------------------------------- Iteration      1(  16)  ---------------------------------------


    POTLOK:  cpu time    0.3777: real time    0.3805
    SETDIJ:  cpu time    0.0030: real time    0.0030
    TRIAL :  cpu time    2.7058: real time    2.7372
    CORREC:  cpu time    1.0611: real time    1.0725
    CHARGE:  cpu time    0.3138: real time    0.3165
    --------------------------------------------
      LOOP:  cpu time    4.5194: real time    4.5693

 eigenvalue-minimisations  :     0
 total energy-change (2. order) :-0.2457993E-03  (-0.9704184E-04)
 number of electron     216.0000000 magnetization 
 augmentation part       -0.4737734 magnetization 

 Free energy of the ion-electron system (eV)
  ---------------------------------------------------
  alpha Z        PSCENC =        47.94900195
  Ewald energy   TEWEN  =     42432.44515335
  -Hartree energ DENC   =    -49420.29798152
  -exchange      EXHF   =         0.00000000
  -V(xc)+E(xc)   XCENC  =       446.19066978
  PAW double counting   =    126476.67724127  -126199.75833205
  entropy T*S    EENTRO =        -0.00000000
  eigenvalues    EBANDS =     -2614.39970677
  atomic energy  EATOM  =      8364.30921166
  ---------------------------------------------------
  free energy    TOTEN  =      -466.88474232 eV

  energy without entropy =     -466.88474232  energy(sigma->0) =     -466.88474232


--------------------------------------------------------------------------------------------------------




--------------------------------------- Iteration      1(  17)  ---------------------------------------


    POTLOK:  cpu time    0.3751: real time    0.3783
    SETDIJ:  cpu time    0.0029: real time    0.0029
    TRIAL :  cpu time    2.7079: real time    2.7375
    CORREC:  cpu time    1.0641: real time    1.0737
    CHARGE:  cpu time    0.3130: real time    0.3161
    --------------------------------------------
      LOOP:  cpu time    4.4902: real time    4.5611

 eigenvalue-minimisations  :     0
 total energy-change (2. order) :-0.9797189E-04  (-0.3725304E-04)
 number of electron     216.0000000 magnetization 
 augmentation part       -0.4737570 magnetization 

 Free energy of the ion-electron system (eV)
  ---------------------------------------------------
  alpha Z        PSCENC =        47.94900195
  Ewald energy   TEWEN  =     42432.44515335
  -Hartree energ DENC   =    -49420.40209018
  -exchange      EXHF   =         0.00000000
  -V(xc)+E(xc)   XCENC  =       446.19322185
  PAW double counting   =    126446.17283834  -126169.25416985
  entropy T*S    EENTRO =        -0.00000000
  eigenvalues    EBANDS =     -2614.29800742
  atomic energy  EATOM  =      8364.30921166
  ---------------------------------------------------
  free energy    TOTEN  =      -466.88484029 eV

  energy without entropy =     -466.88484029  energy(sigma->0) =     -466.88484029


--------------------------------------------------------------------------------------------------------




--------------------------------------- Iteration      1(  18)  ---------------------------------------


    POTLOK:  cpu time    0.3740: real time    0.3767
    SETDIJ:  cpu time    0.0029: real time    0.0030
    TRIAL :  cpu time    2.7073: real time    2.7374
    CORREC:  cpu time    1.0665: real time    1.0769
    CHARGE:  cpu time    0.3133: real time    0.3160
    --------------------------------------------
      LOOP:  cpu time    4.4984: real time    4.5681

 eigenvalue-minimisations  :     0
 total energy-change (2. order) :-0.3750276E-04  (-0.1386347E-04)
 number of electron     216.0000000 magnetization 
 augmentation part       -0.4738188 magnetization 

 Free energy of the ion-electron system (eV)
  ---------------------------------------------------
  alpha Z        PSCENC =        47.94900195
  Ewald energy   TEWEN  =     42432.44515335
  -Hartree energ DENC   =    -49420.40215011
  -exchange      EXHF   =         0.00000000
  -V(xc)+E(xc)   XCENC  =       446.19284175
  PAW double counting   =    126436.69732103  -126159.77842354
  entropy T*S    EENTRO =        -0.00000000
  eigenvalues    EBANDS =     -2614.29783389
  atomic energy  EATOM  =      8364.30921166
  ---------------------------------------------------
  free energy    TOTEN  =      -466.88487779 eV

  energy without entropy =     -466.88487779  energy(sigma->0) =     -466.88487779


--------------------------------------------------------------------------------------------------------




--------------------------------------- Iteration      1(  19)  ---------------------------------------


    POTLOK:  cpu time    0.3760: real time    0.3794
    SETDIJ:  cpu time    0.0029: real time    0.0029
    TRIAL :  cpu time    2.7129: real time    2.7424
    CORREC:  cpu time    1.0620: real time    1.0727
    CHARGE:  cpu time    0.3129: real time    0.3160
    --------------------------------------------
      LOOP:  cpu time    4.5000: real time    4.5485

 eigenvalue-minimisations  :     0
 total energy-change (2. order) :-0.1357758E-04  (-0.5069499E-05)
 number of electron     216.0000000 magnetization 
 augmentation part       -0.4738893 magnetization 

 Free energy of the ion-electron system (eV)
  ---------------------------------------------------
  alpha Z        PSCENC =        47.94900195
  Ewald energy   TEWEN  =     42432.44515335
  -Hartree energ DENC   =    -49420.40304172
  -exchange      EXHF   =         0.00000000
  -V(xc)+E(xc)   XCENC  =       446.19306006
  PAW double counting   =    126441.16130090  -126164.24218886
  entropy T*S    EENTRO =        -0.00000000
  eigenvalues    EBANDS =     -2614.29738872
  atomic energy  EATOM  =      8364.30921166
  ---------------------------------------------------
  free energy    TOTEN  =      -466.88489137 eV

  energy without entropy =     -466.88489137  energy(sigma->0) =     -466.88489137


--------------------------------------------------------------------------------------------------------




--------------------------------------- Iteration      1(  20)  ---------------------------------------


    POTLOK:  cpu time    0.3748: real time    0.3775
    SETDIJ:  cpu time    0.0029: real time    0.0029
    TRIAL :  cpu time    2.7044: real time    2.7334
    CORREC:  cpu time    1.0642: real time    1.0727
    CHARGE:  cpu time    0.3133: real time    0.3155
    --------------------------------------------
      LOOP:  cpu time    4.5147: real time    4.5866

 eigenvalue-minimisations  :     0
 total energy-change (2. order) :-0.4624686E-05  (-0.1783105E-05)
 number of electron     216.0000000 magnetization 
 augmentation part       -0.4739079 magnetization 

 Free energy of the ion-electron system (eV)
  ---------------------------------------------------
  alpha Z        PSCENC =        47.94900195
  Ewald energy   TEWEN  =     42432.44515335
  -Hartree energ DENC   =    -49420.40995399
  -exchange      EXHF   =         0.00000000
  -V(xc)+E(xc)   XCENC  =       446.19303417
  PAW double counting   =    126447.02145588  -126170.10214108
  entropy T*S    EENTRO =        -0.00000000
  eigenvalues    EBANDS =     -2614.29065795
  atomic energy  EATOM  =      8364.30921166
  ---------------------------------------------------
  free energy    TOTEN  =      -466.88489599 eV

  energy without entropy =     -466.88489599  energy(sigma->0) =     -466.88489599


--------------------------------------------------------------------------------------------------------




--------------------------------------- Iteration      1(  21)  ---------------------------------------


    POTLOK:  cpu time    0.3735: real time    0.3759
    SETDIJ:  cpu time    0.0029: real time    0.0029
    TRIAL :  cpu time    2.7116: real time    2.7367
    CORREC:  cpu time    1.0631: real time    1.0710
    CHARGE:  cpu time    0.3131: real time    0.3154
    --------------------------------------------
      LOOP:  cpu time    4.4778: real time    4.5390

 eigenvalue-minimisations  :     0
 total energy-change (2. order) :-0.1574619E-05  (-0.6691357E-06)
 number of electron     216.0000000 magnetization 
 augmentation part       -0.4739160 magnetization 

 Free energy of the ion-electron system (eV)
  ---------------------------------------------------
  alpha Z        PSCENC =        47.94900195
  Ewald energy   TEWEN  =     42432.44515335
  -Hartree energ DENC   =    -49420.42069907
  -exchange      EXHF   =         0.00000000
  -V(xc)+E(xc)   XCENC  =       446.19354871
  PAW double counting   =    126448.54006167  -126171.62080767
  entropy T*S    EENTRO =        -0.00000000
  eigenvalues    EBANDS =     -2614.28036818
  atomic energy  EATOM  =      8364.30921166
  ---------------------------------------------------
  free energy    TOTEN  =      -466.88489757 eV

  energy without entropy =     -466.88489757  energy(sigma->0) =     -466.88489757


--------------------------------------------------------------------------------------------------------




--------------------------------------- Iteration      1(  22)  ---------------------------------------


    POTLOK:  cpu time    0.3756: real time    0.3780
    SETDIJ:  cpu time    0.0028: real time    0.0028
    TRIAL :  cpu time    2.7047: real time    2.7330
    CORREC:  cpu time    1.0614: real time    1.0710
    EDDIAG:  cpu time    0.5979: real time    0.6039
    CHARGE:  cpu time    0.3122: real time    0.3144
    --------------------------------------------
      LOOP:  cpu time    5.1282: real time    5.1781

 eigenvalue-minimisations  :     0
 total energy-change (2. order) :-0.6459741E-06  (-0.3275832E-06)
 number of electron     216.0000000 magnetization 
 augmentation part       -0.4739064 magnetization 

 Free energy of the ion-electron system (eV)
  ---------------------------------------------------
  alpha Z        PSCENC =        47.94900195
  Ewald energy   TEWEN  =     42432.44515335
  -Hartree energ DENC   =    -49420.40853054
  -exchange      EXHF   =         0.00000000
  -V(xc)+E(xc)   XCENC  =       446.19294683
  PAW double counting   =    126447.49845192  -126170.57914964
  entropy T*S    EENTRO =        -0.00000000
  eigenvalues    EBANDS =     -2614.29198375
  atomic energy  EATOM  =      8364.30921166
  ---------------------------------------------------
  free energy    TOTEN  =      -466.88489821 eV

  energy without entropy =     -466.88489821  energy(sigma->0) =     -466.88489821


--------------------------------------------------------------------------------------------------------


  average scaling for gradient   0.9379


 average (electrostatic) potential at core
  the test charge radii are     0.5770  0.5955
  (the norm of the test charge is              1.0000)
       1 -85.7750       2 -85.7745       3 -85.7752       4 -85.7760       5 -85.7737
       6 -85.7735       7 -85.7751       8 -85.7738       9 -85.7742      10 -85.7746
      11 -85.7735      12 -85.7736      13 -85.7746      14 -85.7741      15 -85.7734
      16 -85.7737      17 -85.7741      18 -85.7746      19 -85.7749      20 -85.7742
      21 -85.7734      22 -85.7732      23 -85.7764      24 -85.7763      25 -85.7733
      26 -85.7736      27 -85.7743      28 -85.7753      29 -85.7734      30 -85.7733
      31 -85.7756      32 -85.7749      33 -85.7738      34 -85.7736      35 -85.7737
      36 -85.7738      37 -85.7745      38 -85.7748      39 -85.7747      40 -85.7746
      41 -85.7746      42 -85.7748      43 -85.7742      44 -85.7750      45 -85.7734
      46 -85.7736      47 -85.7736      48 -85.7735      49 -85.7747      50 -85.7743
      51 -89.7330      52-120.3983      53-120.3977
 
 
 
 E-fermi :  -4.1981     XC(G=0):  -1.9573     alpha+bet : -1.6890

 Fermi energy:        -4.1980587540

 k-point     1 :       0.0000    0.0000    0.0000
  band No.  band energies     occupation 
      1     -27.6728      2.00000
      2     -26.6504      2.00000
      3     -22.3416      2.00000
      4     -21.4003      2.00000
      5     -21.3990      2.00000
      6     -21.3987      2.00000
      7     -21.3985      2.00000
      8     -21.3983      2.00000
      9     -21.3980      2.00000
     10     -19.5514      2.00000
     11     -19.5513      2.00000
     12     -19.5511      2.00000
     13     -19.5504      2.00000
     14     -19.5500      2.00000
     15     -19.5498      2.00000
     16     -18.6525      2.00000
     17     -18.6523      2.00000
     18     -18.6519      2.00000
     19     -18.6516      2.00000
     20     -18.6510      2.00000
     21     -18.6507      2.00000
     22     -16.4900      2.00000
     23     -16.4897      2.00000
     24     -16.4889      2.00000
     25     -16.4887      2.00000
     26     -16.4883      2.00000
     27     -16.4882      2.00000
     28     -15.4734      2.00000
     29     -15.4734      2.00000
     30     -15.4724      2.00000
     31     -15.4722      2.00000
     32     -15.4718      2.00000
     33     -15.4718      2.00000
     34     -14.1217      2.00000
     35     -14.1216      2.00000
     36     -14.1209      2.00000
     37     -14.1208      2.00000
     38     -14.1207      2.00000
     39     -14.1205      2.00000
     40     -12.4521      2.00000
     41     -11.7320      2.00000
     42     -11.7317      2.00000
     43     -11.7313      2.00000
     44     -11.7312      2.00000
     45     -11.7301      2.00000
     46     -11.7299      2.00000
     47     -11.6091      2.00000
     48     -11.6090      2.00000
     49     -11.6084      2.00000
     50     -11.6083      2.00000
     51     -11.6081      2.00000
     52     -11.6080      2.00000
     53     -11.2267      2.00000
     54     -11.1440      2.00000
     55     -11.1439      2.00000
     56     -10.3658      2.00000
     57     -10.2249      2.00000
     58     -10.2248      2.00000
     59     -10.2232      2.00000
     60     -10.2229      2.00000
     61     -10.2227      2.00000
     62     -10.2226      2.00000
     63      -9.2509      2.00000
     64      -9.2503      2.00000
     65      -9.2502      2.00000
     66      -9.2494      2.00000
     67      -9.2492      2.00000
     68      -9.2491      2.00000
     69      -8.9418      2.00000
     70      -8.9410      2.00000
     71      -8.9405      2.00000
     72      -8.9405      2.00000
     73      -8.9401      2.00000
     74      -8.9399      2.00000
     75      -8.9088      2.00000
     76      -8.9086      2.00000
     77      -8.9079      2.00000
     78      -8.9078      2.00000
     79      -8.9076      2.00000
     80      -8.9068      2.00000
     81      -7.6045      2.00000
     82      -7.6044      2.00000
     83      -7.2824      2.00000
     84      -7.2807      2.00000
     85      -7.2805      2.00000
     86      -7.2801      2.00000
     87      -7.2792      2.00000
     88      -7.2791      2.00000
     89      -7.1237      2.00000
     90      -7.1234      2.00000
     91      -7.1232      2.00000
     92      -7.1229      2.00000
     93      -7.1226      2.00000
     94      -7.1224      2.00000
     95      -6.2298      2.00000
     96      -6.2296      2.00000
     97      -6.2292      2.00000
     98      -6.2290      2.00000
     99      -6.2286      2.00000
    100      -6.2284      2.00000
    101      -5.7887      2.00000
    102      -5.7865      2.00000
    103      -4.2506      2.00000
    104      -4.2502      2.00000
    105      -4.2497      2.00000
    106      -4.2496      2.00000
    107      -4.2489      2.00000
    108      -4.2488      2.00000
    109      -1.4364      0.00000
    110      -1.4361      0.00000
    111      -1.4357      0.00000
    112      -1.4355      0.00000
    113      -1.4349      0.00000
    114      -1.4347      0.00000
    115       0.2244      0.00000
    116       0.4367      0.00000
    117       0.4370      0.00000
    118       0.4375      0.00000
    119       0.4376      0.00000
    120       0.4377      0.00000
    121       0.4393      0.00000
    122       0.5538      0.00000
    123       1.0128      0.00000
    124       1.1816      0.00000
    125       1.6551      0.00000
    126       1.6599      0.00000
    127       1.6850      0.00000
    128       1.7211      0.00000
    129       1.7242      0.00000
    130       1.7361      0.00000
    131       1.7611      0.00000
    132       2.1749      0.00000
    133       2.1826      0.00000
    134       2.1901      0.00000
    135       2.2042      0.00000
    136       2.2903      0.00000
    137       2.2974      0.00000
    138       2.3584      0.00000
    139       2.5951      0.00000
    140       2.9241      0.00000


--------------------------------------------------------------------------------------------------------


 soft charge-density along one line, spin component           1
         0         1         2         3         4         5         6         7         8         9
 total charge-density along one line
 
 pseudopotential strength for first ion, spin component:           1
 12.722  21.410   0.000   0.000   0.000   0.000   0.000   0.000
 21.410  36.029   0.000   0.000   0.000   0.000   0.000   0.000
  0.000   0.000  -3.100  -0.000   0.000  -5.556  -0.000   0.000
  0.000   0.000  -0.000  -3.101  -0.000  -0.000  -5.558  -0.000
  0.000   0.000   0.000  -0.000  -3.100   0.000  -0.000  -5.556
  0.000   0.000  -5.556  -0.000   0.000  -9.936  -0.000   0.000
  0.000   0.000  -0.000  -5.558  -0.000  -0.000  -9.939  -0.000
  0.000   0.000   0.000  -0.000  -5.556   0.000  -0.000  -9.936
 total augmentation occupancy for first ion, spin component:           1
  8.451  -3.031  -0.000  -0.002  -0.000   0.000   0.001   0.000
 -3.031   1.122   0.000   0.001   0.000  -0.000  -0.000  -0.000
 -0.000   0.000   7.733  -0.008   0.000  -2.679   0.003  -0.000
 -0.002   0.001  -0.008   3.531  -0.000   0.003  -0.988   0.000
 -0.000   0.000   0.000  -0.000   7.732  -0.000   0.000  -2.678
  0.000  -0.000  -2.679   0.003  -0.000   0.941  -0.001   0.000
  0.001  -0.000   0.003  -0.988   0.000  -0.001   0.282  -0.000
  0.000  -0.000  -0.000   0.000  -2.678   0.000  -0.000   0.941


------------------------ aborting loop because EDIFF is reached ----------------------------------------


    FORLOC:  cpu time    0.0675: real time    0.0680
    FORNL :  cpu time    1.1138: real time    1.1268
    FORCOR:  cpu time    0.3960: real time    0.3987
    OFIELD:  cpu time    0.0015: real time    0.0015

 ---------------------------------------------------------------------------------------------

         DFTD3 V3.0 Rev 1        
 IVDW         = 11
 DF revpbe    
 parameters
 VDW_S6       =    1.0000
 VDW_S8       =    1.0100
 VDW_SR       =    0.9230
 rs18     =    1.0000
 alpha6   =   14.0000
 alpha8   =   16.0000
 k1-k3    =   16.0000    1.3333   -4.0000
 VDW_RADIUS   =   50.2022 A
 VDW_CNRADIUS =   21.1671 A
 Edisp (eV)   -3.65941

 E6    (eV) :    -2.6046
 E8    (eV) :    -1.0548
 % E8        : 28.83
    FORVDW:  cpu time    0.1512: real time    0.1521

 VOLUME and BASIS-vectors are now :
 -----------------------------------------------------------------------------
  energy-cutoff  :     1000.00
  volume of cell :     3288.85
      direct lattice vectors                 reciprocal lattice vectors
    12.325000000  0.000000000  0.000000000     0.081135903  0.046843835  0.000000000
    -6.162500000 10.673763102  0.000000000     0.000000000  0.093687670  0.000000000
     0.000000000  0.000000000 25.000000000     0.000000000  0.000000000  0.040000000

  length of vectors
    12.325000000 12.325000000 25.000000000     0.093687670  0.093687670  0.040000000


 FORCES acting on ions:
    Electron-Ion                     Ewald-Force                    Non-Local-Force
 -----------------------------------------------------------------------------------------------
   0.138E+01 0.121E+01 0.181E+02   -.138E+01 -.121E+01 -.181E+02   0.511E-02 -.701E-03 0.624E-02
   0.192E+01 0.982E+00 0.196E+02   -.193E+01 -.979E+00 -.196E+02   0.396E-02 -.336E-02 -.561E-02
   0.782E+00 0.213E+01 0.201E+02   -.783E+00 -.213E+01 -.201E+02   -.137E-03 0.123E-01 -.320E-03
   0.989E+00 0.143E+01 0.232E+02   -.987E+00 -.143E+01 -.232E+02   0.121E-01 0.992E-03 -.136E-01
   0.149E+01 0.371E+00 0.185E+02   -.149E+01 -.371E+00 -.185E+02   -.693E-04 -.572E-02 0.305E-02
   0.153E+01 -.327E+00 0.187E+02   -.153E+01 0.329E+00 -.187E+02   -.629E-02 0.326E-02 -.328E-02
   0.191E+01 0.742E+00 0.229E+02   -.191E+01 -.742E+00 -.229E+02   0.127E-01 -.195E-01 -.568E-02
   0.189E+01 -.649E+00 0.241E+02   -.190E+01 0.652E+00 -.240E+02   -.611E-02 -.599E-02 -.543E-02
   -.950E+00 0.199E+01 0.204E+02   0.954E+00 -.199E+01 -.204E+02   -.754E-03 -.123E-01 -.493E-02
   -.131E+01 0.111E+01 0.233E+02   0.131E+01 -.112E+01 -.233E+02   -.268E-01 0.155E-01 0.303E-02
   0.396E+00 -.409E+00 0.174E+02   -.393E+00 0.409E+00 -.174E+02   0.360E-02 -.278E-02 -.316E-03
   0.369E+00 -.309E+00 0.170E+02   -.368E+00 0.309E+00 -.170E+02   -.711E-02 0.349E-02 0.577E-02
   0.664E+00 -.154E+01 0.252E+02   -.665E+00 0.154E+01 -.251E+02   0.275E-01 -.833E-02 -.153E-02
   0.406E+00 -.220E+01 0.216E+02   -.411E+00 0.220E+01 -.216E+02   0.445E-02 0.610E-02 -.159E-01
   -.138E+01 0.835E+00 0.180E+02   0.138E+01 -.837E+00 -.180E+02   0.734E-02 -.379E-02 0.688E-02
   -.180E+01 0.522E+00 0.185E+02   0.180E+01 -.523E+00 -.185E+02   -.224E-02 0.560E-02 -.528E-02
   -.254E+00 -.101E+00 0.166E+02   0.258E+00 0.994E-01 -.166E+02   -.645E-03 0.484E-03 0.186E-02
   0.113E+00 0.870E+00 0.168E+02   -.112E+00 -.870E+00 -.168E+02   -.314E-02 0.178E-02 0.925E-02
   -.355E+00 -.212E+01 0.197E+02   0.355E+00 0.212E+01 -.197E+02   0.643E-02 -.211E-02 0.513E-03
   -.206E+00 -.128E+01 0.176E+02   0.202E+00 0.128E+01 -.176E+02   0.356E-03 -.132E-02 -.794E-03
   0.196E+01 -.852E+00 0.206E+02   -.196E+01 0.853E+00 -.205E+02   -.116E-02 -.271E-02 -.169E-01
   0.137E+01 -.111E+01 0.192E+02   -.138E+01 0.111E+01 -.192E+02   -.677E-02 0.524E-02 -.263E-02
   -.347E+00 0.626E+00 0.255E+02   0.344E+00 -.624E+00 -.255E+02   -.105E-01 0.108E-01 0.241E-02
   -.476E+00 -.984E+00 0.254E+02   0.477E+00 0.983E+00 -.254E+02   0.123E-01 -.152E-01 -.917E-02
   0.750E+00 -.279E+00 0.174E+02   -.748E+00 0.278E+00 -.174E+02   0.348E-02 -.256E-02 -.359E-02
   0.200E+00 0.646E+00 0.173E+02   -.200E+00 -.645E+00 -.173E+02   -.548E-02 0.363E-02 0.529E-02
   -.218E+01 0.266E+00 0.210E+02   0.218E+01 -.269E+00 -.210E+02   0.111E-01 0.827E-02 -.216E-02
   -.206E+01 -.828E+00 0.203E+02   0.207E+01 0.828E+00 -.203E+02   -.936E-02 0.925E-02 0.112E-02
   0.778E+00 -.158E+01 0.195E+02   -.779E+00 0.158E+01 -.195E+02   0.487E-02 0.198E-02 -.712E-02
   0.682E-01 -.697E+00 0.179E+02   -.707E-01 0.699E+00 -.179E+02   -.468E-02 0.234E-02 -.263E-02
   -.148E+01 -.151E+01 0.218E+02   0.148E+01 0.151E+01 -.218E+02   -.122E-01 -.839E-02 -.119E-01
   -.107E+01 -.201E+01 0.196E+02   0.107E+01 0.201E+01 -.196E+02   0.609E-03 -.153E-02 0.245E-02
   0.923E-01 0.416E+00 0.169E+02   -.927E-01 -.416E+00 -.169E+02   0.535E-02 -.480E-02 0.691E-02
   0.252E+00 0.386E+00 0.172E+02   -.255E+00 -.385E+00 -.172E+02   -.218E-02 0.459E-02 -.140E-02
   -.944E+00 0.170E+00 0.176E+02   0.947E+00 -.171E+00 -.176E+02   0.398E-02 -.239E-02 0.568E-02
   -.838E+00 -.377E+00 0.175E+02   0.838E+00 0.377E+00 -.175E+02   -.435E-02 0.253E-02 0.357E-02
   -.159E+01 -.849E+00 0.180E+02   0.160E+01 0.847E+00 -.180E+02   -.158E-02 0.105E-02 0.337E-02
   -.105E+01 -.841E+00 0.172E+02   0.105E+01 0.841E+00 -.173E+02   -.424E-02 0.124E-02 0.903E-02
   -.957E+00 -.121E+01 0.176E+02   0.957E+00 0.122E+01 -.176E+02   -.313E-02 0.661E-04 0.490E-02
   -.144E+00 -.331E+00 0.169E+02   0.145E+00 0.331E+00 -.169E+02   0.192E-02 0.522E-03 0.742E-02
   0.361E+00 0.906E+00 0.170E+02   -.361E+00 -.906E+00 -.170E+02   -.404E-02 0.189E-02 0.696E-02
   0.109E+01 0.167E+01 0.182E+02   -.109E+01 -.168E+01 -.182E+02   -.436E-03 -.638E-03 0.786E-02
   0.115E+00 0.150E+01 0.174E+02   -.111E+00 -.150E+01 -.174E+02   -.556E-03 0.117E-02 0.207E-02
   -.180E-01 0.220E+01 0.193E+02   0.195E-01 -.220E+01 -.193E+02   -.843E-02 0.229E-02 0.531E-02
   -.286E+00 0.535E+00 0.176E+02   0.288E+00 -.537E+00 -.176E+02   0.400E-02 -.288E-02 0.107E-02
   -.105E+01 0.131E+01 0.184E+02   0.106E+01 -.131E+01 -.184E+02   -.657E-02 0.559E-03 -.179E-02
   -.281E+00 -.657E+00 0.174E+02   0.280E+00 0.657E+00 -.174E+02   0.653E-02 -.143E-02 0.569E-02
   -.591E+00 0.211E+00 0.169E+02   0.589E+00 -.210E+00 -.169E+02   -.350E-02 0.326E-02 -.334E-02
   0.609E-01 -.405E+00 0.169E+02   -.616E-01 0.406E+00 -.169E+02   0.447E-02 -.323E-02 0.573E-02
   0.645E+00 0.460E+00 0.169E+02   -.648E+00 -.458E+00 -.169E+02   0.119E-03 0.164E-02 0.319E-02
   0.230E-02 0.219E-01 -.238E+03   -.657E-02 -.182E-01 0.238E+03   -.295E-02 0.191E-02 -.322E-02
   -.229E+03 0.156E+03 -.370E+03   0.279E+03 -.190E+03 0.374E+03   -.510E+02 0.347E+02 -.342E+01
   0.229E+03 -.156E+03 -.348E+03   -.279E+03 0.190E+03 0.345E+03   0.510E+02 -.347E+02 0.308E+01
 -----------------------------------------------------------------------------------------------
   -.707E-02 0.136E-01 0.344E+00   0.114E-12 -.114E-12 0.114E-12   0.708E-02 -.137E-01 -.343E+00
 
 
 POSITION                                       TOTAL-FORCE (eV/Angst)
 -----------------------------------------------------------------------------------
     11.98348      0.00342      0.01417         0.003217     -0.001614     -0.000686
     -0.34154      1.42665      0.01100        -0.000740     -0.000114     -0.003172
      2.12355      0.00315      0.01249        -0.001675      0.010793     -0.005896
      2.12326      1.42653      0.00641         0.013372      0.001303     -0.008399
     10.75099      2.13819      0.01213         0.000294     -0.005665      0.000048
     -1.57382      3.56123      0.01110        -0.008973      0.004828     -0.001311
      0.89078      2.13854      0.00548         0.009616     -0.019208      0.001980
      0.89099      3.56147      0.00181        -0.012060     -0.002452      0.010617
      4.58864      0.00346      0.01135         0.003698     -0.016131     -0.003375
      4.58894      1.42623      0.00646        -0.023799      0.013397      0.013092
      9.51854      4.27281      0.01369         0.006668     -0.003146      0.000382
     -2.80632      5.69591      0.01434        -0.006524      0.003396      0.000889
      2.12300      4.27302      0.00000         0.025262     -0.005063      0.018861
      2.12335      5.69594      0.00581        -0.000545      0.009375     -0.002946
      7.05344      0.00333      0.01399         0.009450     -0.005318     -0.000182
      7.05353      1.42635      0.01368        -0.001592      0.004953     -0.003473
      8.28610      6.40752      0.01601         0.003015     -0.001506     -0.000544
     -4.03885      7.83070      0.01636        -0.002167      0.000862      0.000199
      3.35586      6.40753      0.01007         0.005454      0.000526     -0.001181
      3.35599      7.83072      0.01320        -0.003242      0.000085     -0.000474
     -0.34146      4.27290      0.00723        -0.002004     -0.001423     -0.004633
     -0.34138      5.69591      0.00946        -0.009267      0.006561     -0.001090
      3.35624      2.13791      0.00222        -0.013629      0.012056      0.014764
      3.35573      3.56155      0.00139         0.013662     -0.016033      0.007363
     -1.57395      6.40758      0.01311         0.005489     -0.003991     -0.000423
     -1.57385      7.83068      0.01438        -0.004833      0.003759      0.000266
      5.82093      2.13784      0.01033         0.016304      0.005273     -0.002890
      5.82114      3.56097      0.01156        -0.006372      0.008549     -0.003311
      0.89092      6.40755      0.00907         0.004506      0.002380     -0.002228
      0.89106      7.83068      0.01235        -0.006920      0.003858      0.000525
      4.58871      4.27293      0.00850        -0.012977     -0.006630     -0.010548
      4.58852      5.69606      0.01149         0.001901     -0.001023     -0.003652
      9.51845      0.00337      0.01490         0.004750     -0.004692      0.000338
      9.51855      1.42644      0.01438        -0.005149      0.005523     -0.000084
      8.28593      2.13803      0.01453         0.006745     -0.003449      0.000877
      8.28613      3.56115      0.01464        -0.004302      0.002210      0.000214
      7.05356      4.27269      0.01457         0.002731     -0.001082     -0.000269
      7.05362      5.69588      0.01553        -0.002471      0.001532      0.000206
      5.82112      6.40755      0.01489        -0.002888      0.001613      0.000275
      5.82102      7.83073      0.01579         0.002686      0.000323     -0.000033
      7.05363      8.54227      0.01631        -0.004665      0.001212      0.001364
     -5.27149      9.96549      0.01495         0.000036     -0.002036     -0.001708
     -2.80638      8.54234      0.01558         0.003219     -0.001447     -0.000804
     -2.80627      9.96553      0.01362        -0.006737     -0.000119     -0.003392
     -0.34149      8.54239      0.01378         0.005856     -0.004908      0.000482
     -0.34138      9.96550      0.01354        -0.005888     -0.000139     -0.001007
      2.12343      8.54232      0.01336         0.005868     -0.001541      0.000875
      2.12354      9.96544      0.01469        -0.005252      0.003874     -0.001626
      4.58846      8.54235      0.01505         0.003701     -0.002823      0.001193
      4.58853      9.96550      0.01517        -0.002860      0.003392      0.000372
      3.04930      2.68154      7.07107        -0.007060      0.005635      0.030478
      4.02070      2.02068      7.13549        -0.250603      0.170101     -0.034210
      2.07767      3.34267      7.01161         0.257697     -0.175818     -0.002111
 -----------------------------------------------------------------------------------
    total drift:                                0.000016     -0.000134      0.000937


--------------------------------------------------------------------------------------------------------



  FREE ENERGIE OF THE ION-ELECTRON SYSTEM (eV)
  ---------------------------------------------------
  free  energy   TOTEN  =      -470.54431209 eV

  energy  without entropy=     -470.54431209  energy(sigma->0) =     -470.54431209
 


--------------------------------------------------------------------------------------------------------


    POTLOK:  cpu time    0.3961: real time    0.3986


--------------------------------------------------------------------------------------------------------


     LOOP+:  cpu time  143.0144: real time  144.7965
    4ORBIT:  cpu time    0.0000: real time    0.0000

 total amount of memory used by VASP MPI-rank0   215378. kBytes
=======================================================================

   base      :      30000. kBytes
   nonl-proj :      57634. kBytes
   fftplans  :      45914. kBytes
   grid      :      67588. kBytes
   one-center:         43. kBytes
   wavefun   :      14199. kBytes
 
  
  
 General timing and accounting informations for this job:
 ========================================================
  
                  Total CPU time used (sec):      186.553
                            User time (sec):      170.378
                          System time (sec):       16.175
                         Elapsed time (sec):      190.077
  
                   Maximum memory used (kb):      627156.
                   Average memory used (kb):          N/A
  
                          Minor page faults:       221796
                          Major page faults:          194
                 Voluntary context switches:         3644
