 vasp.6.2.1 16May21 (build Nov 06 2021 14:46:37) complex                        
  
 executed on             LinuxIFC date 2025.04.16  17:38:37
 running on  112 total cores
 distrk:  each k-point on  112 cores,    1 groups
 distr:  one band on NCORE=   4 cores,   28 groups


--------------------------------------------------------------------------------------------------------


 INCAR:
   ALGO = Conjugate
   NCORE = 4
   ISMEAR = 0
   SIGMA = 0.01
   PREC = Accurate
   EDIFF = 1E-6
   ENCUT = 1000
   ISIF = 0
   GGA = RE
   IVDW = 11
   LWAVE = .FALSE.
   LCHARGE = .FALSE.
   SYMPREC = 1E-6

 POTCAR:    PAW_PBE C_h 06Feb2004                 
 POTCAR:    PAW_PBE O_h 06Feb2004                 
 -----------------------------------------------------------------------------
|                                                                             |
|           W    W    AA    RRRRR   N    N  II  N    N   GGGG   !!!           |
|           W    W   A  A   R    R  NN   N  II  NN   N  G    G  !!!           |
|           W    W  A    A  R    R  N N  N  II  N N  N  G       !!!           |
|           W WW W  AAAAAA  RRRRR   N  N N  II  N  N N  G  GGG   !            |
|           WW  WW  A    A  R   R   N   NN  II  N   NN  G    G                |
|           W    W  A    A  R    R  N    N  II  N    N   GGGG   !!!           |
|                                                                             |
|     For optimal performance we recommend to set                             |
|       NCORE = 2 up to number-of-cores-per-socket                            |
|     NCORE specifies how many cores store one orbital (NPAR=cpu/NCORE).      |
|     This setting can greatly improve the performance of VASP for DFT.       |
|     The default, NCORE=1 might be grossly inefficient on modern             |
|     multi-core architectures or massively parallel machines. Do your        |
|     own testing! More info at https://www.vasp.at/wiki/index.php/NCORE      |
|     Unfortunately you need to use the default for GW and RPA                |
|     calculations (for HF NCORE is supported but not extensively tested      |
|     yet).                                                                   |
|                                                                             |
 -----------------------------------------------------------------------------

 POTCAR:    PAW_PBE C_h 06Feb2004                 
   VRHFIN =C: s2p2                                                                                  
   LEXCH  = PE                                                                                      
   EATOM  =   147.1560 eV,   10.8157 Ry                                                             
                                                                                                    
   TITEL  = PAW_PBE C_h 06Feb2004                                                                   
   LULTRA =        F    use ultrasoft PP ?                                                          
   IUNSCR =        1    unscreen: 0-lin 1-nonlin 2-no                                               
   RPACOR =    0.800    partial core radius                                                         
   POMASS =   12.011; ZVAL   =    4.000    mass and valenz                                          
   RCORE  =    1.100    outmost cutoff radius                                                       
   RWIGS  =    1.630; RWIGS  =    0.863    wigner-seitz radius (au A)                               
   ENMAX  =  700.000; ENMIN  =  500.000 eV                                                          
   ICORE  =        2    local potential                                                             
   LCOR   =        T    correct aug charges                                                         
   LPAW   =        T    paw PP                                                                      
   EAUG   =  946.768                                                                                
   DEXC   =    0.000                                                                                
   RMAX   =    1.128    core radius for proj-oper                                                   
   RAUG   =    1.300    factor for augmentation sphere                                              
   RDEP   =    1.162    radius for radial grids                                                     
   RDEPT  =    1.088    core radius for aug-charge                                                  
                                                                                                    
   Atomic configuration                                                                             
    4 entries                                                                                       
     n  l   j            E        occ.                                                              
     1  0  0.50      -273.3789   2.0000                                                             
     2  0  0.50       -13.7508   2.0000                                                             
     2  1  0.50        -5.2854   2.0000                                                             
     3  2  1.50        -5.4423   0.0000                                                             
   Description                                                                                      
     l       E           TYP  RCUT    TYP  RCUT                                                     
     0    -13.7508458     23  1.100                                                                 
     0     -8.2022199     23  1.100                                                                 
     1     -5.2854383     23  1.100                                                                 
     1      1.1560700     23  1.100                                                                 
     2     -5.4423304      7  1.100                                                                 
  local pseudopotential read in
  partial core-charges read in
  partial kinetic energy density read in
  atomic valenz-charges read in
  non local Contribution for L=           0  read in
    real space projection operators read in
  non local Contribution for L=           0  read in
    real space projection operators read in
  non local Contribution for L=           1  read in
    real space projection operators read in
  non local Contribution for L=           1  read in
    real space projection operators read in
    PAW grid and wavefunctions read in
 
   number of l-projection  operators is LMAX  =           4
   number of lm-projection operators is LMMAX =           8
 
 POTCAR:    PAW_PBE O_h 06Feb2004                 
   VRHFIN =O: s2p4                                                                                  
   LEXCH  = PE                                                                                      
   EATOM  =   432.3788 eV,   31.7789 Ry                                                             
                                                                                                    
   TITEL  = PAW_PBE O_h 06Feb2004                                                                   
   LULTRA =        F    use ultrasoft PP ?                                                          
   IUNSCR =        1    unscreen: 0-lin 1-nonlin 2-no                                               
   RPACOR =    0.800    partial core radius                                                         
   POMASS =   16.000; ZVAL   =    6.000    mass and valenz                                          
   RCORE  =    1.100    outmost cutoff radius                                                       
   RWIGS  =    1.400; RWIGS  =    0.741    wigner-seitz radius (au A)                               
   ENMAX  =  700.000; ENMIN  =  500.000 eV                                                          
   ICORE  =        2    local potential                                                             
   LCOR   =        T    correct aug charges                                                         
   LPAW   =        T    paw PP                                                                      
   EAUG   =  888.804                                                                                
   DEXC   =    0.000                                                                                
   RMAX   =    1.128    core radius for proj-oper                                                   
   RAUG   =    1.300    factor for augmentation sphere                                              
   RDEP   =    1.125    radius for radial grids                                                     
   RDEPT  =    1.088    core radius for aug-charge                                                  
                                                                                                    
   Atomic configuration                                                                             
    4 entries                                                                                       
     n  l   j            E        occ.                                                              
     1  0  0.50      -514.6923   2.0000                                                             
     2  0  0.50       -23.9615   2.0000                                                             
     2  1  0.50        -9.0305   4.0000                                                             
     3  2  1.50        -9.5241   0.0000                                                             
   Description                                                                                      
     l       E           TYP  RCUT    TYP  RCUT                                                     
     0    -23.9615319     23  1.100                                                                 
     0    -25.3221145     23  1.100                                                                 
     1     -9.0304911     23  1.100                                                                 
     1     -5.4802209     23  1.100                                                                 
     2     -9.5240782      7  1.100                                                                 
  local pseudopotential read in
  partial core-charges read in
  partial kinetic energy density read in
  atomic valenz-charges read in
  non local Contribution for L=           0  read in
    real space projection operators read in
  non local Contribution for L=           0  read in
    real space projection operators read in
  non local Contribution for L=           1  read in
    real space projection operators read in
  non local Contribution for L=           1  read in
    real space projection operators read in
    PAW grid and wavefunctions read in
 
   number of l-projection  operators is LMAX  =           4
   number of lm-projection operators is LMMAX =           8
 
 -----------------------------------------------------------------------------
|                                                                             |
|               ----> ADVICE to this user running VASP <----                  |
|                                                                             |
|     You have a (more or less) 'large supercell' and for larger cells it     |
|     might be more efficient to use real-space projection operators.         |
|     Therefore, try LREAL= Auto in the INCAR file.                           |
|     Mind: For very accurate calculation, you might also keep the            |
|     reciprocal projection scheme (i.e. LREAL=.FALSE.).                      |
|                                                                             |
 -----------------------------------------------------------------------------

 -----------------------------------------------------------------------------
|                                                                             |
|               ----> ADVICE to this user running VASP <----                  |
|                                                                             |
|     You enforced a specific xc type in the INCAR file but a different       |
|     type was found in the POTCAR file.                                      |
|     I HOPE YOU KNOW WHAT YOU ARE DOING!                                     |
|                                                                             |
 -----------------------------------------------------------------------------

  PAW_PBE C_h 06Feb2004                 :
 energy of atom  1       EATOM= -147.1560
 kinetic energy error for atom=    0.0031 (will be added to EATOM!!)
  PAW_PBE O_h 06Feb2004                 :
 energy of atom  2       EATOM= -432.3788
 kinetic energy error for atom=    0.0171 (will be added to EATOM!!)
 
 
 POSCAR:  C  O
  positions in cartesian coordinates
  No initial velocities read in
 exchange correlation table for  LEXCH =       40
   RHO(1)=    0.500       N(1)  =     2000
   RHO(2)=  100.500       N(2)  =     4000
 


--------------------------------------------------------------------------------------------------------


 ion  position               nearest neighbor table
   1  0.972  0.000  0.001-  50 1.42   2 1.42  42 1.42
   2  0.039  0.134  0.000-   5 1.42   7 1.42   1 1.42
   3  0.172  0.000  0.000-  42 1.42  44 1.42   4 1.42
   4  0.239  0.134  0.000-   7 1.42   3 1.42  23 1.42
   5  0.972  0.200  0.000-   6 1.42   2 1.42  34 1.42
   6  0.039  0.334  0.000-   5 1.42  21 1.42  11 1.42
   7  0.172  0.200  0.000-   8 1.42   2 1.42   4 1.42
   8  0.239  0.334  0.000-  13 1.42   7 1.42  21 1.42
   9  0.372  0.000  0.000-  10 1.42  44 1.42  46 1.42
  10  0.439  0.134  0.000-  27 1.42   9 1.42  23 1.42
  11  0.972  0.400  0.001-  12 1.42  36 1.42   6 1.42
  12  0.039  0.534  0.001-  25 1.42  11 1.42  17 1.42
  13  0.372  0.400  0.000-   8 1.42  14 1.42  24 1.42
  14  0.439  0.534  0.000-  13 1.42  29 1.42  19 1.42
  15  0.572  0.000  0.001-  46 1.42  16 1.42  48 1.42
  16  0.639  0.134  0.001-  15 1.42  35 1.42  27 1.42
  17  0.972  0.600  0.001-  38 1.42  18 1.42  12 1.42
  18  0.039  0.734  0.001-  43 1.42  41 1.42  17 1.42
  19  0.572  0.600  0.000-  14 1.42  20 1.42  32 1.42
  20  0.639  0.734  0.001-  49 1.42  19 1.42  47 1.42
  21  0.172  0.400  0.000-  22 1.42   8 1.42   6 1.42
  22  0.239  0.534  0.000-  21 1.42  29 1.42  25 1.42
  23  0.372  0.200  0.000-  10 1.42   4 1.42  24 1.42
  24  0.439  0.334  0.000-  13 1.42  31 1.42  23 1.42
  25  0.172  0.600  0.001-  26 1.42  12 1.42  22 1.42
  26  0.239  0.734  0.001-  25 1.42  45 1.42  43 1.42
  27  0.572  0.200  0.000-  10 1.42  28 1.42  16 1.42
  28  0.639  0.334  0.000-  27 1.42  37 1.42  31 1.42
  29  0.372  0.600  0.000-  22 1.42  14 1.42  30 1.42
  30  0.439  0.734  0.000-  47 1.42  29 1.42  45 1.42
  31  0.572  0.400  0.000-  32 1.42  28 1.42  24 1.42
  32  0.639  0.534  0.000-  31 1.42  39 1.42  19 1.42
  33  0.772  0.000  0.001-  34 1.42  48 1.42  50 1.42
  34  0.839  0.134  0.001-  33 1.42   5 1.42  35 1.42
  35  0.772  0.200  0.001-  36 1.42  16 1.42  34 1.42
  36  0.839  0.334  0.001-  35 1.42  11 1.42  37 1.42
  37  0.772  0.400  0.001-  28 1.42  38 1.42  36 1.42
  38  0.839  0.534  0.001-  17 1.42  37 1.42  39 1.42
  39  0.772  0.600  0.001-  40 1.42  38 1.42  32 1.42
  40  0.839  0.734  0.001-  39 1.42  49 1.42  41 1.42
  41  0.972  0.800  0.001-  18 1.42  42 1.42  40 1.42
  42  0.039  0.934  0.001-   3 1.42  41 1.42   1 1.42
  43  0.172  0.800  0.001-  18 1.42  44 1.42  26 1.42
  44  0.239  0.934  0.001-   9 1.42  43 1.42   3 1.42
  45  0.372  0.800  0.001-  26 1.42  46 1.42  30 1.42
  46  0.439  0.934  0.001-  15 1.42  45 1.42   9 1.42
  47  0.572  0.800  0.001-  30 1.42  48 1.42  20 1.42
  48  0.639  0.934  0.001-  47 1.42  33 1.42  15 1.42
  49  0.772  0.800  0.001-  50 1.42  20 1.42  40 1.42
  50  0.839  0.934  0.001-  49 1.42   1 1.42  33 1.42
  51  0.373  0.251  0.252-  52 1.18  53 1.18
  52  0.421  0.189  0.255-  51 1.18
  53  0.325  0.313  0.250-  51 1.18
 
  LATTYP: Found a hexagonal cell.
 ALAT       =    12.3250000000
 C/A-ratio  =     2.0283975659
  
  Lattice vectors:
  
 A1 = (  12.3250000000,   0.0000000000,   0.0000000000)
 A2 = (  -6.1625000000,  10.6737631016,   0.0000000000)
 A3 = (   0.0000000000,   0.0000000000,  25.0000000000)


Analysis of symmetry for initial positions (statically):
=====================================================================
 Subroutine PRICEL returns:
 Original cell was already a primitive cell.
 

 Routine SETGRP: Setting up the symmetry group for a 
 hexagonal supercell.


 Subroutine GETGRP returns: Found  1 space group operations
 (whereof  1 operations were pure point group operations)
 out of a pool of 24 trial point group operations.


The static configuration has the point symmetry C_1 .


Analysis of symmetry for dynamics (positions and initial velocities):
=====================================================================
 Subroutine PRICEL returns:
 Original cell was already a primitive cell.
 

 Routine SETGRP: Setting up the symmetry group for a 
 hexagonal supercell.


 Subroutine GETGRP returns: Found  1 space group operations
 (whereof  1 operations were pure point group operations)
 out of a pool of 24 trial point group operations.


The dynamic configuration has the point symmetry C_1 .


 Subroutine INISYM returns: Found  1 space group operations
 (whereof  1 operations are pure point group operations),
 and found     1 'primitive' translations


----------------------------------------------------------------------------------------

                                     Primitive cell                                     

  volume of cell :    3288.8533

  direct lattice vectors                    reciprocal lattice vectors
    12.325000000  0.000000000  0.000000000     0.081135903  0.046843835  0.000000000
    -6.162500000 10.673763102  0.000000000     0.000000000  0.093687670  0.000000000
     0.000000000  0.000000000 25.000000000     0.000000000  0.000000000  0.040000000

  length of vectors
    12.325000000 12.325000000 25.000000000     0.093687670  0.093687670  0.040000000

  position of ions in fractional coordinates (direct lattice)
     0.972450841  0.000320818  0.000566711
     0.039118382  0.133659505  0.000440173
     0.172443627  0.000295449  0.000499628
     0.239096278  0.133647917  0.000256468
     0.972452058  0.200322012  0.000485219
     0.039128360  0.333643771  0.000444150
     0.172451764  0.200354552  0.000219167
     0.239124359  0.333665720  0.000072260
     0.372465565  0.000324403  0.000453913
     0.439137473  0.133619939  0.000258338
     0.972449824  0.400309362  0.000547611
     0.039124981  0.533636789  0.000573410
     0.372416176  0.400329481  0.000000000
     0.439099602  0.533638981  0.000232414
     0.572443676  0.000312125  0.000559580
     0.639110207  0.133631751  0.000547275
     0.972452703  0.600305653  0.000640289
     0.039124495  0.733640359  0.000654513
     0.572433471  0.600306242  0.000402895
     0.639111888  0.733641879  0.000527905
     0.172454630  0.400318228  0.000289045
     0.239120185  0.533636548  0.000378509
     0.372459750  0.200295993  0.000088997
     0.439107096  0.333673419  0.000055762
     0.172452155  0.600311506  0.000524340
     0.239123371  0.733638574  0.000575129
     0.572431082  0.200289171  0.000413296
     0.639112773  0.333618630  0.000462376
     0.372439808  0.600308022  0.000362844
     0.439116090  0.733637858  0.000494190
     0.572469358  0.400320504  0.000339918
     0.639119408  0.533650873  0.000459610
     0.772445723  0.000315427  0.000596161
     0.839116277  0.133640203  0.000575306
     0.772440513  0.200307432  0.000581033
     0.839120241  0.333635728  0.000585467
     0.772446320  0.400298367  0.000582978
     0.839118980  0.533633964  0.000621100
     0.772456143  0.600308173  0.000595712
     0.839115033  0.733643180  0.000631512
     0.972455313  0.800305582  0.000652233
     0.039114714  0.933643289  0.000598051
     0.172457971  0.800312211  0.000623372
     0.239134551  0.933647193  0.000544850
     0.372451396  0.800316674  0.000551399
     0.439124489  0.933644769  0.000541430
     0.572441101  0.800310054  0.000534535
     0.639115067  0.933638985  0.000587644
     0.772445098  0.800313187  0.000602062
     0.839116614  0.933644338  0.000606830
     0.373021009  0.251226878  0.251984210
     0.420879805  0.189313152  0.254561084
     0.325156981  0.313167186  0.249606015

  ion indices of the primitive-cell ions
   primitive index   ion index
                 1           1
                 2           2
                 3           3
                 4           4
                 5           5
                 6           6
                 7           7
                 8           8
                 9           9
                10          10
                11          11
                12          12
                13          13
                14          14
                15          15
                16          16
                17          17
                18          18
                19          19
                20          20
                21          21
                22          22
                23          23
                24          24
                25          25
                26          26
                27          27
                28          28
                29          29
                30          30
                31          31
                32          32
                33          33
                34          34
                35          35
                36          36
                37          37
                38          38
                39          39
                40          40
                41          41
                42          42
                43          43
                44          44
                45          45
                46          46
                47          47
                48          48
                49          49
                50          50
                51          51
                52          52
                53          53

----------------------------------------------------------------------------------------

 
 
 KPOINTS: auto                                    

Automatic generation of k-mesh.
 Grid dimensions read from file:
 generate k-points for:    1    1    1

 Generating k-lattice:

  Cartesian coordinates                     Fractional coordinates (reciprocal lattice)
     0.081135903  0.046843835  0.000000000     1.000000000 -0.000000000  0.000000000
     0.000000000  0.093687670  0.000000000     0.000000000  1.000000000  0.000000000
     0.000000000  0.000000000  0.040000000     0.000000000  0.000000000  1.000000000

  Length of vectors
     0.093687670  0.093687670  0.040000000

  Shift w.r.t. Gamma in fractional coordinates (k-lattice)
     0.000000000  0.000000000  0.000000000

 
 Subroutine IBZKPT returns following result:
 ===========================================
 
 Found      1 irreducible k-points:
 
 Following reciprocal coordinates:
            Coordinates               Weight
  0.000000  0.000000  0.000000      1.000000
 
 Following cartesian coordinates:
            Coordinates               Weight
  0.000000  0.000000  0.000000      1.000000
 


--------------------------------------------------------------------------------------------------------




 Dimension of arrays:
   k-points           NKPTS =      1   k-points in BZ     NKDIM =      1   number of bands    NBANDS=    140
   number of dos      NEDOS =    301   number of ions     NIONS =     53
   non local maximal  LDIM  =      4   non local SUM 2l+1 LMDIM =      8
   total plane-waves  NPLWV = ******
   max r-space proj   IRMAX =      1   max aug-charges    IRDMAX=  10008
   dimension x,y,z NGX =   128 NGY =  128 NGZ =  270
   dimension x,y,z NGXF=   256 NGYF=  256 NGZF=  540
   support grid    NGXF=   256 NGYF=  256 NGZF=  540
   ions per type =              51   2
   NGX,Y,Z   is equivalent  to a cutoff of  17.27, 17.27, 17.95 a.u.
   NGXF,Y,Z  is equivalent  to a cutoff of  34.53, 34.53, 35.91 a.u.

 SYSTEM =  unknown system                          
 POSCAR =   C  O                                   

 Startparameter for this run:
   NWRITE =      2    write-flag & timer
   PREC   = accura    normal or accurate (medium, high low for compatibility)
   ISTART =      0    job   : 0-new  1-cont  2-samecut
   ICHARG =      2    charge: 1-file 2-atom 10-const
   ISPIN  =      1    spin polarized calculation?
   LNONCOLLINEAR =      F non collinear calculations
   LSORBIT =      F    spin-orbit coupling
   INIWAV =      1    electr: 0-lowe 1-rand  2-diag
   LASPH  =      F    aspherical Exc in radial PAW
 Electronic Relaxation 1
   ENCUT  = 1000.0 eV  73.50 Ry    8.57 a.u.  31.78 31.78 64.46*2*pi/ulx,y,z
   ENINI  = 1000.0     initial cutoff
   ENAUG  =  946.8 eV  augmentation charge cutoff
   NELM   =     60;   NELMIN=  2; NELMDL= -5     # of ELM steps 
   EDIFF  = 0.1E-05   stopping-criterion for ELM
   LREAL  =      F    real-space projection
   NLSPLINE    = F    spline interpolate recip. space projectors
   LCOMPAT=      F    compatible to vasp.4.4
   GGA_COMPAT  = T    GGA compatible to vasp.4.4-vasp.4.6
   LMAXPAW     = -100 max onsite density
   LMAXMIX     =    2 max onsite mixed and CHGCAR
   VOSKOWN=      0    Vosko Wilk Nusair interpolation
   ROPT   =    0.00000   0.00000
 Ionic relaxation
   EDIFFG = 0.1E-04   stopping-criterion for IOM
   NSW    =      0    number of steps for IOM
   NBLOCK =      1;   KBLOCK =      1    inner block; outer block 
   IBRION =     -1    ionic relax: 0-MD 1-quasi-New 2-CG
   NFREE  =      0    steps in history (QN), initial steepest desc. (CG)
   ISIF   =      0    stress and relaxation
   IWAVPR =     10    prediction:  0-non 1-charg 2-wave 3-comb
   ISYM   =      2    0-nonsym 1-usesym 2-fastsym
   LCORR  =      T    Harris-Foulkes like correction to forces

   POTIM  = 0.5000    time-step for ionic-motion
   TEIN   =    0.0    initial temperature
   TEBEG  =    0.0;   TEEND  =   0.0 temperature during run
   SMASS  =  -3.00    Nose mass-parameter (am)
   estimated Nose-frequenzy (Omega)   =  0.10E-29 period in steps = 0.13E+47 mass=  -0.347E-26a.u.
   SCALEE = 1.0000    scale energy and forces
   NPACO  =    256;   APACO  = 16.0  distance and # of slots for P.C.
   PSTRESS=    0.0 pullay stress

  Mass of Ions in am
   POMASS =  12.01 16.00
  Ionic Valenz
   ZVAL   =   4.00  6.00
  Atomic Wigner-Seitz radii
   RWIGS  =  -1.00 -1.00
  virtual crystal weights 
   VCA    =   1.00  1.00
   NELECT =     216.0000    total number of electrons
   NUPDOWN=      -1.0000    fix difference up-down

 DOS related values:
   EMIN   =  10.00;   EMAX   =-10.00  energy-range for DOS
   EFERMI =   0.00
   ISMEAR =     0;   SIGMA  =   0.01  broadening in eV -4-tet -1-fermi 0-gaus

 Electronic relaxation 2 (details)
   IALGO  =     58    algorithm
   LDIAG  =      T    sub-space diagonalisation (order eigenvalues)
   LSUBROT=      F    optimize rotation matrix (better conditioning)
   TURBO    =      0    0=normal 1=particle mesh
   IRESTART =      0    0=no restart 2=restart with 2 vectors
   NREBOOT  =      0    no. of reboots
   NMIN     =      0    reboot dimension
   EREF     =   0.00    reference energy to select bands
   IMIX   =      4    mixing-type and parameters
     AMIX     =   0.40;   BMIX     =  1.00
     AMIX_MAG =   1.60;   BMIX_MAG =  1.00
     AMIN     =   0.10
     WC   =   100.;   INIMIX=   1;  MIXPRE=   1;  MAXMIX= -45

 Intra band minimization:
   WEIMIN = 0.0000     energy-eigenvalue tresh-hold
   EBREAK =  0.18E-08  absolut break condition
   DEPER  =   0.30     relativ break condition  

   TIME   =   0.40     timestep for ELM

  volume/ion in A,a.u.               =      62.05       418.76
  Fermi-wavevector in a.u.,A,eV,Ry     =   0.660508  1.248179  5.935820  0.436270
  Thomas-Fermi vector in A             =   1.732977
 
 Write flags
   LWAVE        =      F    write WAVECAR
   LDOWNSAMPLE  =      F    k-point downsampling of WAVECAR
   LCHARG       =      T    write CHGCAR
   LVTOT        =      F    write LOCPOT, total local potential
   LVHAR        =      F    write LOCPOT, Hartree potential only
   LELF         =      F    write electronic localiz. function (ELF)
   LORBIT       =      0    0 simple, 1 ext, 2 COOP (PROOUT), +10 PAW based schemes


 Dipole corrections
   LMONO  =      F    monopole corrections only (constant potential shift)
   LDIPOL =      F    correct potential (dipole corrections)
   IDIPOL =      0    1-x, 2-y, 3-z, 4-all directions 
   EPSILON=  1.0000000 bulk dielectric constant

 Exchange correlation treatment:
   GGA     =    RE    GGA type
   LEXCH   =    40    internal setting for exchange type
   VOSKOWN=      0    Vosko Wilk Nusair interpolation
   LHFCALC =     F    Hartree Fock is set to
   LHFONE  =     F    Hartree Fock one center treatment
   AEXX    =    0.0000 exact exchange contribution

 Linear response parameters
   LEPSILON=     F    determine dielectric tensor
   LRPA    =     F    only Hartree local field effects (RPA)
   LNABLA  =     F    use nabla operator in PAW spheres
   LVEL    =     F    velocity operator in full k-point grid
   LINTERFAST=   F  fast interpolation
   KINTER  =     0    interpolate to denser k-point grid
   CSHIFT  =0.1000    complex shift for real part using Kramers Kronig
   OMEGAMAX=  -1.0    maximum frequency
   DEG_THRESHOLD= 0.2000000E-02 threshold for treating states as degnerate
   RTIME   =   -0.100 relaxation time in fs
  (WPLASMAI=    0.000 imaginary part of plasma frequency in eV, 0.658/RTIME)
   DFIELD  = 0.0000000 0.0000000 0.0000000 field for delta impulse in time
 
 Orbital magnetization related:
   ORBITALMAG=     F  switch on orbital magnetization
   LCHIMAG   =     F  perturbation theory with respect to B field
   DQ        =  0.001000  dq finite difference perturbation B field
   LLRAUG    =     F  two centre corrections for induced B field



--------------------------------------------------------------------------------------------------------


 Static calculation
 charge density and potential will be updated during run
 non-spin polarized calculation
 Conjugate gradient for all bands (Freysoldt, et al. PRB 79, 241103 (2009))
 preconditioned conjugated gradient                                        
 perform sub-space diagonalisation
    before iterative eigenvector-optimisation
 modified Broyden-mixing scheme, WC =      100.0
 initial mixing is a Kerker type mixing with AMIX =  0.4000 and BMIX =      1.0000
 Hartree-type preconditioning will be used
 using additional bands           32
 reciprocal scheme for non local part
 use partial core corrections
 no Harris-corrections to forces 
 use gradient corrections 
 use of overlap-Matrix (Vanderbilt PP)
 Gauss-broadening in eV      SIGMA  =   0.01


--------------------------------------------------------------------------------------------------------


  energy-cutoff  :     1000.00
  volume of cell :     3288.85
      direct lattice vectors                 reciprocal lattice vectors
    12.325000000  0.000000000  0.000000000     0.081135903  0.046843835  0.000000000
    -6.162500000 10.673763102  0.000000000     0.000000000  0.093687670  0.000000000
     0.000000000  0.000000000 25.000000000     0.000000000  0.000000000  0.040000000

  length of vectors
    12.325000000 12.325000000 25.000000000     0.093687670  0.093687670  0.040000000


 
 k-points in units of 2pi/SCALE and weight: auto                                    
   0.00000000  0.00000000  0.00000000       1.000
 
 k-points in reciprocal lattice and weights: auto                                    
   0.00000000  0.00000000  0.00000000       1.000
 
 position of ions in fractional coordinates (direct lattice) 
   0.97245084  0.00032082  0.00056671
   0.03911838  0.13365950  0.00044017
   0.17244363  0.00029545  0.00049963
   0.23909628  0.13364792  0.00025647
   0.97245206  0.20032201  0.00048522
   0.03912836  0.33364377  0.00044415
   0.17245176  0.20035455  0.00021917
   0.23912436  0.33366572  0.00007226
   0.37246557  0.00032440  0.00045391
   0.43913747  0.13361994  0.00025834
   0.97244982  0.40030936  0.00054761
   0.03912498  0.53363679  0.00057341
   0.37241618  0.40032948  0.00000000
   0.43909960  0.53363898  0.00023241
   0.57244368  0.00031213  0.00055958
   0.63911021  0.13363175  0.00054727
   0.97245270  0.60030565  0.00064029
   0.03912449  0.73364036  0.00065451
   0.57243347  0.60030624  0.00040289
   0.63911189  0.73364188  0.00052791
   0.17245463  0.40031823  0.00028904
   0.23912018  0.53363655  0.00037851
   0.37245975  0.20029599  0.00008900
   0.43910710  0.33367342  0.00005576
   0.17245216  0.60031151  0.00052434
   0.23912337  0.73363857  0.00057513
   0.57243108  0.20028917  0.00041330
   0.63911277  0.33361863  0.00046238
   0.37243981  0.60030802  0.00036284
   0.43911609  0.73363786  0.00049419
   0.57246936  0.40032050  0.00033992
   0.63911941  0.53365087  0.00045961
   0.77244572  0.00031543  0.00059616
   0.83911628  0.13364020  0.00057531
   0.77244051  0.20030743  0.00058103
   0.83912024  0.33363573  0.00058547
   0.77244632  0.40029837  0.00058298
   0.83911898  0.53363396  0.00062110
   0.77245614  0.60030817  0.00059571
   0.83911503  0.73364318  0.00063151
   0.97245531  0.80030558  0.00065223
   0.03911471  0.93364329  0.00059805
   0.17245797  0.80031221  0.00062337
   0.23913455  0.93364719  0.00054485
   0.37245140  0.80031667  0.00055140
   0.43912449  0.93364477  0.00054143
   0.57244110  0.80031005  0.00053453
   0.63911507  0.93363899  0.00058764
   0.77244510  0.80031319  0.00060206
   0.83911661  0.93364434  0.00060683
   0.37302101  0.25122688  0.25198421
   0.42087980  0.18931315  0.25456108
   0.32515698  0.31316719  0.24960602
 
 position of ions in cartesian coordinates  (Angst):
  11.98347958  0.00342433  0.01416777
  -0.34154264  1.42664989  0.01100432
   2.12354700  0.00315355  0.01249070
   2.12325634  1.42652621  0.00641170
  10.75098721  2.13818970  0.01213047
  -1.57382270  3.56123457  0.01110375
   0.89078307  2.13853702  0.00547917
   0.89099273  3.56146885  0.00180651
   4.58863896  0.00346260  0.01134782
   4.58893648  1.42622757  0.00645846
   9.51853763  4.27280730  0.01369027
  -2.80632132  5.69591267  0.01433526
   2.12299894  4.27302204  0.00000000
   2.12335237  5.69593607  0.00581036
   7.05344483  0.00333155  0.01398950
   7.05352764  1.42635365  0.01368187
   8.28609598  6.40752033  0.01600723
  -4.03884931  7.83070339  0.01636283
   3.35585531  6.40752662  0.01007237
   3.35598594  7.83071962  0.01319763
  -0.34145776  4.27290193  0.00722612
  -0.34137895  5.69591010  0.00946273
   3.35624236  2.13791198  0.00222492
   3.35573251  3.56155103  0.00139405
  -1.57394684  6.40758280  0.01310850
  -1.57385216  7.83068434  0.01437823
   5.82093107  2.13783916  0.01033241
   5.82114012  3.56096622  0.01155939
   0.89092245  6.40754561  0.00907111
   0.89106251  7.83067670  0.01235474
   4.58870974  4.27292622  0.00849795
   4.58852320  5.69606300  0.01149026
   9.51844972  0.00336679  0.01490402
   9.51855036  1.42644387  0.01438264
   8.28593477  2.13803408  0.01452582
   8.28612680  3.56114872  0.01463668
   7.05356221  4.27268994  0.01457444
   7.05362213  5.69588251  0.01552751
   5.82112285  6.40754723  0.01489279
   5.82101669  7.83073350  0.01578780
   7.05362858  8.54227219  0.01630582
  -5.27148792  9.96548729  0.01495127
  -2.80637951  8.54234295  0.01558431
  -2.80626749  9.96552896  0.01362126
  -0.34148805  8.54239058  0.01378498
  -0.34137657  9.96550309  0.01353576
   2.12342586  8.54231992  0.01336337
   2.12354296  9.96544135  0.01469111
   4.58845581  8.54235337  0.01505154
   4.58852904  9.96549848  0.01517076
   3.04929830  2.68153618  6.29960525
   4.02070129  2.02068374  6.36402711
   2.07766701  3.34267235  6.24015038
 


--------------------------------------------------------------------------------------------------------


 k-point   1 :   0.0000 0.0000 0.0000  plane waves:  236157

 maximum and minimum number of plane-waves per node :     59046    59034

 maximum number of plane-waves:    236157
 maximum index in each direction: 
   IXMAX=   31   IYMAX=   31   IZMAX=   64
   IXMIN=  -31   IYMIN=  -31   IZMIN=  -64


 parallel 3D FFT for wavefunctions:
    minimum data exchange during FFTs selected (reduces bandwidth)
 parallel 3D FFT for charge:
    minimum data exchange during FFTs selected (reduces bandwidth)


 total amount of memory used by VASP MPI-rank0   215378. kBytes
=======================================================================

   base      :      30000. kBytes
   nonl-proj :      57634. kBytes
   fftplans  :      45914. kBytes
   grid      :      67588. kBytes
   one-center:         43. kBytes
   wavefun   :      14199. kBytes
 
     INWAV:  cpu time    0.0000: real time    0.0000
 Broyden mixing: mesh for mixing (old mesh)
   NGX = 63   NGY = 63   NGZ =129
  (NGX  =256   NGY  =256   NGZ  =540)
  gives a total of 512001 points

 initial charge density was supplied:
 charge density of overlapping atoms calculated
 number of electron     216.0000000 magnetization 
 keeping initial charge density in first step


--------------------------------------------------------------------------------------------------------


 Maximum index for augmentation-charges          471 (set IRDMAX)


--------------------------------------------------------------------------------------------------------


 First call to EWALD:  gamma=   0.119
 Maximum number of real-space cells 4x 4x 2
 Maximum number of reciprocal cells 2x 2x 4

    FEWALD:  cpu time    0.0024: real time    0.0025


--------------------------------------- Iteration      1(   1)  ---------------------------------------


    POTLOK:  cpu time    0.3949: real time    0.3980
    SETDIJ:  cpu time    0.0048: real time    0.0050
    TRIAL :  cpu time    5.6005: real time    5.6772
    CORREC:  cpu time    0.0006: real time    0.0008
    --------------------------------------------
      LOOP:  cpu time    6.0090: real time    6.0935

 eigenvalue-minimisations  :   280
 total energy-change (2. order) : 0.2767643E+04  (-0.1023163E+05)
 number of electron     216.0000000 magnetization 
 augmentation part      216.0000000 magnetization 

 Free energy of the ion-electron system (eV)
  ---------------------------------------------------
  alpha Z        PSCENC =        47.94900195
  Ewald energy   TEWEN  =     43223.40734049
  -Hartree energ DENC   =    -49292.59772567
  -exchange      EXHF   =         0.00000000
  -V(xc)+E(xc)   XCENC  =       415.89415407
  PAW double counting   =      6538.03749920    -6258.26020123
  entropy T*S    EENTRO =        -0.00000000
  eigenvalues    EBANDS =      -271.09645420
  atomic energy  EATOM  =      8364.30921166
  ---------------------------------------------------
  free energy    TOTEN  =      2767.64282627 eV

  energy without entropy =     2767.64282627  energy(sigma->0) =     2767.64282627


--------------------------------------------------------------------------------------------------------




--------------------------------------- Iteration      1(   2)  ---------------------------------------


    TRIAL :  cpu time    8.9823: real time    9.0598
    CORREC:  cpu time    0.0001: real time    0.0001
    --------------------------------------------
      LOOP:  cpu time    9.0666: real time    9.1460

 eigenvalue-minimisations  :   504
 total energy-change (2. order) :-0.2486858E+04  (-0.2357919E+04)
 number of electron     216.0000000 magnetization 
 augmentation part      216.0000000 magnetization 

 Free energy of the ion-electron system (eV)
  ---------------------------------------------------
  alpha Z        PSCENC =        47.94900195
  Ewald energy   TEWEN  =     43223.40734049
  -Hartree energ DENC   =    -49292.59772567
  -exchange      EXHF   =         0.00000000
  -V(xc)+E(xc)   XCENC  =       415.89415407
  PAW double counting   =      6538.03749920    -6258.26020123
  entropy T*S    EENTRO =        -0.00000000
  eigenvalues    EBANDS =     -2757.95464036
  atomic energy  EATOM  =      8364.30921166
  ---------------------------------------------------
  free energy    TOTEN  =       280.78464011 eV

  energy without entropy =      280.78464011  energy(sigma->0) =      280.78464011


--------------------------------------------------------------------------------------------------------




--------------------------------------- Iteration      1(   3)  ---------------------------------------


    TRIAL :  cpu time    6.4304: real time    6.4864
    CORREC:  cpu time    0.0001: real time    0.0001
    --------------------------------------------
      LOOP:  cpu time    6.4684: real time    6.5274

 eigenvalue-minimisations  :   336
 total energy-change (2. order) :-0.7333063E+03  (-0.7280036E+03)
 number of electron     216.0000000 magnetization 
 augmentation part      216.0000000 magnetization 

 Free energy of the ion-electron system (eV)
  ---------------------------------------------------
  alpha Z        PSCENC =        47.94900195
  Ewald energy   TEWEN  =     43223.40734049
  -Hartree energ DENC   =    -49292.59772567
  -exchange      EXHF   =         0.00000000
  -V(xc)+E(xc)   XCENC  =       415.89415407
  PAW double counting   =      6538.03749920    -6258.26020123
  entropy T*S    EENTRO =        -0.00000000
  eigenvalues    EBANDS =     -3491.26097512
  atomic energy  EATOM  =      8364.30921166
  ---------------------------------------------------
  free energy    TOTEN  =      -452.52169465 eV

  energy without entropy =     -452.52169465  energy(sigma->0) =     -452.52169465


--------------------------------------------------------------------------------------------------------




--------------------------------------- Iteration      1(   4)  ---------------------------------------


    TRIAL :  cpu time    6.4305: real time    6.4868
    CORREC:  cpu time    0.0001: real time    0.0001
    --------------------------------------------
      LOOP:  cpu time    6.5019: real time    6.5634

 eigenvalue-minimisations  :   336
 total energy-change (2. order) :-0.4476087E+02  (-0.4443290E+02)
 number of electron     216.0000000 magnetization 
 augmentation part      216.0000000 magnetization 

 Free energy of the ion-electron system (eV)
  ---------------------------------------------------
  alpha Z        PSCENC =        47.94900195
  Ewald energy   TEWEN  =     43223.40734049
  -Hartree energ DENC   =    -49292.59772567
  -exchange      EXHF   =         0.00000000
  -V(xc)+E(xc)   XCENC  =       415.89415407
  PAW double counting   =      6538.03749920    -6258.26020123
  entropy T*S    EENTRO =        -0.00000000
  eigenvalues    EBANDS =     -3536.02184510
  atomic energy  EATOM  =      8364.30921166
  ---------------------------------------------------
  free energy    TOTEN  =      -497.28256463 eV

  energy without entropy =     -497.28256463  energy(sigma->0) =     -497.28256463


--------------------------------------------------------------------------------------------------------




--------------------------------------- Iteration      1(   5)  ---------------------------------------


    TRIAL :  cpu time    7.2642: real time    7.3415
    CORREC:  cpu time    0.0001: real time    0.0001
    CHARGE:  cpu time    0.3119: real time    0.3151
    --------------------------------------------
      LOOP:  cpu time    7.6298: real time    7.7119

 eigenvalue-minimisations  :   392
 total energy-change (2. order) :-0.1321088E+01  (-0.1312686E+01)
 number of electron     216.0000000 magnetization 
 augmentation part       -0.3149556 magnetization 

 Free energy of the ion-electron system (eV)
  ---------------------------------------------------
  alpha Z        PSCENC =        47.94900195
  Ewald energy   TEWEN  =     43223.40734049
  -Hartree energ DENC   =    -49292.59772567
  -exchange      EXHF   =         0.00000000
  -V(xc)+E(xc)   XCENC  =       415.89415407
  PAW double counting   =      6538.03749920    -6258.26020123
  entropy T*S    EENTRO =        -0.00000000
  eigenvalues    EBANDS =     -3537.34293352
  atomic energy  EATOM  =      8364.30921166
  ---------------------------------------------------
  free energy    TOTEN  =      -498.60365304 eV

  energy without entropy =     -498.60365304  energy(sigma->0) =     -498.60365304


--------------------------------------------------------------------------------------------------------




--------------------------------------- Iteration      1(   6)  ---------------------------------------


    POTLOK:  cpu time    0.3772: real time    0.3800
    SETDIJ:  cpu time    0.0028: real time    0.0028
    TRIAL :  cpu time    2.6822: real time    2.7072
    CORREC:  cpu time    1.0642: real time    1.0736
    CHARGE:  cpu time    0.3138: real time    0.3161
    --------------------------------------------
      LOOP:  cpu time    4.4996: real time    4.5401

 eigenvalue-minimisations  :     0
 total energy-change (2. order) : 0.4853178E+02  (-0.1433323E+02)
 number of electron     216.0000000 magnetization 
 augmentation part       -0.4055470 magnetization 

 Free energy of the ion-electron system (eV)
  ---------------------------------------------------
  alpha Z        PSCENC =        47.94900195
  Ewald energy   TEWEN  =     43223.40734049
  -Hartree energ DENC   =    -50718.42610286
  -exchange      EXHF   =         0.00000000
  -V(xc)+E(xc)   XCENC  =       462.87657552
  PAW double counting   =    104472.14176558  -104197.70420607
  entropy T*S    EENTRO =        -0.00000000
  eigenvalues    EBANDS =     -2104.62545494
  atomic energy  EATOM  =      8364.30921166
  ---------------------------------------------------
  free energy    TOTEN  =      -450.07186866 eV

  energy without entropy =     -450.07186866  energy(sigma->0) =     -450.07186866


--------------------------------------------------------------------------------------------------------




--------------------------------------- Iteration      1(   7)  ---------------------------------------


    POTLOK:  cpu time    0.3791: real time    0.3816
    SETDIJ:  cpu time    0.0028: real time    0.0028
    TRIAL :  cpu time    2.6840: real time    2.7093
    CORREC:  cpu time    1.0658: real time    1.0745
    CHARGE:  cpu time    0.3128: real time    0.3152
    --------------------------------------------
      LOOP:  cpu time    4.4644: real time    4.5184

 eigenvalue-minimisations  :     0
 total energy-change (2. order) :-0.1437070E+02  (-0.1752600E+01)
 number of electron     216.0000000 magnetization 
 augmentation part       -0.4516031 magnetization 

 Free energy of the ion-electron system (eV)
  ---------------------------------------------------
  alpha Z        PSCENC =        47.94900195
  Ewald energy   TEWEN  =     43223.40734049
  -Hartree energ DENC   =    -50228.73076222
  -exchange      EXHF   =         0.00000000
  -V(xc)+E(xc)   XCENC  =       446.77904145
  PAW double counting   =    120533.78062071  -120257.29008956
  entropy T*S    EENTRO =        -0.00000000
  eigenvalues    EBANDS =     -2594.64693573
  atomic energy  EATOM  =      8364.30921166
  ---------------------------------------------------
  free energy    TOTEN  =      -464.44257125 eV

  energy without entropy =     -464.44257125  energy(sigma->0) =     -464.44257125


--------------------------------------------------------------------------------------------------------




--------------------------------------- Iteration      1(   8)  ---------------------------------------


    POTLOK:  cpu time    0.3766: real time    0.3795
    SETDIJ:  cpu time    0.0029: real time    0.0029
    TRIAL :  cpu time    2.6846: real time    2.7091
    CORREC:  cpu time    1.0678: real time    1.0764
    CHARGE:  cpu time    0.3119: real time    0.3142
    --------------------------------------------
      LOOP:  cpu time    4.5087: real time    4.5591

 eigenvalue-minimisations  :     0
 total energy-change (2. order) :-0.1751514E+01  (-0.4575451E+00)
 number of electron     216.0000000 magnetization 
 augmentation part       -0.4674681 magnetization 

 Free energy of the ion-electron system (eV)
  ---------------------------------------------------
  alpha Z        PSCENC =        47.94900195
  Ewald energy   TEWEN  =     43223.40734049
  -Hartree energ DENC   =    -50198.17147464
  -exchange      EXHF   =         0.00000000
  -V(xc)+E(xc)   XCENC  =       446.17324021
  PAW double counting   =    124702.36158502  -124425.57947015
  entropy T*S    EENTRO =        -0.00000000
  eigenvalues    EBANDS =     -2626.64351938
  atomic energy  EATOM  =      8364.30921166
  ---------------------------------------------------
  free energy    TOTEN  =      -466.19408485 eV

  energy without entropy =     -466.19408485  energy(sigma->0) =     -466.19408485


--------------------------------------------------------------------------------------------------------




--------------------------------------- Iteration      1(   9)  ---------------------------------------


    POTLOK:  cpu time    0.3786: real time    0.3811
    SETDIJ:  cpu time    0.0029: real time    0.0029
    TRIAL :  cpu time    2.6878: real time    2.7118
    CORREC:  cpu time    1.0642: real time    1.0728
    CHARGE:  cpu time    0.3135: real time    0.3158
    --------------------------------------------
      LOOP:  cpu time    4.4701: real time    4.5194

 eigenvalue-minimisations  :     0
 total energy-change (2. order) :-0.4573594E+00  (-0.1432604E+00)
 number of electron     216.0000000 magnetization 
 augmentation part       -0.4742387 magnetization 

 Free energy of the ion-electron system (eV)
  ---------------------------------------------------
  alpha Z        PSCENC =        47.94900195
  Ewald energy   TEWEN  =     43223.40734049
  -Hartree energ DENC   =    -50214.97314520
  -exchange      EXHF   =         0.00000000
  -V(xc)+E(xc)   XCENC  =       446.36780445
  PAW double counting   =    127191.77429109  -126914.89142333
  entropy T*S    EENTRO =        -0.00000000
  eigenvalues    EBANDS =     -2610.59452533
  atomic energy  EATOM  =      8364.30921166
  ---------------------------------------------------
  free energy    TOTEN  =      -466.65144422 eV

  energy without entropy =     -466.65144422  energy(sigma->0) =     -466.65144422


--------------------------------------------------------------------------------------------------------




--------------------------------------- Iteration      1(  10)  ---------------------------------------


    POTLOK:  cpu time    0.3782: real time    0.3809
    SETDIJ:  cpu time    0.0028: real time    0.0028
    TRIAL :  cpu time    2.6849: real time    2.7094
    CORREC:  cpu time    1.0652: real time    1.0740
    CHARGE:  cpu time    0.3142: real time    0.3166
    --------------------------------------------
      LOOP:  cpu time    4.5013: real time    4.5512

 eigenvalue-minimisations  :     0
 total energy-change (2. order) :-0.1430539E+00  (-0.5640142E-01)
 number of electron     216.0000000 magnetization 
 augmentation part       -0.4748105 magnetization 

 Free energy of the ion-electron system (eV)
  ---------------------------------------------------
  alpha Z        PSCENC =        47.94900195
  Ewald energy   TEWEN  =     43223.40734049
  -Hartree energ DENC   =    -50216.64429580
  -exchange      EXHF   =         0.00000000
  -V(xc)+E(xc)   XCENC  =       446.29255555
  PAW double counting   =    127421.72303878  -127144.78014197
  entropy T*S    EENTRO =        -0.00000000
  eigenvalues    EBANDS =     -2609.05120875
  atomic energy  EATOM  =      8364.30921166
  ---------------------------------------------------
  free energy    TOTEN  =      -466.79449809 eV

  energy without entropy =     -466.79449809  energy(sigma->0) =     -466.79449809


--------------------------------------------------------------------------------------------------------




--------------------------------------- Iteration      1(  11)  ---------------------------------------


    POTLOK:  cpu time    0.3779: real time    0.3803
    SETDIJ:  cpu time    0.0029: real time    0.0029
    TRIAL :  cpu time    2.6856: real time    2.7099
    CORREC:  cpu time    1.0728: real time    1.0812
    CHARGE:  cpu time    0.3135: real time    0.3158
    --------------------------------------------
      LOOP:  cpu time    4.4763: real time    4.5183

 eigenvalue-minimisations  :     0
 total energy-change (2. order) :-0.5627310E-01  (-0.2287306E-01)
 number of electron     216.0000000 magnetization 
 augmentation part       -0.4745274 magnetization 

 Free energy of the ion-electron system (eV)
  ---------------------------------------------------
  alpha Z        PSCENC =        47.94900195
  Ewald energy   TEWEN  =     43223.40734049
  -Hartree energ DENC   =    -50213.12005586
  -exchange      EXHF   =         0.00000000
  -V(xc)+E(xc)   XCENC  =       446.23571496
  PAW double counting   =    126836.21672215  -126559.27573408
  entropy T*S    EENTRO =        -0.00000000
  eigenvalues    EBANDS =     -2612.57297248
  atomic energy  EATOM  =      8364.30921166
  ---------------------------------------------------
  free energy    TOTEN  =      -466.85077119 eV

  energy without entropy =     -466.85077119  energy(sigma->0) =     -466.85077119


--------------------------------------------------------------------------------------------------------




--------------------------------------- Iteration      1(  12)  ---------------------------------------


    POTLOK:  cpu time    0.3751: real time    0.3775
    SETDIJ:  cpu time    0.0029: real time    0.0029
    TRIAL :  cpu time    2.6841: real time    2.7085
    CORREC:  cpu time    1.0605: real time    1.0695
    CHARGE:  cpu time    0.3125: real time    0.3149
    --------------------------------------------
      LOOP:  cpu time    4.4938: real time    4.5344

 eigenvalue-minimisations  :     0
 total energy-change (2. order) :-0.2277688E-01  (-0.8140792E-02)
 number of electron     216.0000000 magnetization 
 augmentation part       -0.4747991 magnetization 

 Free energy of the ion-electron system (eV)
  ---------------------------------------------------
  alpha Z        PSCENC =        47.94900195
  Ewald energy   TEWEN  =     43223.40734049
  -Hartree energ DENC   =    -50211.58211385
  -exchange      EXHF   =         0.00000000
  -V(xc)+E(xc)   XCENC  =       446.20559401
  PAW double counting   =    126463.99471898  -126187.06975872
  entropy T*S    EENTRO =        -0.00000000
  eigenvalues    EBANDS =     -2614.08754259
  atomic energy  EATOM  =      8364.30921166
  ---------------------------------------------------
  free energy    TOTEN  =      -466.87354807 eV

  energy without entropy =     -466.87354807  energy(sigma->0) =     -466.87354807


--------------------------------------------------------------------------------------------------------




--------------------------------------- Iteration      1(  13)  ---------------------------------------


    POTLOK:  cpu time    0.3738: real time    0.3761
    SETDIJ:  cpu time    0.0030: real time    0.0030
    TRIAL :  cpu time    2.6832: real time    2.7080
    CORREC:  cpu time    1.0572: real time    1.0670
    CHARGE:  cpu time    0.3132: real time    0.3158
    --------------------------------------------
      LOOP:  cpu time    4.5398: real time    4.5816

 eigenvalue-minimisations  :     0
 total energy-change (2. order) :-0.8120839E-02  (-0.2424769E-02)
 number of electron     216.0000000 magnetization 
 augmentation part       -0.4745029 magnetization 

 Free energy of the ion-electron system (eV)
  ---------------------------------------------------
  alpha Z        PSCENC =        47.94900195
  Ewald energy   TEWEN  =     43223.40734049
  -Hartree energ DENC   =    -50211.53533108
  -exchange      EXHF   =         0.00000000
  -V(xc)+E(xc)   XCENC  =       446.19758099
  PAW double counting   =    126391.05669168  -126114.13722970
  entropy T*S    EENTRO =        -0.00000000
  eigenvalues    EBANDS =     -2614.12893490
  atomic energy  EATOM  =      8364.30921166
  ---------------------------------------------------
  free energy    TOTEN  =      -466.88166891 eV

  energy without entropy =     -466.88166891  energy(sigma->0) =     -466.88166891


--------------------------------------------------------------------------------------------------------




--------------------------------------- Iteration      1(  14)  ---------------------------------------


    POTLOK:  cpu time    0.3746: real time    0.3769
    SETDIJ:  cpu time    0.0028: real time    0.0028
    TRIAL :  cpu time    2.6861: real time    2.7108
    CORREC:  cpu time    1.0594: real time    1.0680
    CHARGE:  cpu time    0.3138: real time    0.3161
    --------------------------------------------
      LOOP:  cpu time    4.5366: real time    4.5786

 eigenvalue-minimisations  :     0
 total energy-change (2. order) :-0.2425620E-02  (-0.7031423E-03)
 number of electron     216.0000000 magnetization 
 augmentation part       -0.4742485 magnetization 

 Free energy of the ion-electron system (eV)
  ---------------------------------------------------
  alpha Z        PSCENC =        47.94900195
  Ewald energy   TEWEN  =     43223.40734049
  -Hartree energ DENC   =    -50211.47981095
  -exchange      EXHF   =         0.00000000
  -V(xc)+E(xc)   XCENC  =       446.19847003
  PAW double counting   =    126456.99352240  -126180.07530119
  entropy T*S    EENTRO =        -0.00000000
  eigenvalues    EBANDS =     -2614.18652892
  atomic energy  EATOM  =      8364.30921166
  ---------------------------------------------------
  free energy    TOTEN  =      -466.88409453 eV

  energy without entropy =     -466.88409453  energy(sigma->0) =     -466.88409453


--------------------------------------------------------------------------------------------------------




--------------------------------------- Iteration      1(  15)  ---------------------------------------


    POTLOK:  cpu time    0.3739: real time    0.3762
    SETDIJ:  cpu time    0.0029: real time    0.0029
    TRIAL :  cpu time    2.6832: real time    2.7077
    CORREC:  cpu time    1.0556: real time    1.0649
    CHARGE:  cpu time    0.3212: real time    0.3235
    --------------------------------------------
      LOOP:  cpu time    4.4765: real time    4.5164

 eigenvalue-minimisations  :     0
 total energy-change (2. order) :-0.7052599E-03  (-0.2513219E-03)
 number of electron     216.0000000 magnetization 
 augmentation part       -0.4739424 magnetization 

 Free energy of the ion-electron system (eV)
  ---------------------------------------------------
  alpha Z        PSCENC =        47.94900195
  Ewald energy   TEWEN  =     43223.40734049
  -Hartree energ DENC   =    -50211.13236123
  -exchange      EXHF   =         0.00000000
  -V(xc)+E(xc)   XCENC  =       446.18559809
  PAW double counting   =    126497.07479689  -126220.15519450
  entropy T*S    EENTRO =        -0.00000000
  eigenvalues    EBANDS =     -2614.52319313
  atomic energy  EATOM  =      8364.30921166
  ---------------------------------------------------
  free energy    TOTEN  =      -466.88479979 eV

  energy without entropy =     -466.88479979  energy(sigma->0) =     -466.88479979


--------------------------------------------------------------------------------------------------------




--------------------------------------- Iteration      1(  16)  ---------------------------------------


    POTLOK:  cpu time    0.3718: real time    0.3743
    SETDIJ:  cpu time    0.0027: real time    0.0027
    TRIAL :  cpu time    2.6850: real time    2.7108
    CORREC:  cpu time    1.0570: real time    1.0661
    CHARGE:  cpu time    0.3129: real time    0.3153
    --------------------------------------------
      LOOP:  cpu time    4.4447: real time    4.4867

 eigenvalue-minimisations  :     0
 total energy-change (2. order) :-0.2528167E-03  (-0.1039694E-03)
 number of electron     216.0000000 magnetization 
 augmentation part       -0.4737625 magnetization 

 Free energy of the ion-electron system (eV)
  ---------------------------------------------------
  alpha Z        PSCENC =        47.94900195
  Ewald energy   TEWEN  =     43223.40734049
  -Hartree energ DENC   =    -50211.24629735
  -exchange      EXHF   =         0.00000000
  -V(xc)+E(xc)   XCENC  =       446.19009594
  PAW double counting   =    126474.75628483  -126197.83735831
  entropy T*S    EENTRO =        -0.00000000
  eigenvalues    EBANDS =     -2614.41333182
  atomic energy  EATOM  =      8364.30921166
  ---------------------------------------------------
  free energy    TOTEN  =      -466.88505261 eV

  energy without entropy =     -466.88505261  energy(sigma->0) =     -466.88505261


--------------------------------------------------------------------------------------------------------




--------------------------------------- Iteration      1(  17)  ---------------------------------------


    POTLOK:  cpu time    0.3731: real time    0.3755
    SETDIJ:  cpu time    0.0028: real time    0.0028
    TRIAL :  cpu time    2.6825: real time    2.7071
    CORREC:  cpu time    1.0532: real time    1.0666
    CHARGE:  cpu time    0.3129: real time    0.3153
    --------------------------------------------
      LOOP:  cpu time    4.5069: real time    4.5508

 eigenvalue-minimisations  :     0
 total energy-change (2. order) :-0.1048760E-03  (-0.4095716E-04)
 number of electron     216.0000000 magnetization 
 augmentation part       -0.4737586 magnetization 

 Free energy of the ion-electron system (eV)
  ---------------------------------------------------
  alpha Z        PSCENC =        47.94900195
  Ewald energy   TEWEN  =     43223.40734049
  -Hartree energ DENC   =    -50211.36686790
  -exchange      EXHF   =         0.00000000
  -V(xc)+E(xc)   XCENC  =       446.19327338
  PAW double counting   =    126442.41949766  -126165.50086950
  entropy T*S    EENTRO =        -0.00000000
  eigenvalues    EBANDS =     -2614.29574523
  atomic energy  EATOM  =      8364.30921166
  ---------------------------------------------------
  free energy    TOTEN  =      -466.88515748 eV

  energy without entropy =     -466.88515748  energy(sigma->0) =     -466.88515748


--------------------------------------------------------------------------------------------------------




--------------------------------------- Iteration      1(  18)  ---------------------------------------


    POTLOK:  cpu time    0.3748: real time    0.3772
    SETDIJ:  cpu time    0.0034: real time    0.0034
    TRIAL :  cpu time    2.6793: real time    2.7049
    CORREC:  cpu time    1.0590: real time    1.0675
    CHARGE:  cpu time    0.3136: real time    0.3159
    --------------------------------------------
      LOOP:  cpu time    4.4827: real time    4.5255

 eigenvalue-minimisations  :     0
 total energy-change (2. order) :-0.4117699E-04  (-0.1594868E-04)
 number of electron     216.0000000 magnetization 
 augmentation part       -0.4738196 magnetization 

 Free energy of the ion-electron system (eV)
  ---------------------------------------------------
  alpha Z        PSCENC =        47.94900195
  Ewald energy   TEWEN  =     43223.40734049
  -Hartree energ DENC   =    -50211.34894661
  -exchange      EXHF   =         0.00000000
  -V(xc)+E(xc)   XCENC  =       446.19228017
  PAW double counting   =    126434.86645816  -126157.94749045
  entropy T*S    EENTRO =        -0.00000000
  eigenvalues    EBANDS =     -2614.31305404
  atomic energy  EATOM  =      8364.30921166
  ---------------------------------------------------
  free energy    TOTEN  =      -466.88519866 eV

  energy without entropy =     -466.88519866  energy(sigma->0) =     -466.88519866


--------------------------------------------------------------------------------------------------------




--------------------------------------- Iteration      1(  19)  ---------------------------------------


    POTLOK:  cpu time    0.3720: real time    0.3744
    SETDIJ:  cpu time    0.0028: real time    0.0028
    TRIAL :  cpu time    2.6840: real time    2.7086
    CORREC:  cpu time    1.0590: real time    1.0678
    CHARGE:  cpu time    0.3122: real time    0.3145
    --------------------------------------------
      LOOP:  cpu time    4.4635: real time    4.5033

 eigenvalue-minimisations  :     0
 total energy-change (2. order) :-0.1562324E-04  (-0.5869587E-05)
 number of electron     216.0000000 magnetization 
 augmentation part       -0.4738999 magnetization 

 Free energy of the ion-electron system (eV)
  ---------------------------------------------------
  alpha Z        PSCENC =        47.94900195
  Ewald energy   TEWEN  =     43223.40734049
  -Hartree energ DENC   =    -50211.36045007
  -exchange      EXHF   =         0.00000000
  -V(xc)+E(xc)   XCENC  =       446.19306610
  PAW double counting   =    126440.76325708  -126163.84414878
  entropy T*S    EENTRO =        -0.00000000
  eigenvalues    EBANDS =     -2614.30249271
  atomic energy  EATOM  =      8364.30921166
  ---------------------------------------------------
  free energy    TOTEN  =      -466.88521428 eV

  energy without entropy =     -466.88521428  energy(sigma->0) =     -466.88521428


--------------------------------------------------------------------------------------------------------




--------------------------------------- Iteration      1(  20)  ---------------------------------------


    POTLOK:  cpu time    0.3732: real time    0.3755
    SETDIJ:  cpu time    0.0028: real time    0.0028
    TRIAL :  cpu time    2.6815: real time    2.7061
    CORREC:  cpu time    1.0557: real time    1.0644
    CHARGE:  cpu time    0.3131: real time    0.3154
    --------------------------------------------
      LOOP:  cpu time    4.4814: real time    4.5380

 eigenvalue-minimisations  :     0
 total energy-change (2. order) :-0.5454698E-05  (-0.2110226E-05)
 number of electron     216.0000000 magnetization 
 augmentation part       -0.4739089 magnetization 

 Free energy of the ion-electron system (eV)
  ---------------------------------------------------
  alpha Z        PSCENC =        47.94900195
  Ewald energy   TEWEN  =     43223.40734049
  -Hartree energ DENC   =    -50211.35830604
  -exchange      EXHF   =         0.00000000
  -V(xc)+E(xc)   XCENC  =       446.19248578
  PAW double counting   =    126446.87208351  -126169.95269098
  entropy T*S    EENTRO =        -0.00000000
  eigenvalues    EBANDS =     -2614.30434611
  atomic energy  EATOM  =      8364.30921166
  ---------------------------------------------------
  free energy    TOTEN  =      -466.88521974 eV

  energy without entropy =     -466.88521974  energy(sigma->0) =     -466.88521974


--------------------------------------------------------------------------------------------------------




--------------------------------------- Iteration      1(  21)  ---------------------------------------


    POTLOK:  cpu time    0.3705: real time    0.3728
    SETDIJ:  cpu time    0.0027: real time    0.0028
    TRIAL :  cpu time    2.6805: real time    2.7070
    CORREC:  cpu time    1.0550: real time    1.0635
    CHARGE:  cpu time    0.3131: real time    0.3154
    --------------------------------------------
      LOOP:  cpu time    4.4840: real time    4.5253

 eigenvalue-minimisations  :     0
 total energy-change (2. order) :-0.1960594E-05  (-0.8863680E-06)
 number of electron     216.0000000 magnetization 
 augmentation part       -0.4739167 magnetization 

 Free energy of the ion-electron system (eV)
  ---------------------------------------------------
  alpha Z        PSCENC =        47.94900195
  Ewald energy   TEWEN  =     43223.40734049
  -Hartree energ DENC   =    -50211.37767335
  -exchange      EXHF   =         0.00000000
  -V(xc)+E(xc)   XCENC  =       446.19347596
  PAW double counting   =    126448.29572441  -126171.37647861
  entropy T*S    EENTRO =        -0.00000000
  eigenvalues    EBANDS =     -2614.28582421
  atomic energy  EATOM  =      8364.30921166
  ---------------------------------------------------
  free energy    TOTEN  =      -466.88522170 eV

  energy without entropy =     -466.88522170  energy(sigma->0) =     -466.88522170


--------------------------------------------------------------------------------------------------------




--------------------------------------- Iteration      1(  22)  ---------------------------------------


    POTLOK:  cpu time    0.3700: real time    0.3725
    SETDIJ:  cpu time    0.0027: real time    0.0028
    TRIAL :  cpu time    2.6778: real time    2.7096
    CORREC:  cpu time    1.0576: real time    1.0669
    EDDIAG:  cpu time    0.5946: real time    0.6006
    CHARGE:  cpu time    0.3112: real time    0.3136
    --------------------------------------------
      LOOP:  cpu time    5.0443: real time    5.0966

 eigenvalue-minimisations  :     0
 total energy-change (2. order) :-0.8688658E-06  (-0.4218749E-06)
 number of electron     216.0000000 magnetization 
 augmentation part       -0.4739104 magnetization 

 Free energy of the ion-electron system (eV)
  ---------------------------------------------------
  alpha Z        PSCENC =        47.94900195
  Ewald energy   TEWEN  =     43223.40734049
  -Hartree energ DENC   =    -50211.36338241
  -exchange      EXHF   =         0.00000000
  -V(xc)+E(xc)   XCENC  =       446.19279273
  PAW double counting   =    126447.44493737  -126170.52564252
  entropy T*S    EENTRO =        -0.00000000
  eigenvalues    EBANDS =     -2614.29948184
  atomic energy  EATOM  =      8364.30921166
  ---------------------------------------------------
  free energy    TOTEN  =      -466.88522257 eV

  energy without entropy =     -466.88522257  energy(sigma->0) =     -466.88522257


--------------------------------------------------------------------------------------------------------


  average scaling for gradient   0.9443


 average (electrostatic) potential at core
  the test charge radii are     0.5770  0.5955
  (the norm of the test charge is              1.0000)
       1 -85.7753       2 -85.7746       3 -85.7758       4 -85.7768       5 -85.7735
       6 -85.7732       7 -85.7756       8 -85.7740       9 -85.7743      10 -85.7752
      11 -85.7732      12 -85.7734      13 -85.7751      14 -85.7741      15 -85.7731
      16 -85.7735      17 -85.7741      18 -85.7747      19 -85.7752      20 -85.7742
      21 -85.7731      22 -85.7728      23 -85.7774      24 -85.7773      25 -85.7729
      26 -85.7733      27 -85.7744      28 -85.7757      29 -85.7731      30 -85.7730
      31 -85.7763      32 -85.7754      33 -85.7736      34 -85.7733      35 -85.7734
      36 -85.7737      37 -85.7745      38 -85.7750      39 -85.7750      40 -85.7748
      41 -85.7748      42 -85.7752      43 -85.7742      44 -85.7753      45 -85.7730
      46 -85.7733      47 -85.7734      48 -85.7732      49 -85.7748      50 -85.7742
      51 -89.7328      52-120.3982      53-120.3976
 
 
 
 E-fermi :  -4.2022     XC(G=0):  -1.9496     alpha+bet : -1.6890

 Fermi energy:        -4.2022432484

 k-point     1 :       0.0000    0.0000    0.0000
  band No.  band energies     occupation 
      1     -27.6726      2.00000
      2     -26.6502      2.00000
      3     -22.3417      2.00000
      4     -21.4002      2.00000
      5     -21.3993      2.00000
      6     -21.3991      2.00000
      7     -21.3983      2.00000
      8     -21.3982      2.00000
      9     -21.3981      2.00000
     10     -19.5514      2.00000
     11     -19.5513      2.00000
     12     -19.5511      2.00000
     13     -19.5505      2.00000
     14     -19.5501      2.00000
     15     -19.5499      2.00000
     16     -18.6525      2.00000
     17     -18.6523      2.00000
     18     -18.6520      2.00000
     19     -18.6516      2.00000
     20     -18.6511      2.00000
     21     -18.6508      2.00000
     22     -16.4901      2.00000
     23     -16.4898      2.00000
     24     -16.4889      2.00000
     25     -16.4888      2.00000
     26     -16.4883      2.00000
     27     -16.4883      2.00000
     28     -15.4734      2.00000
     29     -15.4734      2.00000
     30     -15.4725      2.00000
     31     -15.4724      2.00000
     32     -15.4719      2.00000
     33     -15.4718      2.00000
     34     -14.1218      2.00000
     35     -14.1217      2.00000
     36     -14.1210      2.00000
     37     -14.1209      2.00000
     38     -14.1208      2.00000
     39     -14.1206      2.00000
     40     -12.4519      2.00000
     41     -11.7320      2.00000
     42     -11.7318      2.00000
     43     -11.7313      2.00000
     44     -11.7313      2.00000
     45     -11.7302      2.00000
     46     -11.7300      2.00000
     47     -11.6092      2.00000
     48     -11.6091      2.00000
     49     -11.6085      2.00000
     50     -11.6085      2.00000
     51     -11.6081      2.00000
     52     -11.6080      2.00000
     53     -11.2265      2.00000
     54     -11.1437      2.00000
     55     -11.1436      2.00000
     56     -10.3658      2.00000
     57     -10.2250      2.00000
     58     -10.2248      2.00000
     59     -10.2233      2.00000
     60     -10.2229      2.00000
     61     -10.2228      2.00000
     62     -10.2227      2.00000
     63      -9.2510      2.00000
     64      -9.2508      2.00000
     65      -9.2507      2.00000
     66      -9.2495      2.00000
     67      -9.2488      2.00000
     68      -9.2487      2.00000
     69      -8.9416      2.00000
     70      -8.9412      2.00000
     71      -8.9407      2.00000
     72      -8.9405      2.00000
     73      -8.9401      2.00000
     74      -8.9400      2.00000
     75      -8.9088      2.00000
     76      -8.9086      2.00000
     77      -8.9081      2.00000
     78      -8.9080      2.00000
     79      -8.9077      2.00000
     80      -8.9069      2.00000
     81      -7.6043      2.00000
     82      -7.6042      2.00000
     83      -7.2824      2.00000
     84      -7.2809      2.00000
     85      -7.2807      2.00000
     86      -7.2802      2.00000
     87      -7.2792      2.00000
     88      -7.2791      2.00000
     89      -7.1238      2.00000
     90      -7.1233      2.00000
     91      -7.1232      2.00000
     92      -7.1229      2.00000
     93      -7.1228      2.00000
     94      -7.1226      2.00000
     95      -6.2300      2.00000
     96      -6.2296      2.00000
     97      -6.2292      2.00000
     98      -6.2288      2.00000
     99      -6.2288      2.00000
    100      -6.2285      2.00000
    101      -5.7887      2.00000
    102      -5.7866      2.00000
    103      -4.2507      2.00000
    104      -4.2504      2.00000
    105      -4.2499      2.00000
    106      -4.2498      2.00000
    107      -4.2488      2.00000
    108      -4.2487      2.00000
    109      -1.4366      0.00000
    110      -1.4363      0.00000
    111      -1.4357      0.00000
    112      -1.4354      0.00000
    113      -1.4350      0.00000
    114      -1.4347      0.00000
    115       0.1746      0.00000
    116       0.4364      0.00000
    117       0.4368      0.00000
    118       0.4373      0.00000
    119       0.4376      0.00000
    120       0.4376      0.00000
    121       0.4395      0.00000
    122       0.5998      0.00000
    123       0.9214      0.00000
    124       1.1179      0.00000
    125       1.2269      0.00000
    126       1.5246      0.00000
    127       1.6247      0.00000
    128       1.6453      0.00000
    129       1.7156      0.00000
    130       1.7197      0.00000
    131       1.7346      0.00000
    132       1.9658      0.00000
    133       2.1724      0.00000
    134       2.1767      0.00000
    135       2.1772      0.00000
    136       2.1805      0.00000
    137       2.1987      0.00000
    138       2.6570      0.00000
    139       2.6610      0.00000
    140       3.1393      0.00000


--------------------------------------------------------------------------------------------------------


 soft charge-density along one line, spin component           1
         0         1         2         3         4         5         6         7         8         9
 total charge-density along one line
 
 pseudopotential strength for first ion, spin component:           1
 12.722  21.410   0.000   0.000   0.000   0.000   0.000   0.000
 21.410  36.029   0.000   0.000   0.000   0.000   0.000   0.000
  0.000   0.000  -3.100  -0.000   0.000  -5.556  -0.000   0.000
  0.000   0.000  -0.000  -3.101  -0.000  -0.000  -5.558  -0.000
  0.000   0.000   0.000  -0.000  -3.100   0.000  -0.000  -5.556
  0.000   0.000  -5.556  -0.000   0.000  -9.936  -0.000   0.000
  0.000   0.000  -0.000  -5.558  -0.000  -0.000  -9.939  -0.000
  0.000   0.000   0.000  -0.000  -5.556   0.000  -0.000  -9.936
 total augmentation occupancy for first ion, spin component:           1
  8.451  -3.031  -0.000  -0.002  -0.000   0.000   0.001   0.000
 -3.031   1.122   0.000   0.001   0.000  -0.000  -0.000  -0.000
 -0.000   0.000   7.733  -0.008   0.000  -2.679   0.003  -0.000
 -0.002   0.001  -0.008   3.531  -0.000   0.003  -0.988   0.000
 -0.000   0.000   0.000  -0.000   7.732  -0.000   0.000  -2.678
  0.000  -0.000  -2.679   0.003  -0.000   0.941  -0.001   0.000
  0.001  -0.000   0.003  -0.988   0.000  -0.001   0.282  -0.000
  0.000  -0.000  -0.000   0.000  -2.678   0.000  -0.000   0.941


------------------------ aborting loop because EDIFF is reached ----------------------------------------


    FORLOC:  cpu time    0.0682: real time    0.0687
    FORNL :  cpu time    1.1152: real time    1.1281
    FORCOR:  cpu time    0.3962: real time    0.3988
    OFIELD:  cpu time    0.0018: real time    0.0018

 ---------------------------------------------------------------------------------------------

         DFTD3 V3.0 Rev 1        
 IVDW         = 11
 DF revpbe    
 parameters
 VDW_S6       =    1.0000
 VDW_S8       =    1.0100
 VDW_SR       =    0.9230
 rs18     =    1.0000
 alpha6   =   14.0000
 alpha8   =   16.0000
 k1-k3    =   16.0000    1.3333   -4.0000
 VDW_RADIUS   =   50.2022 A
 VDW_CNRADIUS =   21.1671 A
 Edisp (eV)   -3.66541

 E6    (eV) :    -2.6097
 E8    (eV) :    -1.0557
 % E8        : 28.80
    FORVDW:  cpu time    0.1594: real time    0.1607

 VOLUME and BASIS-vectors are now :
 -----------------------------------------------------------------------------
  energy-cutoff  :     1000.00
  volume of cell :     3288.85
      direct lattice vectors                 reciprocal lattice vectors
    12.325000000  0.000000000  0.000000000     0.081135903  0.046843835  0.000000000
    -6.162500000 10.673763102  0.000000000     0.000000000  0.093687670  0.000000000
     0.000000000  0.000000000 25.000000000     0.000000000  0.000000000  0.040000000

  length of vectors
    12.325000000 12.325000000 25.000000000     0.093687670  0.093687670  0.040000000


 FORCES acting on ions:
    Electron-Ion                     Ewald-Force                    Non-Local-Force
 -----------------------------------------------------------------------------------------------
   0.215E+01 0.187E+01 0.205E+02   -.216E+01 -.187E+01 -.205E+02   0.597E-02 -.800E-03 0.668E-02
   0.304E+01 0.151E+01 0.225E+02   -.305E+01 -.151E+01 -.225E+02   0.534E-02 -.373E-02 -.555E-02
   0.126E+01 0.342E+01 0.235E+02   -.126E+01 -.342E+01 -.235E+02   -.276E-03 0.135E-01 0.136E-02
   0.161E+01 0.234E+01 0.277E+02   -.161E+01 -.234E+01 -.277E+02   0.131E-01 0.144E-02 -.107E-01
   0.230E+01 0.557E+00 0.208E+02   -.230E+01 -.557E+00 -.208E+02   0.681E-03 -.643E-02 0.223E-02
   0.236E+01 -.489E+00 0.210E+02   -.236E+01 0.491E+00 -.210E+02   -.627E-02 0.292E-02 -.457E-02
   0.311E+01 0.115E+01 0.269E+02   -.311E+01 -.115E+01 -.269E+02   0.144E-01 -.203E-01 -.449E-02
   0.304E+01 -.107E+01 0.281E+02   -.305E+01 0.108E+01 -.281E+02   -.438E-02 -.711E-02 -.564E-02
   -.153E+01 0.312E+01 0.238E+02   0.153E+01 -.313E+01 -.238E+02   -.203E-02 -.111E-01 -.520E-02
   -.219E+01 0.185E+01 0.276E+02   0.219E+01 -.185E+01 -.276E+02   -.286E-01 0.168E-01 0.421E-02
   0.607E+00 -.620E+00 0.193E+02   -.603E+00 0.620E+00 -.193E+02   0.314E-02 -.267E-02 -.128E-02
   0.546E+00 -.460E+00 0.188E+02   -.544E+00 0.459E+00 -.188E+02   -.782E-02 0.376E-02 0.499E-02
   0.115E+01 -.252E+01 0.296E+02   -.115E+01 0.252E+01 -.296E+02   0.293E-01 -.966E-02 -.490E-03
   0.682E+00 -.347E+01 0.249E+02   -.688E+00 0.347E+01 -.249E+02   0.571E-02 0.498E-02 -.163E-01
   -.210E+01 0.128E+01 0.203E+02   0.211E+01 -.128E+01 -.203E+02   0.722E-02 -.362E-02 0.560E-02
   -.279E+01 0.828E+00 0.211E+02   0.280E+01 -.829E+00 -.211E+02   -.308E-02 0.630E-02 -.649E-02
   -.386E+00 -.152E+00 0.183E+02   0.391E+00 0.150E+00 -.183E+02   -.145E-02 0.728E-03 0.167E-02
   0.171E+00 0.132E+01 0.187E+02   -.170E+00 -.133E+01 -.187E+02   -.376E-02 0.216E-02 0.926E-02
   -.543E+00 -.332E+01 0.225E+02   0.541E+00 0.333E+01 -.225E+02   0.733E-02 -.288E-02 0.844E-03
   -.304E+00 -.196E+01 0.197E+02   0.300E+00 0.197E+01 -.197E+02   0.103E-02 -.195E-02 -.103E-02
   0.305E+01 -.134E+01 0.235E+02   -.306E+01 0.135E+01 -.235E+02   -.216E-03 -.341E-02 -.186E-01
   0.210E+01 -.172E+01 0.217E+02   -.211E+01 0.172E+01 -.217E+02   -.656E-02 0.516E-02 -.426E-02
   -.567E+00 0.105E+01 0.305E+02   0.565E+00 -.104E+01 -.305E+02   -.112E-01 0.114E-01 0.607E-02
   -.761E+00 -.164E+01 0.303E+02   0.762E+00 0.164E+01 -.303E+02   0.128E-01 -.162E-01 -.582E-02
   0.114E+01 -.435E+00 0.194E+02   -.114E+01 0.433E+00 -.194E+02   0.308E-02 -.238E-02 -.471E-02
   0.282E+00 0.990E+00 0.193E+02   -.281E+00 -.990E+00 -.193E+02   -.621E-02 0.403E-02 0.433E-02
   -.345E+01 0.461E+00 0.246E+02   0.346E+01 -.464E+00 -.246E+02   0.946E-02 0.909E-02 -.218E-02
   -.330E+01 -.131E+01 0.238E+02   0.331E+01 0.131E+01 -.238E+02   -.108E-01 0.971E-02 0.200E-02
   0.122E+01 -.245E+01 0.221E+02   -.122E+01 0.245E+01 -.221E+02   0.581E-02 0.167E-02 -.850E-02
   0.105E+00 -.107E+01 0.200E+02   -.108E+00 0.107E+01 -.200E+02   -.433E-02 0.236E-02 -.379E-02
   -.239E+01 -.246E+01 0.258E+02   0.239E+01 0.246E+01 -.258E+02   -.132E-01 -.901E-02 -.963E-02
   -.169E+01 -.315E+01 0.226E+02   0.169E+01 0.315E+01 -.226E+02   0.668E-03 -.265E-02 0.364E-02
   0.148E+00 0.614E+00 0.187E+02   -.149E+00 -.614E+00 -.187E+02   0.601E-02 -.505E-02 0.639E-02
   0.385E+00 0.587E+00 0.192E+02   -.389E+00 -.586E+00 -.192E+02   -.192E-02 0.440E-02 -.217E-02
   -.146E+01 0.250E+00 0.197E+02   0.146E+01 -.251E+00 -.197E+02   0.382E-02 -.219E-02 0.466E-02
   -.129E+01 -.566E+00 0.196E+02   0.130E+01 0.565E+00 -.196E+02   -.514E-02 0.290E-02 0.283E-02
   -.248E+01 -.131E+01 0.205E+02   0.249E+01 0.130E+01 -.205E+02   -.280E-02 0.124E-02 0.335E-02
   -.162E+01 -.129E+01 0.193E+02   0.162E+01 0.129E+01 -.193E+02   -.501E-02 0.133E-02 0.927E-02
   -.147E+01 -.188E+01 0.198E+02   0.147E+01 0.188E+01 -.198E+02   -.369E-02 -.241E-03 0.546E-02
   -.223E+00 -.499E+00 0.188E+02   0.224E+00 0.499E+00 -.188E+02   0.211E-02 0.296E-03 0.775E-02
   0.552E+00 0.139E+01 0.190E+02   -.552E+00 -.139E+01 -.190E+02   -.421E-02 0.245E-02 0.733E-02
   0.168E+01 0.261E+01 0.207E+02   -.168E+01 -.261E+01 -.207E+02   0.179E-03 -.965E-04 0.871E-02
   0.164E+00 0.231E+01 0.196E+02   -.159E+00 -.231E+01 -.196E+02   -.137E-02 0.194E-02 0.176E-02
   -.407E-01 0.347E+01 0.223E+02   0.435E-01 -.348E+01 -.223E+02   -.944E-02 0.329E-02 0.568E-02
   -.437E+00 0.828E+00 0.197E+02   0.439E+00 -.830E+00 -.197E+02   0.374E-02 -.276E-02 -.112E-03
   -.165E+01 0.204E+01 0.210E+02   0.166E+01 -.204E+01 -.210E+02   -.741E-02 0.111E-02 -.304E-02
   -.405E+00 -.996E+00 0.193E+02   0.404E+00 0.996E+00 -.193E+02   0.720E-02 -.172E-02 0.491E-02
   -.897E+00 0.328E+00 0.188E+02   0.895E+00 -.327E+00 -.188E+02   -.309E-02 0.315E-02 -.419E-02
   0.961E-01 -.620E+00 0.188E+02   -.972E-01 0.620E+00 -.188E+02   0.492E-02 -.345E-02 0.577E-02
   0.982E+00 0.700E+00 0.188E+02   -.986E+00 -.698E+00 -.188E+02   0.969E-03 0.144E-02 0.312E-02
   0.757E-02 0.158E-01 -.272E+03   -.120E-01 -.118E-01 0.272E+03   -.311E-02 0.187E-02 -.334E-02
   -.229E+03 0.156E+03 -.421E+03   0.279E+03 -.190E+03 0.425E+03   -.510E+02 0.347E+02 -.342E+01
   0.229E+03 -.156E+03 -.399E+03   -.279E+03 0.190E+03 0.396E+03   0.510E+02 -.347E+02 0.308E+01
 -----------------------------------------------------------------------------------------------
   -.731E-02 0.137E-01 0.343E+00   0.114E-12 -.568E-13 -.227E-12   0.675E-02 -.137E-01 -.342E+00
 
 
 POSITION                                       TOTAL-FORCE (eV/Angst)
 -----------------------------------------------------------------------------------
     11.98348      0.00342      0.01417         0.003163     -0.001519     -0.000648
     -0.34154      1.42665      0.01100        -0.000961     -0.000091     -0.003031
      2.12355      0.00315      0.01249        -0.001554      0.010453     -0.005670
      2.12326      1.42653      0.00641         0.013036      0.001221     -0.007980
     10.75099      2.13819      0.01213         0.000236     -0.005546      0.000093
     -1.57382      3.56123      0.01110        -0.008783      0.004883     -0.001268
      0.89078      2.13854      0.00548         0.009316     -0.018890      0.002242
      0.89099      3.56147      0.00181        -0.012330     -0.002271      0.010851
      4.58864      0.00346      0.01135         0.003869     -0.016323     -0.003224
      4.58894      1.42623      0.00646        -0.023311      0.013116      0.013411
      9.51854      4.27281      0.01369         0.006722     -0.003185      0.000391
     -2.80632      5.69591      0.01434        -0.006417      0.003350      0.000925
      2.12300      4.27302      0.00000         0.024798     -0.004819      0.019186
      2.12335      5.69594      0.00581        -0.000703      0.009571     -0.002782
      7.05344      0.00333      0.01399         0.009327     -0.005265     -0.000132
      7.05353      1.42635      0.01368        -0.001498      0.004852     -0.003407
      8.28610      6.40752      0.01601         0.003135     -0.001574     -0.000503
     -4.03885      7.83070      0.01636        -0.002135      0.000860      0.000214
      3.35586      6.40753      0.01007         0.005247      0.000535     -0.001105
      3.35599      7.83072      0.01320        -0.003343      0.000157     -0.000440
     -0.34146      4.27290      0.00723        -0.002081     -0.001305     -0.004538
     -0.34138      5.69591      0.00946        -0.009136      0.006423     -0.001048
      3.35624      2.13791      0.00222        -0.013360      0.011869      0.015323
      3.35573      3.56155      0.00139         0.013460     -0.015760      0.007867
     -1.57395      6.40758      0.01311         0.005645     -0.004030     -0.000409
     -1.57385      7.83068      0.01438        -0.004733      0.003719      0.000275
      5.82093      2.13784      0.01033         0.016544      0.005164     -0.002718
      5.82114      3.56097      0.01156        -0.006114      0.008310     -0.003177
      0.89092      6.40755      0.00907         0.004385      0.002346     -0.002157
      0.89106      7.83068      0.01235        -0.006933      0.003773      0.000546
      4.58871      4.27293      0.00850        -0.012640     -0.006515     -0.010234
      4.58852      5.69606      0.01149         0.001852     -0.000789     -0.003511
      9.51845      0.00337      0.01490         0.004687     -0.004622      0.000381
      9.51855      1.42644      0.01438        -0.005115      0.005572     -0.000057
      8.28593      2.13803      0.01453         0.006642     -0.003464      0.000899
      8.28613      3.56115      0.01464        -0.004204      0.002126      0.000244
      7.05356      4.27269      0.01457         0.002923     -0.001087     -0.000187
      7.05362      5.69588      0.01553        -0.002407      0.001472      0.000236
      5.82112      6.40755      0.01489        -0.002755      0.001654      0.000330
      5.82102      7.83073      0.01579         0.002649      0.000378      0.000001
      7.05363      8.54227      0.01631        -0.004605      0.001131      0.001402
     -5.27149      9.96549      0.01495        -0.000117     -0.002115     -0.001629
     -2.80638      8.54234      0.01558         0.003326     -0.001573     -0.000774
     -2.80627      9.96553      0.01362        -0.006467     -0.000179     -0.003310
     -0.34149      8.54239      0.01378         0.005855     -0.004836      0.000518
     -0.34138      9.96550      0.01354        -0.005750     -0.000149     -0.000932
      2.12343      8.54232      0.01336         0.005751     -0.001546      0.000899
      2.12354      9.96544      0.01469        -0.005333      0.003904     -0.001600
      4.58846      8.54235      0.01505         0.003649     -0.002813      0.001204
      4.58853      9.96550      0.01517        -0.002960      0.003401      0.000418
      3.04930      2.68154      6.29961        -0.007366      0.005768      0.027891
      4.02070      2.02068      6.36403        -0.250100      0.169696     -0.035507
      2.07767      3.34267      6.24015         0.256991     -0.175437     -0.003766
 -----------------------------------------------------------------------------------
    total drift:                               -0.000561     -0.000067      0.000512


--------------------------------------------------------------------------------------------------------



  FREE ENERGIE OF THE ION-ELECTRON SYSTEM (eV)
  ---------------------------------------------------
  free  energy   TOTEN  =      -470.55063204 eV

  energy  without entropy=     -470.55063204  energy(sigma->0) =     -470.55063204
 


--------------------------------------------------------------------------------------------------------


    POTLOK:  cpu time    0.3862: real time    0.3888


--------------------------------------------------------------------------------------------------------


     LOOP+:  cpu time  142.1221: real time  143.6436
    4ORBIT:  cpu time    0.0000: real time    0.0000

 total amount of memory used by VASP MPI-rank0   215378. kBytes
=======================================================================

   base      :      30000. kBytes
   nonl-proj :      57634. kBytes
   fftplans  :      45914. kBytes
   grid      :      67588. kBytes
   one-center:         43. kBytes
   wavefun   :      14199. kBytes
 
  
  
 General timing and accounting informations for this job:
 ========================================================
  
                  Total CPU time used (sec):      185.903
                            User time (sec):      169.262
                          System time (sec):       16.641
                         Elapsed time (sec):      188.654
  
                   Maximum memory used (kb):      585056.
                   Average memory used (kb):          N/A
  
                          Minor page faults:       221144
                          Major page faults:          105
                 Voluntary context switches:         3600
