 vasp.6.2.1 16May21 (build Nov 06 2021 14:46:37) complex                        
  
 executed on             LinuxIFC date 2025.04.16  17:19:12
 running on  112 total cores
 distrk:  each k-point on  112 cores,    1 groups
 distr:  one band on NCORE=   4 cores,   28 groups


--------------------------------------------------------------------------------------------------------


 INCAR:
   ALGO = Conjugate
   NCORE = 4
   ISMEAR = 0
   SIGMA = 0.01
   PREC = Accurate
   EDIFF = 1E-6
   ENCUT = 1000
   ISIF = 0
   GGA = RE
   IVDW = 11
   LWAVE = .FALSE.
   LCHARGE = .FALSE.
   SYMPREC = 1E-6

 POTCAR:    PAW_PBE C_h 06Feb2004                 
 POTCAR:    PAW_PBE O_h 06Feb2004                 
 -----------------------------------------------------------------------------
|                                                                             |
|           W    W    AA    RRRRR   N    N  II  N    N   GGGG   !!!           |
|           W    W   A  A   R    R  NN   N  II  NN   N  G    G  !!!           |
|           W    W  A    A  R    R  N N  N  II  N N  N  G       !!!           |
|           W WW W  AAAAAA  RRRRR   N  N N  II  N  N N  G  GGG   !            |
|           WW  WW  A    A  R   R   N   NN  II  N   NN  G    G                |
|           W    W  A    A  R    R  N    N  II  N    N   GGGG   !!!           |
|                                                                             |
|     For optimal performance we recommend to set                             |
|       NCORE = 2 up to number-of-cores-per-socket                            |
|     NCORE specifies how many cores store one orbital (NPAR=cpu/NCORE).      |
|     This setting can greatly improve the performance of VASP for DFT.       |
|     The default, NCORE=1 might be grossly inefficient on modern             |
|     multi-core architectures or massively parallel machines. Do your        |
|     own testing! More info at https://www.vasp.at/wiki/index.php/NCORE      |
|     Unfortunately you need to use the default for GW and RPA                |
|     calculations (for HF NCORE is supported but not extensively tested      |
|     yet).                                                                   |
|                                                                             |
 -----------------------------------------------------------------------------

 POTCAR:    PAW_PBE C_h 06Feb2004                 
   VRHFIN =C: s2p2                                                                                  
   LEXCH  = PE                                                                                      
   EATOM  =   147.1560 eV,   10.8157 Ry                                                             
                                                                                                    
   TITEL  = PAW_PBE C_h 06Feb2004                                                                   
   LULTRA =        F    use ultrasoft PP ?                                                          
   IUNSCR =        1    unscreen: 0-lin 1-nonlin 2-no                                               
   RPACOR =    0.800    partial core radius                                                         
   POMASS =   12.011; ZVAL   =    4.000    mass and valenz                                          
   RCORE  =    1.100    outmost cutoff radius                                                       
   RWIGS  =    1.630; RWIGS  =    0.863    wigner-seitz radius (au A)                               
   ENMAX  =  700.000; ENMIN  =  500.000 eV                                                          
   ICORE  =        2    local potential                                                             
   LCOR   =        T    correct aug charges                                                         
   LPAW   =        T    paw PP                                                                      
   EAUG   =  946.768                                                                                
   DEXC   =    0.000                                                                                
   RMAX   =    1.128    core radius for proj-oper                                                   
   RAUG   =    1.300    factor for augmentation sphere                                              
   RDEP   =    1.162    radius for radial grids                                                     
   RDEPT  =    1.088    core radius for aug-charge                                                  
                                                                                                    
   Atomic configuration                                                                             
    4 entries                                                                                       
     n  l   j            E        occ.                                                              
     1  0  0.50      -273.3789   2.0000                                                             
     2  0  0.50       -13.7508   2.0000                                                             
     2  1  0.50        -5.2854   2.0000                                                             
     3  2  1.50        -5.4423   0.0000                                                             
   Description                                                                                      
     l       E           TYP  RCUT    TYP  RCUT                                                     
     0    -13.7508458     23  1.100                                                                 
     0     -8.2022199     23  1.100                                                                 
     1     -5.2854383     23  1.100                                                                 
     1      1.1560700     23  1.100                                                                 
     2     -5.4423304      7  1.100                                                                 
  local pseudopotential read in
  partial core-charges read in
  partial kinetic energy density read in
  atomic valenz-charges read in
  non local Contribution for L=           0  read in
    real space projection operators read in
  non local Contribution for L=           0  read in
    real space projection operators read in
  non local Contribution for L=           1  read in
    real space projection operators read in
  non local Contribution for L=           1  read in
    real space projection operators read in
    PAW grid and wavefunctions read in
 
   number of l-projection  operators is LMAX  =           4
   number of lm-projection operators is LMMAX =           8
 
 POTCAR:    PAW_PBE O_h 06Feb2004                 
   VRHFIN =O: s2p4                                                                                  
   LEXCH  = PE                                                                                      
   EATOM  =   432.3788 eV,   31.7789 Ry                                                             
                                                                                                    
   TITEL  = PAW_PBE O_h 06Feb2004                                                                   
   LULTRA =        F    use ultrasoft PP ?                                                          
   IUNSCR =        1    unscreen: 0-lin 1-nonlin 2-no                                               
   RPACOR =    0.800    partial core radius                                                         
   POMASS =   16.000; ZVAL   =    6.000    mass and valenz                                          
   RCORE  =    1.100    outmost cutoff radius                                                       
   RWIGS  =    1.400; RWIGS  =    0.741    wigner-seitz radius (au A)                               
   ENMAX  =  700.000; ENMIN  =  500.000 eV                                                          
   ICORE  =        2    local potential                                                             
   LCOR   =        T    correct aug charges                                                         
   LPAW   =        T    paw PP                                                                      
   EAUG   =  888.804                                                                                
   DEXC   =    0.000                                                                                
   RMAX   =    1.128    core radius for proj-oper                                                   
   RAUG   =    1.300    factor for augmentation sphere                                              
   RDEP   =    1.125    radius for radial grids                                                     
   RDEPT  =    1.088    core radius for aug-charge                                                  
                                                                                                    
   Atomic configuration                                                                             
    4 entries                                                                                       
     n  l   j            E        occ.                                                              
     1  0  0.50      -514.6923   2.0000                                                             
     2  0  0.50       -23.9615   2.0000                                                             
     2  1  0.50        -9.0305   4.0000                                                             
     3  2  1.50        -9.5241   0.0000                                                             
   Description                                                                                      
     l       E           TYP  RCUT    TYP  RCUT                                                     
     0    -23.9615319     23  1.100                                                                 
     0    -25.3221145     23  1.100                                                                 
     1     -9.0304911     23  1.100                                                                 
     1     -5.4802209     23  1.100                                                                 
     2     -9.5240782      7  1.100                                                                 
  local pseudopotential read in
  partial core-charges read in
  partial kinetic energy density read in
  atomic valenz-charges read in
  non local Contribution for L=           0  read in
    real space projection operators read in
  non local Contribution for L=           0  read in
    real space projection operators read in
  non local Contribution for L=           1  read in
    real space projection operators read in
  non local Contribution for L=           1  read in
    real space projection operators read in
    PAW grid and wavefunctions read in
 
   number of l-projection  operators is LMAX  =           4
   number of lm-projection operators is LMMAX =           8
 
 -----------------------------------------------------------------------------
|                                                                             |
|               ----> ADVICE to this user running VASP <----                  |
|                                                                             |
|     You have a (more or less) 'large supercell' and for larger cells it     |
|     might be more efficient to use real-space projection operators.         |
|     Therefore, try LREAL= Auto in the INCAR file.                           |
|     Mind: For very accurate calculation, you might also keep the            |
|     reciprocal projection scheme (i.e. LREAL=.FALSE.).                      |
|                                                                             |
 -----------------------------------------------------------------------------

 -----------------------------------------------------------------------------
|                                                                             |
|               ----> ADVICE to this user running VASP <----                  |
|                                                                             |
|     You enforced a specific xc type in the INCAR file but a different       |
|     type was found in the POTCAR file.                                      |
|     I HOPE YOU KNOW WHAT YOU ARE DOING!                                     |
|                                                                             |
 -----------------------------------------------------------------------------

  PAW_PBE C_h 06Feb2004                 :
 energy of atom  1       EATOM= -147.1560
 kinetic energy error for atom=    0.0031 (will be added to EATOM!!)
  PAW_PBE O_h 06Feb2004                 :
 energy of atom  2       EATOM= -432.3788
 kinetic energy error for atom=    0.0171 (will be added to EATOM!!)
 
 
 POSCAR:  C  O
  positions in cartesian coordinates
  No initial velocities read in
 exchange correlation table for  LEXCH =       40
   RHO(1)=    0.500       N(1)  =     2000
   RHO(2)=  100.500       N(2)  =     4000
 


--------------------------------------------------------------------------------------------------------


 ion  position               nearest neighbor table
   1  0.972  0.000  0.001-  50 1.42   2 1.42  42 1.42
   2  0.039  0.134  0.000-   5 1.42   7 1.42   1 1.42
   3  0.172  0.000  0.000-  42 1.42  44 1.42   4 1.42
   4  0.239  0.134  0.000-   7 1.42   3 1.42  23 1.42
   5  0.972  0.200  0.000-   6 1.42   2 1.42  34 1.42
   6  0.039  0.334  0.000-   5 1.42  21 1.42  11 1.42
   7  0.172  0.200  0.000-   8 1.42   2 1.42   4 1.42
   8  0.239  0.334  0.000-  13 1.42   7 1.42  21 1.42
   9  0.372  0.000  0.000-  10 1.42  44 1.42  46 1.42
  10  0.439  0.134  0.000-  27 1.42   9 1.42  23 1.42
  11  0.972  0.400  0.001-  12 1.42  36 1.42   6 1.42
  12  0.039  0.534  0.001-  25 1.42  11 1.42  17 1.42
  13  0.372  0.400  0.000-   8 1.42  14 1.42  24 1.42
  14  0.439  0.534  0.000-  13 1.42  29 1.42  19 1.42
  15  0.572  0.000  0.001-  46 1.42  16 1.42  48 1.42
  16  0.639  0.134  0.001-  15 1.42  35 1.42  27 1.42
  17  0.972  0.600  0.001-  38 1.42  18 1.42  12 1.42
  18  0.039  0.734  0.001-  43 1.42  41 1.42  17 1.42
  19  0.572  0.600  0.000-  14 1.42  20 1.42  32 1.42
  20  0.639  0.734  0.001-  49 1.42  19 1.42  47 1.42
  21  0.172  0.400  0.000-  22 1.42   8 1.42   6 1.42
  22  0.239  0.534  0.000-  21 1.42  29 1.42  25 1.42
  23  0.372  0.200  0.000-  10 1.42   4 1.42  24 1.42
  24  0.439  0.334  0.000-  13 1.42  31 1.42  23 1.42
  25  0.172  0.600  0.001-  26 1.42  12 1.42  22 1.42
  26  0.239  0.734  0.001-  25 1.42  45 1.42  43 1.42
  27  0.572  0.200  0.000-  10 1.42  28 1.42  16 1.42
  28  0.639  0.334  0.000-  27 1.42  37 1.42  31 1.42
  29  0.372  0.600  0.000-  22 1.42  14 1.42  30 1.42
  30  0.439  0.734  0.000-  47 1.42  29 1.42  45 1.42
  31  0.572  0.400  0.000-  32 1.42  28 1.42  24 1.42
  32  0.639  0.534  0.000-  31 1.42  39 1.42  19 1.42
  33  0.772  0.000  0.001-  34 1.42  48 1.42  50 1.42
  34  0.839  0.134  0.001-  33 1.42   5 1.42  35 1.42
  35  0.772  0.200  0.001-  36 1.42  16 1.42  34 1.42
  36  0.839  0.334  0.001-  35 1.42  11 1.42  37 1.42
  37  0.772  0.400  0.001-  28 1.42  38 1.42  36 1.42
  38  0.839  0.534  0.001-  17 1.42  37 1.42  39 1.42
  39  0.772  0.600  0.001-  40 1.42  38 1.42  32 1.42
  40  0.839  0.734  0.001-  39 1.42  49 1.42  41 1.42
  41  0.972  0.800  0.001-  18 1.42  42 1.42  40 1.42
  42  0.039  0.934  0.001-   3 1.42  41 1.42   1 1.42
  43  0.172  0.800  0.001-  18 1.42  44 1.42  26 1.42
  44  0.239  0.934  0.001-   9 1.42  43 1.42   3 1.42
  45  0.372  0.800  0.001-  26 1.42  46 1.42  30 1.42
  46  0.439  0.934  0.001-  15 1.42  45 1.42   9 1.42
  47  0.572  0.800  0.001-  30 1.42  48 1.42  20 1.42
  48  0.639  0.934  0.001-  47 1.42  33 1.42  15 1.42
  49  0.772  0.800  0.001-  50 1.42  20 1.42  40 1.42
  50  0.839  0.934  0.001-  49 1.42   1 1.42  33 1.42
  51  0.373  0.251  0.178-  52 1.18  53 1.18
  52  0.421  0.189  0.181-  51 1.18
  53  0.325  0.313  0.176-  51 1.18
 
  LATTYP: Found a hexagonal cell.
 ALAT       =    12.3250000000
 C/A-ratio  =     2.0283975659
  
  Lattice vectors:
  
 A1 = (  12.3250000000,   0.0000000000,   0.0000000000)
 A2 = (  -6.1625000000,  10.6737631016,   0.0000000000)
 A3 = (   0.0000000000,   0.0000000000,  25.0000000000)


Analysis of symmetry for initial positions (statically):
=====================================================================
 Subroutine PRICEL returns:
 Original cell was already a primitive cell.
 

 Routine SETGRP: Setting up the symmetry group for a 
 hexagonal supercell.


 Subroutine GETGRP returns: Found  1 space group operations
 (whereof  1 operations were pure point group operations)
 out of a pool of 24 trial point group operations.


The static configuration has the point symmetry C_1 .


Analysis of symmetry for dynamics (positions and initial velocities):
=====================================================================
 Subroutine PRICEL returns:
 Original cell was already a primitive cell.
 

 Routine SETGRP: Setting up the symmetry group for a 
 hexagonal supercell.


 Subroutine GETGRP returns: Found  1 space group operations
 (whereof  1 operations were pure point group operations)
 out of a pool of 24 trial point group operations.


The dynamic configuration has the point symmetry C_1 .


 Subroutine INISYM returns: Found  1 space group operations
 (whereof  1 operations are pure point group operations),
 and found     1 'primitive' translations


----------------------------------------------------------------------------------------

                                     Primitive cell                                     

  volume of cell :    3288.8533

  direct lattice vectors                    reciprocal lattice vectors
    12.325000000  0.000000000  0.000000000     0.081135903  0.046843835  0.000000000
    -6.162500000 10.673763102  0.000000000     0.000000000  0.093687670  0.000000000
     0.000000000  0.000000000 25.000000000     0.000000000  0.000000000  0.040000000

  length of vectors
    12.325000000 12.325000000 25.000000000     0.093687670  0.093687670  0.040000000

  position of ions in fractional coordinates (direct lattice)
     0.972450841  0.000320818  0.000566711
     0.039118382  0.133659505  0.000440173
     0.172443627  0.000295449  0.000499628
     0.239096278  0.133647917  0.000256468
     0.972452058  0.200322012  0.000485219
     0.039128360  0.333643771  0.000444150
     0.172451764  0.200354552  0.000219167
     0.239124359  0.333665720  0.000072260
     0.372465565  0.000324403  0.000453913
     0.439137473  0.133619939  0.000258338
     0.972449824  0.400309362  0.000547611
     0.039124981  0.533636789  0.000573410
     0.372416176  0.400329481  0.000000000
     0.439099602  0.533638981  0.000232414
     0.572443676  0.000312125  0.000559580
     0.639110207  0.133631751  0.000547275
     0.972452703  0.600305653  0.000640289
     0.039124495  0.733640359  0.000654513
     0.572433471  0.600306242  0.000402895
     0.639111888  0.733641879  0.000527905
     0.172454630  0.400318228  0.000289045
     0.239120185  0.533636548  0.000378509
     0.372459750  0.200295993  0.000088997
     0.439107096  0.333673419  0.000055762
     0.172452155  0.600311506  0.000524340
     0.239123371  0.733638574  0.000575129
     0.572431082  0.200289171  0.000413296
     0.639112773  0.333618630  0.000462376
     0.372439808  0.600308022  0.000362844
     0.439116090  0.733637858  0.000494190
     0.572469358  0.400320504  0.000339918
     0.639119408  0.533650873  0.000459610
     0.772445723  0.000315427  0.000596161
     0.839116277  0.133640203  0.000575306
     0.772440513  0.200307432  0.000581033
     0.839120241  0.333635728  0.000585467
     0.772446320  0.400298367  0.000582978
     0.839118980  0.533633964  0.000621100
     0.772456143  0.600308173  0.000595712
     0.839115033  0.733643180  0.000631512
     0.972455313  0.800305582  0.000652233
     0.039114714  0.933643289  0.000598051
     0.172457971  0.800312211  0.000623372
     0.239134551  0.933647193  0.000544850
     0.372451396  0.800316674  0.000551399
     0.439124489  0.933644769  0.000541430
     0.572441101  0.800310054  0.000534535
     0.639115067  0.933638985  0.000587644
     0.772445098  0.800313187  0.000602062
     0.839116614  0.933644338  0.000606830
     0.373021009  0.251226878  0.178179744
     0.420879805  0.189313152  0.180756618
     0.325156981  0.313167186  0.175801549

  ion indices of the primitive-cell ions
   primitive index   ion index
                 1           1
                 2           2
                 3           3
                 4           4
                 5           5
                 6           6
                 7           7
                 8           8
                 9           9
                10          10
                11          11
                12          12
                13          13
                14          14
                15          15
                16          16
                17          17
                18          18
                19          19
                20          20
                21          21
                22          22
                23          23
                24          24
                25          25
                26          26
                27          27
                28          28
                29          29
                30          30
                31          31
                32          32
                33          33
                34          34
                35          35
                36          36
                37          37
                38          38
                39          39
                40          40
                41          41
                42          42
                43          43
                44          44
                45          45
                46          46
                47          47
                48          48
                49          49
                50          50
                51          51
                52          52
                53          53

----------------------------------------------------------------------------------------

 
 
 KPOINTS: auto                                    

Automatic generation of k-mesh.
 Grid dimensions read from file:
 generate k-points for:    1    1    1

 Generating k-lattice:

  Cartesian coordinates                     Fractional coordinates (reciprocal lattice)
     0.081135903  0.046843835  0.000000000     1.000000000 -0.000000000  0.000000000
     0.000000000  0.093687670  0.000000000     0.000000000  1.000000000  0.000000000
     0.000000000  0.000000000  0.040000000     0.000000000  0.000000000  1.000000000

  Length of vectors
     0.093687670  0.093687670  0.040000000

  Shift w.r.t. Gamma in fractional coordinates (k-lattice)
     0.000000000  0.000000000  0.000000000

 
 Subroutine IBZKPT returns following result:
 ===========================================
 
 Found      1 irreducible k-points:
 
 Following reciprocal coordinates:
            Coordinates               Weight
  0.000000  0.000000  0.000000      1.000000
 
 Following cartesian coordinates:
            Coordinates               Weight
  0.000000  0.000000  0.000000      1.000000
 


--------------------------------------------------------------------------------------------------------




 Dimension of arrays:
   k-points           NKPTS =      1   k-points in BZ     NKDIM =      1   number of bands    NBANDS=    140
   number of dos      NEDOS =    301   number of ions     NIONS =     53
   non local maximal  LDIM  =      4   non local SUM 2l+1 LMDIM =      8
   total plane-waves  NPLWV = ******
   max r-space proj   IRMAX =      1   max aug-charges    IRDMAX=  10008
   dimension x,y,z NGX =   128 NGY =  128 NGZ =  270
   dimension x,y,z NGXF=   256 NGYF=  256 NGZF=  540
   support grid    NGXF=   256 NGYF=  256 NGZF=  540
   ions per type =              51   2
   NGX,Y,Z   is equivalent  to a cutoff of  17.27, 17.27, 17.95 a.u.
   NGXF,Y,Z  is equivalent  to a cutoff of  34.53, 34.53, 35.91 a.u.

 SYSTEM =  unknown system                          
 POSCAR =   C  O                                   

 Startparameter for this run:
   NWRITE =      2    write-flag & timer
   PREC   = accura    normal or accurate (medium, high low for compatibility)
   ISTART =      0    job   : 0-new  1-cont  2-samecut
   ICHARG =      2    charge: 1-file 2-atom 10-const
   ISPIN  =      1    spin polarized calculation?
   LNONCOLLINEAR =      F non collinear calculations
   LSORBIT =      F    spin-orbit coupling
   INIWAV =      1    electr: 0-lowe 1-rand  2-diag
   LASPH  =      F    aspherical Exc in radial PAW
 Electronic Relaxation 1
   ENCUT  = 1000.0 eV  73.50 Ry    8.57 a.u.  31.78 31.78 64.46*2*pi/ulx,y,z
   ENINI  = 1000.0     initial cutoff
   ENAUG  =  946.8 eV  augmentation charge cutoff
   NELM   =     60;   NELMIN=  2; NELMDL= -5     # of ELM steps 
   EDIFF  = 0.1E-05   stopping-criterion for ELM
   LREAL  =      F    real-space projection
   NLSPLINE    = F    spline interpolate recip. space projectors
   LCOMPAT=      F    compatible to vasp.4.4
   GGA_COMPAT  = T    GGA compatible to vasp.4.4-vasp.4.6
   LMAXPAW     = -100 max onsite density
   LMAXMIX     =    2 max onsite mixed and CHGCAR
   VOSKOWN=      0    Vosko Wilk Nusair interpolation
   ROPT   =    0.00000   0.00000
 Ionic relaxation
   EDIFFG = 0.1E-04   stopping-criterion for IOM
   NSW    =      0    number of steps for IOM
   NBLOCK =      1;   KBLOCK =      1    inner block; outer block 
   IBRION =     -1    ionic relax: 0-MD 1-quasi-New 2-CG
   NFREE  =      0    steps in history (QN), initial steepest desc. (CG)
   ISIF   =      0    stress and relaxation
   IWAVPR =     10    prediction:  0-non 1-charg 2-wave 3-comb
   ISYM   =      2    0-nonsym 1-usesym 2-fastsym
   LCORR  =      T    Harris-Foulkes like correction to forces

   POTIM  = 0.5000    time-step for ionic-motion
   TEIN   =    0.0    initial temperature
   TEBEG  =    0.0;   TEEND  =   0.0 temperature during run
   SMASS  =  -3.00    Nose mass-parameter (am)
   estimated Nose-frequenzy (Omega)   =  0.10E-29 period in steps = 0.13E+47 mass=  -0.347E-26a.u.
   SCALEE = 1.0000    scale energy and forces
   NPACO  =    256;   APACO  = 16.0  distance and # of slots for P.C.
   PSTRESS=    0.0 pullay stress

  Mass of Ions in am
   POMASS =  12.01 16.00
  Ionic Valenz
   ZVAL   =   4.00  6.00
  Atomic Wigner-Seitz radii
   RWIGS  =  -1.00 -1.00
  virtual crystal weights 
   VCA    =   1.00  1.00
   NELECT =     216.0000    total number of electrons
   NUPDOWN=      -1.0000    fix difference up-down

 DOS related values:
   EMIN   =  10.00;   EMAX   =-10.00  energy-range for DOS
   EFERMI =   0.00
   ISMEAR =     0;   SIGMA  =   0.01  broadening in eV -4-tet -1-fermi 0-gaus

 Electronic relaxation 2 (details)
   IALGO  =     58    algorithm
   LDIAG  =      T    sub-space diagonalisation (order eigenvalues)
   LSUBROT=      F    optimize rotation matrix (better conditioning)
   TURBO    =      0    0=normal 1=particle mesh
   IRESTART =      0    0=no restart 2=restart with 2 vectors
   NREBOOT  =      0    no. of reboots
   NMIN     =      0    reboot dimension
   EREF     =   0.00    reference energy to select bands
   IMIX   =      4    mixing-type and parameters
     AMIX     =   0.40;   BMIX     =  1.00
     AMIX_MAG =   1.60;   BMIX_MAG =  1.00
     AMIN     =   0.10
     WC   =   100.;   INIMIX=   1;  MIXPRE=   1;  MAXMIX= -45

 Intra band minimization:
   WEIMIN = 0.0000     energy-eigenvalue tresh-hold
   EBREAK =  0.18E-08  absolut break condition
   DEPER  =   0.30     relativ break condition  

   TIME   =   0.40     timestep for ELM

  volume/ion in A,a.u.               =      62.05       418.76
  Fermi-wavevector in a.u.,A,eV,Ry     =   0.660508  1.248179  5.935820  0.436270
  Thomas-Fermi vector in A             =   1.732977
 
 Write flags
   LWAVE        =      F    write WAVECAR
   LDOWNSAMPLE  =      F    k-point downsampling of WAVECAR
   LCHARG       =      T    write CHGCAR
   LVTOT        =      F    write LOCPOT, total local potential
   LVHAR        =      F    write LOCPOT, Hartree potential only
   LELF         =      F    write electronic localiz. function (ELF)
   LORBIT       =      0    0 simple, 1 ext, 2 COOP (PROOUT), +10 PAW based schemes


 Dipole corrections
   LMONO  =      F    monopole corrections only (constant potential shift)
   LDIPOL =      F    correct potential (dipole corrections)
   IDIPOL =      0    1-x, 2-y, 3-z, 4-all directions 
   EPSILON=  1.0000000 bulk dielectric constant

 Exchange correlation treatment:
   GGA     =    RE    GGA type
   LEXCH   =    40    internal setting for exchange type
   VOSKOWN=      0    Vosko Wilk Nusair interpolation
   LHFCALC =     F    Hartree Fock is set to
   LHFONE  =     F    Hartree Fock one center treatment
   AEXX    =    0.0000 exact exchange contribution

 Linear response parameters
   LEPSILON=     F    determine dielectric tensor
   LRPA    =     F    only Hartree local field effects (RPA)
   LNABLA  =     F    use nabla operator in PAW spheres
   LVEL    =     F    velocity operator in full k-point grid
   LINTERFAST=   F  fast interpolation
   KINTER  =     0    interpolate to denser k-point grid
   CSHIFT  =0.1000    complex shift for real part using Kramers Kronig
   OMEGAMAX=  -1.0    maximum frequency
   DEG_THRESHOLD= 0.2000000E-02 threshold for treating states as degnerate
   RTIME   =   -0.100 relaxation time in fs
  (WPLASMAI=    0.000 imaginary part of plasma frequency in eV, 0.658/RTIME)
   DFIELD  = 0.0000000 0.0000000 0.0000000 field for delta impulse in time
 
 Orbital magnetization related:
   ORBITALMAG=     F  switch on orbital magnetization
   LCHIMAG   =     F  perturbation theory with respect to B field
   DQ        =  0.001000  dq finite difference perturbation B field
   LLRAUG    =     F  two centre corrections for induced B field



--------------------------------------------------------------------------------------------------------


 Static calculation
 charge density and potential will be updated during run
 non-spin polarized calculation
 Conjugate gradient for all bands (Freysoldt, et al. PRB 79, 241103 (2009))
 preconditioned conjugated gradient                                        
 perform sub-space diagonalisation
    before iterative eigenvector-optimisation
 modified Broyden-mixing scheme, WC =      100.0
 initial mixing is a Kerker type mixing with AMIX =  0.4000 and BMIX =      1.0000
 Hartree-type preconditioning will be used
 using additional bands           32
 reciprocal scheme for non local part
 use partial core corrections
 no Harris-corrections to forces 
 use gradient corrections 
 use of overlap-Matrix (Vanderbilt PP)
 Gauss-broadening in eV      SIGMA  =   0.01


--------------------------------------------------------------------------------------------------------


  energy-cutoff  :     1000.00
  volume of cell :     3288.85
      direct lattice vectors                 reciprocal lattice vectors
    12.325000000  0.000000000  0.000000000     0.081135903  0.046843835  0.000000000
    -6.162500000 10.673763102  0.000000000     0.000000000  0.093687670  0.000000000
     0.000000000  0.000000000 25.000000000     0.000000000  0.000000000  0.040000000

  length of vectors
    12.325000000 12.325000000 25.000000000     0.093687670  0.093687670  0.040000000


 
 k-points in units of 2pi/SCALE and weight: auto                                    
   0.00000000  0.00000000  0.00000000       1.000
 
 k-points in reciprocal lattice and weights: auto                                    
   0.00000000  0.00000000  0.00000000       1.000
 
 position of ions in fractional coordinates (direct lattice) 
   0.97245084  0.00032082  0.00056671
   0.03911838  0.13365950  0.00044017
   0.17244363  0.00029545  0.00049963
   0.23909628  0.13364792  0.00025647
   0.97245206  0.20032201  0.00048522
   0.03912836  0.33364377  0.00044415
   0.17245176  0.20035455  0.00021917
   0.23912436  0.33366572  0.00007226
   0.37246557  0.00032440  0.00045391
   0.43913747  0.13361994  0.00025834
   0.97244982  0.40030936  0.00054761
   0.03912498  0.53363679  0.00057341
   0.37241618  0.40032948  0.00000000
   0.43909960  0.53363898  0.00023241
   0.57244368  0.00031213  0.00055958
   0.63911021  0.13363175  0.00054727
   0.97245270  0.60030565  0.00064029
   0.03912449  0.73364036  0.00065451
   0.57243347  0.60030624  0.00040289
   0.63911189  0.73364188  0.00052791
   0.17245463  0.40031823  0.00028904
   0.23912018  0.53363655  0.00037851
   0.37245975  0.20029599  0.00008900
   0.43910710  0.33367342  0.00005576
   0.17245216  0.60031151  0.00052434
   0.23912337  0.73363857  0.00057513
   0.57243108  0.20028917  0.00041330
   0.63911277  0.33361863  0.00046238
   0.37243981  0.60030802  0.00036284
   0.43911609  0.73363786  0.00049419
   0.57246936  0.40032050  0.00033992
   0.63911941  0.53365087  0.00045961
   0.77244572  0.00031543  0.00059616
   0.83911628  0.13364020  0.00057531
   0.77244051  0.20030743  0.00058103
   0.83912024  0.33363573  0.00058547
   0.77244632  0.40029837  0.00058298
   0.83911898  0.53363396  0.00062110
   0.77245614  0.60030817  0.00059571
   0.83911503  0.73364318  0.00063151
   0.97245531  0.80030558  0.00065223
   0.03911471  0.93364329  0.00059805
   0.17245797  0.80031221  0.00062337
   0.23913455  0.93364719  0.00054485
   0.37245140  0.80031667  0.00055140
   0.43912449  0.93364477  0.00054143
   0.57244110  0.80031005  0.00053453
   0.63911507  0.93363899  0.00058764
   0.77244510  0.80031319  0.00060206
   0.83911661  0.93364434  0.00060683
   0.37302101  0.25122688  0.17817974
   0.42087980  0.18931315  0.18075662
   0.32515698  0.31316719  0.17580155
 
 position of ions in cartesian coordinates  (Angst):
  11.98347958  0.00342433  0.01416777
  -0.34154264  1.42664989  0.01100432
   2.12354700  0.00315355  0.01249070
   2.12325634  1.42652621  0.00641170
  10.75098721  2.13818970  0.01213047
  -1.57382270  3.56123457  0.01110375
   0.89078307  2.13853702  0.00547917
   0.89099273  3.56146885  0.00180651
   4.58863896  0.00346260  0.01134782
   4.58893648  1.42622757  0.00645846
   9.51853763  4.27280730  0.01369027
  -2.80632132  5.69591267  0.01433526
   2.12299894  4.27302204  0.00000000
   2.12335237  5.69593607  0.00581036
   7.05344483  0.00333155  0.01398950
   7.05352764  1.42635365  0.01368187
   8.28609598  6.40752033  0.01600723
  -4.03884931  7.83070339  0.01636283
   3.35585531  6.40752662  0.01007237
   3.35598594  7.83071962  0.01319763
  -0.34145776  4.27290193  0.00722612
  -0.34137895  5.69591010  0.00946273
   3.35624236  2.13791198  0.00222492
   3.35573251  3.56155103  0.00139405
  -1.57394684  6.40758280  0.01310850
  -1.57385216  7.83068434  0.01437823
   5.82093107  2.13783916  0.01033241
   5.82114012  3.56096622  0.01155939
   0.89092245  6.40754561  0.00907111
   0.89106251  7.83067670  0.01235474
   4.58870974  4.27292622  0.00849795
   4.58852320  5.69606300  0.01149026
   9.51844972  0.00336679  0.01490402
   9.51855036  1.42644387  0.01438264
   8.28593477  2.13803408  0.01452582
   8.28612680  3.56114872  0.01463668
   7.05356221  4.27268994  0.01457444
   7.05362213  5.69588251  0.01552751
   5.82112285  6.40754723  0.01489279
   5.82101669  7.83073350  0.01578780
   7.05362858  8.54227219  0.01630582
  -5.27148792  9.96548729  0.01495127
  -2.80637951  8.54234295  0.01558431
  -2.80626749  9.96552896  0.01362126
  -0.34148805  8.54239058  0.01378498
  -0.34137657  9.96550309  0.01353576
   2.12342586  8.54231992  0.01336337
   2.12354296  9.96544135  0.01469111
   4.58845581  8.54235337  0.01505154
   4.58852904  9.96549848  0.01517076
   3.04929830  2.68153618  4.45449359
   4.02070129  2.02068374  4.51891545
   2.07766701  3.34267235  4.39503872
 


--------------------------------------------------------------------------------------------------------


 k-point   1 :   0.0000 0.0000 0.0000  plane waves:  236157

 maximum and minimum number of plane-waves per node :     59046    59034

 maximum number of plane-waves:    236157
 maximum index in each direction: 
   IXMAX=   31   IYMAX=   31   IZMAX=   64
   IXMIN=  -31   IYMIN=  -31   IZMIN=  -64


 parallel 3D FFT for wavefunctions:
    minimum data exchange during FFTs selected (reduces bandwidth)
 parallel 3D FFT for charge:
    minimum data exchange during FFTs selected (reduces bandwidth)


 total amount of memory used by VASP MPI-rank0   215378. kBytes
=======================================================================

   base      :      30000. kBytes
   nonl-proj :      57634. kBytes
   fftplans  :      45914. kBytes
   grid      :      67588. kBytes
   one-center:         43. kBytes
   wavefun   :      14199. kBytes
 
     INWAV:  cpu time    0.0000: real time    0.0000
 Broyden mixing: mesh for mixing (old mesh)
   NGX = 63   NGY = 63   NGZ =129
  (NGX  =256   NGY  =256   NGZ  =540)
  gives a total of 512001 points

 initial charge density was supplied:
 charge density of overlapping atoms calculated
 number of electron     216.0000000 magnetization 
 keeping initial charge density in first step


--------------------------------------------------------------------------------------------------------


 Maximum index for augmentation-charges          471 (set IRDMAX)


--------------------------------------------------------------------------------------------------------


 First call to EWALD:  gamma=   0.119
 Maximum number of real-space cells 4x 4x 2
 Maximum number of reciprocal cells 2x 2x 4

    FEWALD:  cpu time    0.0028: real time    0.0028


--------------------------------------- Iteration      1(   1)  ---------------------------------------


    POTLOK:  cpu time    0.3990: real time    0.4028
    SETDIJ:  cpu time    0.0047: real time    0.0049
    TRIAL :  cpu time    5.6096: real time    5.6709
    CORREC:  cpu time    0.0004: real time    0.0006
    --------------------------------------------
      LOOP:  cpu time    6.0211: real time    6.0970

 eigenvalue-minimisations  :   280
 total energy-change (2. order) : 0.2772608E+04  (-0.1023694E+05)
 number of electron     216.0000000 magnetization 
 augmentation part      216.0000000 magnetization 

 Free energy of the ion-electron system (eV)
  ---------------------------------------------------
  alpha Z        PSCENC =        47.94900195
  Ewald energy   TEWEN  =     45539.65285635
  -Hartree energ DENC   =    -51608.79285844
  -exchange      EXHF   =         0.00000000
  -V(xc)+E(xc)   XCENC  =       415.90107606
  PAW double counting   =      6538.03749920    -6258.26020123
  entropy T*S    EENTRO =        -0.00000000
  eigenvalues    EBANDS =      -266.18824254
  atomic energy  EATOM  =      8364.30921166
  ---------------------------------------------------
  free energy    TOTEN  =      2772.60834301 eV

  energy without entropy =     2772.60834301  energy(sigma->0) =     2772.60834301


--------------------------------------------------------------------------------------------------------




--------------------------------------- Iteration      1(   2)  ---------------------------------------


    TRIAL :  cpu time    8.9506: real time    9.0347
    CORREC:  cpu time    0.0001: real time    0.0001
    --------------------------------------------
      LOOP:  cpu time    9.0046: real time    9.0938

 eigenvalue-minimisations  :   504
 total energy-change (2. order) :-0.2488072E+04  (-0.2359191E+04)
 number of electron     216.0000000 magnetization 
 augmentation part      216.0000000 magnetization 

 Free energy of the ion-electron system (eV)
  ---------------------------------------------------
  alpha Z        PSCENC =        47.94900195
  Ewald energy   TEWEN  =     45539.65285635
  -Hartree energ DENC   =    -51608.79285844
  -exchange      EXHF   =         0.00000000
  -V(xc)+E(xc)   XCENC  =       415.90107606
  PAW double counting   =      6538.03749920    -6258.26020123
  entropy T*S    EENTRO =        -0.00000000
  eigenvalues    EBANDS =     -2754.25996712
  atomic energy  EATOM  =      8364.30921166
  ---------------------------------------------------
  free energy    TOTEN  =       284.53661843 eV

  energy without entropy =      284.53661843  energy(sigma->0) =      284.53661843


--------------------------------------------------------------------------------------------------------




--------------------------------------- Iteration      1(   3)  ---------------------------------------


    TRIAL :  cpu time    6.8559: real time    6.9162
    CORREC:  cpu time    0.0001: real time    0.0001
    --------------------------------------------
      LOOP:  cpu time    6.9007: real time    6.9614

 eigenvalue-minimisations  :   364
 total energy-change (2. order) :-0.7378006E+03  (-0.7313000E+03)
 number of electron     216.0000000 magnetization 
 augmentation part      216.0000000 magnetization 

 Free energy of the ion-electron system (eV)
  ---------------------------------------------------
  alpha Z        PSCENC =        47.94900195
  Ewald energy   TEWEN  =     45539.65285635
  -Hartree energ DENC   =    -51608.79285844
  -exchange      EXHF   =         0.00000000
  -V(xc)+E(xc)   XCENC  =       415.90107606
  PAW double counting   =      6538.03749920    -6258.26020123
  entropy T*S    EENTRO =        -0.00000000
  eigenvalues    EBANDS =     -3492.06052801
  atomic energy  EATOM  =      8364.30921166
  ---------------------------------------------------
  free energy    TOTEN  =      -453.26394245 eV

  energy without entropy =     -453.26394245  energy(sigma->0) =     -453.26394245


--------------------------------------------------------------------------------------------------------




--------------------------------------- Iteration      1(   4)  ---------------------------------------


    TRIAL :  cpu time    6.4245: real time    6.4814
    CORREC:  cpu time    0.0001: real time    0.0001
    --------------------------------------------
      LOOP:  cpu time    6.5102: real time    6.5742

 eigenvalue-minimisations  :   336
 total energy-change (2. order) :-0.4405465E+02  (-0.4384391E+02)
 number of electron     216.0000000 magnetization 
 augmentation part      216.0000000 magnetization 

 Free energy of the ion-electron system (eV)
  ---------------------------------------------------
  alpha Z        PSCENC =        47.94900195
  Ewald energy   TEWEN  =     45539.65285635
  -Hartree energ DENC   =    -51608.79285844
  -exchange      EXHF   =         0.00000000
  -V(xc)+E(xc)   XCENC  =       415.90107606
  PAW double counting   =      6538.03749920    -6258.26020123
  entropy T*S    EENTRO =        -0.00000000
  eigenvalues    EBANDS =     -3536.11518012
  atomic energy  EATOM  =      8364.30921166
  ---------------------------------------------------
  free energy    TOTEN  =      -497.31859456 eV

  energy without entropy =     -497.31859456  energy(sigma->0) =     -497.31859456


--------------------------------------------------------------------------------------------------------




--------------------------------------- Iteration      1(   5)  ---------------------------------------


    TRIAL :  cpu time    7.6777: real time    7.7498
    CORREC:  cpu time    0.0001: real time    0.0004
    CHARGE:  cpu time    0.3124: real time    0.3153
    --------------------------------------------
      LOOP:  cpu time    8.0552: real time    8.1311

 eigenvalue-minimisations  :   420
 total energy-change (2. order) :-0.1292839E+01  (-0.1289637E+01)
 number of electron     216.0000000 magnetization 
 augmentation part       -0.3125726 magnetization 

 Free energy of the ion-electron system (eV)
  ---------------------------------------------------
  alpha Z        PSCENC =        47.94900195
  Ewald energy   TEWEN  =     45539.65285635
  -Hartree energ DENC   =    -51608.79285844
  -exchange      EXHF   =         0.00000000
  -V(xc)+E(xc)   XCENC  =       415.90107606
  PAW double counting   =      6538.03749920    -6258.26020123
  entropy T*S    EENTRO =        -0.00000000
  eigenvalues    EBANDS =     -3537.40801882
  atomic energy  EATOM  =      8364.30921166
  ---------------------------------------------------
  free energy    TOTEN  =      -498.61143326 eV

  energy without entropy =     -498.61143326  energy(sigma->0) =     -498.61143326


--------------------------------------------------------------------------------------------------------




--------------------------------------- Iteration      1(   6)  ---------------------------------------


    POTLOK:  cpu time    0.3852: real time    0.3880
    SETDIJ:  cpu time    0.0029: real time    0.0029
    TRIAL :  cpu time    2.6795: real time    2.7036
    CORREC:  cpu time    1.0794: real time    1.0883
    CHARGE:  cpu time    0.3129: real time    0.3153
    --------------------------------------------
      LOOP:  cpu time    4.5496: real time    4.5907

 eigenvalue-minimisations  :     0
 total energy-change (2. order) : 0.4866233E+02  (-0.1445918E+02)
 number of electron     216.0000000 magnetization 
 augmentation part       -0.4045990 magnetization 

 Free energy of the ion-electron system (eV)
  ---------------------------------------------------
  alpha Z        PSCENC =        47.94900195
  Ewald energy   TEWEN  =     45539.65285635
  -Hartree energ DENC   =    -53036.96733388
  -exchange      EXHF   =         0.00000000
  -V(xc)+E(xc)   XCENC  =       462.94470338
  PAW double counting   =    104273.38852217  -103998.96516626
  entropy T*S    EENTRO =        -0.00000000
  eigenvalues    EBANDS =     -2102.26089788
  atomic energy  EATOM  =      8364.30921166
  ---------------------------------------------------
  free energy    TOTEN  =      -449.94910249 eV

  energy without entropy =     -449.94910249  energy(sigma->0) =     -449.94910249


--------------------------------------------------------------------------------------------------------




--------------------------------------- Iteration      1(   7)  ---------------------------------------


    POTLOK:  cpu time    0.3888: real time    0.3916
    SETDIJ:  cpu time    0.0027: real time    0.0027
    TRIAL :  cpu time    2.6705: real time    2.6967
    CORREC:  cpu time    1.0798: real time    1.0891
    CHARGE:  cpu time    0.3135: real time    0.3158
    --------------------------------------------
      LOOP:  cpu time    4.5025: real time    4.5477

 eigenvalue-minimisations  :     0
 total energy-change (2. order) :-0.1449551E+02  (-0.1762119E+01)
 number of electron     216.0000000 magnetization 
 augmentation part       -0.4509859 magnetization 

 Free energy of the ion-electron system (eV)
  ---------------------------------------------------
  alpha Z        PSCENC =        47.94900195
  Ewald energy   TEWEN  =     45539.65285635
  -Hartree energ DENC   =    -52543.80140369
  -exchange      EXHF   =         0.00000000
  -V(xc)+E(xc)   XCENC  =       446.79075144
  PAW double counting   =    120468.16415040  -120191.67499245
  entropy T*S    EENTRO =        -0.00000000
  eigenvalues    EBANDS =     -2595.83418920
  atomic energy  EATOM  =      8364.30921166
  ---------------------------------------------------
  free energy    TOTEN  =      -464.44461353 eV

  energy without entropy =     -464.44461353  energy(sigma->0) =     -464.44461353


--------------------------------------------------------------------------------------------------------




--------------------------------------- Iteration      1(   8)  ---------------------------------------


    POTLOK:  cpu time    0.3856: real time    0.3884
    SETDIJ:  cpu time    0.0029: real time    0.0029
    TRIAL :  cpu time    2.6694: real time    2.6940
    CORREC:  cpu time    1.0845: real time    1.0942
    CHARGE:  cpu time    0.3143: real time    0.3166
    --------------------------------------------
      LOOP:  cpu time    4.5005: real time    4.5573

 eigenvalue-minimisations  :     0
 total energy-change (2. order) :-0.1761463E+01  (-0.4538556E+00)
 number of electron     216.0000000 magnetization 
 augmentation part       -0.4669233 magnetization 

 Free energy of the ion-electron system (eV)
  ---------------------------------------------------
  alpha Z        PSCENC =        47.94900195
  Ewald energy   TEWEN  =     45539.65285635
  -Hartree energ DENC   =    -52514.56876314
  -exchange      EXHF   =         0.00000000
  -V(xc)+E(xc)   XCENC  =       446.18493530
  PAW double counting   =    124715.48986413  -124438.70679978
  entropy T*S    EENTRO =        -0.00000000
  eigenvalues    EBANDS =     -2626.51638268
  atomic energy  EATOM  =      8364.30921166
  ---------------------------------------------------
  free energy    TOTEN  =      -466.20607618 eV

  energy without entropy =     -466.20607618  energy(sigma->0) =     -466.20607618


--------------------------------------------------------------------------------------------------------




--------------------------------------- Iteration      1(   9)  ---------------------------------------


    POTLOK:  cpu time    0.3904: real time    0.3932
    SETDIJ:  cpu time    0.0029: real time    0.0029
    TRIAL :  cpu time    2.6686: real time    2.6935
    CORREC:  cpu time    1.0841: real time    1.0928
    CHARGE:  cpu time    0.3149: real time    0.3172
    --------------------------------------------
      LOOP:  cpu time    4.5010: real time    4.5694

 eigenvalue-minimisations  :     0
 total energy-change (2. order) :-0.4536714E+00  (-0.1395790E+00)
 number of electron     216.0000000 magnetization 
 augmentation part       -0.4737633 magnetization 

 Free energy of the ion-electron system (eV)
  ---------------------------------------------------
  alpha Z        PSCENC =        47.94900195
  Ewald energy   TEWEN  =     45539.65285635
  -Hartree energ DENC   =    -52531.30489605
  -exchange      EXHF   =         0.00000000
  -V(xc)+E(xc)   XCENC  =       446.37173112
  PAW double counting   =    127208.34207036  -126931.45765947
  entropy T*S    EENTRO =        -0.00000000
  eigenvalues    EBANDS =     -2610.52206347
  atomic energy  EATOM  =      8364.30921166
  ---------------------------------------------------
  free energy    TOTEN  =      -466.65974754 eV

  energy without entropy =     -466.65974754  energy(sigma->0) =     -466.65974754


--------------------------------------------------------------------------------------------------------




--------------------------------------- Iteration      1(  10)  ---------------------------------------


    POTLOK:  cpu time    0.3959: real time    0.3985
    SETDIJ:  cpu time    0.0030: real time    0.0030
    TRIAL :  cpu time    2.6585: real time    2.6976
    CORREC:  cpu time    1.0808: real time    1.0894
    CHARGE:  cpu time    0.3135: real time    0.3159
    --------------------------------------------
      LOOP:  cpu time    4.4943: real time    4.5487

 eigenvalue-minimisations  :     0
 total energy-change (2. order) :-0.1393967E+00  (-0.5563686E-01)
 number of electron     216.0000000 magnetization 
 augmentation part       -0.4746340 magnetization 

 Free energy of the ion-electron system (eV)
  ---------------------------------------------------
  alpha Z        PSCENC =        47.94900195
  Ewald energy   TEWEN  =     45539.65285635
  -Hartree energ DENC   =    -52532.87165196
  -exchange      EXHF   =         0.00000000
  -V(xc)+E(xc)   XCENC  =       446.29664349
  PAW double counting   =    127422.05803472  -127145.11591029
  entropy T*S    EENTRO =        -0.00000000
  eigenvalues    EBANDS =     -2609.07733019
  atomic energy  EATOM  =      8364.30921166
  ---------------------------------------------------
  free energy    TOTEN  =      -466.79914427 eV

  energy without entropy =     -466.79914427  energy(sigma->0) =     -466.79914427


--------------------------------------------------------------------------------------------------------




--------------------------------------- Iteration      1(  11)  ---------------------------------------


    POTLOK:  cpu time    0.3862: real time    0.3887
    SETDIJ:  cpu time    0.0030: real time    0.0030
    TRIAL :  cpu time    2.6644: real time    2.6885
    CORREC:  cpu time    1.0842: real time    1.0927
    CHARGE:  cpu time    0.3123: real time    0.3146
    --------------------------------------------
      LOOP:  cpu time    4.5938: real time    4.6332

 eigenvalue-minimisations  :     0
 total energy-change (2. order) :-0.5551508E-01  (-0.2221179E-01)
 number of electron     216.0000000 magnetization 
 augmentation part       -0.4744492 magnetization 

 Free energy of the ion-electron system (eV)
  ---------------------------------------------------
  alpha Z        PSCENC =        47.94900195
  Ewald energy   TEWEN  =     45539.65285635
  -Hartree energ DENC   =    -52529.32338014
  -exchange      EXHF   =         0.00000000
  -V(xc)+E(xc)   XCENC  =       446.23455891
  PAW double counting   =    126835.57702934  -126558.63605825
  entropy T*S    EENTRO =        -0.00000000
  eigenvalues    EBANDS =     -2612.61787918
  atomic energy  EATOM  =      8364.30921166
  ---------------------------------------------------
  free energy    TOTEN  =      -466.85465935 eV

  energy without entropy =     -466.85465935  energy(sigma->0) =     -466.85465935


--------------------------------------------------------------------------------------------------------




--------------------------------------- Iteration      1(  12)  ---------------------------------------


    POTLOK:  cpu time    0.3855: real time    0.3890
    SETDIJ:  cpu time    0.0027: real time    0.0027
    TRIAL :  cpu time    2.6595: real time    2.6922
    CORREC:  cpu time    1.0792: real time    1.0879
    CHARGE:  cpu time    0.3132: real time    0.3154
    --------------------------------------------
      LOOP:  cpu time    4.5087: real time    4.5578

 eigenvalue-minimisations  :     0
 total energy-change (2. order) :-0.2211902E-01  (-0.7740022E-02)
 number of electron     216.0000000 magnetization 
 augmentation part       -0.4747169 magnetization 

 Free energy of the ion-electron system (eV)
  ---------------------------------------------------
  alpha Z        PSCENC =        47.94900195
  Ewald energy   TEWEN  =     45539.65285635
  -Hartree energ DENC   =    -52527.95788781
  -exchange      EXHF   =         0.00000000
  -V(xc)+E(xc)   XCENC  =       446.20912682
  PAW double counting   =    126459.32382816  -126182.39932035
  entropy T*S    EENTRO =        -0.00000000
  eigenvalues    EBANDS =     -2613.96359516
  atomic energy  EATOM  =      8364.30921166
  ---------------------------------------------------
  free energy    TOTEN  =      -466.87677837 eV

  energy without entropy =     -466.87677837  energy(sigma->0) =     -466.87677837


--------------------------------------------------------------------------------------------------------




--------------------------------------- Iteration      1(  13)  ---------------------------------------


    POTLOK:  cpu time    0.3815: real time    0.3839
    SETDIJ:  cpu time    0.0028: real time    0.0028
    TRIAL :  cpu time    2.6683: real time    2.6927
    CORREC:  cpu time    1.0786: real time    1.0874
    CHARGE:  cpu time    0.3133: real time    0.3157
    --------------------------------------------
      LOOP:  cpu time    4.5044: real time    4.5461

 eigenvalue-minimisations  :     0
 total energy-change (2. order) :-0.7723710E-02  (-0.2269253E-02)
 number of electron     216.0000000 magnetization 
 augmentation part       -0.4744284 magnetization 

 Free energy of the ion-electron system (eV)
  ---------------------------------------------------
  alpha Z        PSCENC =        47.94900195
  Ewald energy   TEWEN  =     45539.65285635
  -Hartree energ DENC   =    -52527.82530469
  -exchange      EXHF   =         0.00000000
  -V(xc)+E(xc)   XCENC  =       446.19848451
  PAW double counting   =    126388.67706094  -126111.75774789
  entropy T*S    EENTRO =        -0.00000000
  eigenvalues    EBANDS =     -2614.08806491
  atomic energy  EATOM  =      8364.30921166
  ---------------------------------------------------
  free energy    TOTEN  =      -466.88450208 eV

  energy without entropy =     -466.88450208  energy(sigma->0) =     -466.88450208


--------------------------------------------------------------------------------------------------------




--------------------------------------- Iteration      1(  14)  ---------------------------------------


    POTLOK:  cpu time    0.3768: real time    0.3794
    SETDIJ:  cpu time    0.0030: real time    0.0030
    TRIAL :  cpu time    2.6719: real time    2.6966
    CORREC:  cpu time    1.0756: real time    1.0844
    CHARGE:  cpu time    0.3136: real time    0.3158
    --------------------------------------------
      LOOP:  cpu time    4.4667: real time    4.5297

 eigenvalue-minimisations  :     0
 total energy-change (2. order) :-0.2270488E-02  (-0.6360121E-03)
 number of electron     216.0000000 magnetization 
 augmentation part       -0.4741889 magnetization 

 Free energy of the ion-electron system (eV)
  ---------------------------------------------------
  alpha Z        PSCENC =        47.94900195
  Ewald energy   TEWEN  =     45539.65285635
  -Hartree energ DENC   =    -52527.72047581
  -exchange      EXHF   =         0.00000000
  -V(xc)+E(xc)   XCENC  =       446.19729559
  PAW double counting   =    126451.99898947  -126175.08073927
  entropy T*S    EENTRO =        -0.00000000
  eigenvalues    EBANDS =     -2614.19291252
  atomic energy  EATOM  =      8364.30921166
  ---------------------------------------------------
  free energy    TOTEN  =      -466.88677257 eV

  energy without entropy =     -466.88677257  energy(sigma->0) =     -466.88677257


--------------------------------------------------------------------------------------------------------




--------------------------------------- Iteration      1(  15)  ---------------------------------------


    POTLOK:  cpu time    0.3785: real time    0.3809
    SETDIJ:  cpu time    0.0028: real time    0.0028
    TRIAL :  cpu time    2.6680: real time    2.6924
    CORREC:  cpu time    1.0752: real time    1.0837
    CHARGE:  cpu time    0.3129: real time    0.3152
    --------------------------------------------
      LOOP:  cpu time    4.4781: real time    4.5168

 eigenvalue-minimisations  :     0
 total energy-change (2. order) :-0.6381566E-03  (-0.2083251E-03)
 number of electron     216.0000000 magnetization 
 augmentation part       -0.4739274 magnetization 

 Free energy of the ion-electron system (eV)
  ---------------------------------------------------
  alpha Z        PSCENC =        47.94900195
  Ewald energy   TEWEN  =     45539.65285635
  -Hartree energ DENC   =    -52527.44365811
  -exchange      EXHF   =         0.00000000
  -V(xc)+E(xc)   XCENC  =       446.18716986
  PAW double counting   =    126490.47095378  -126213.55163919
  entropy T*S    EENTRO =        -0.00000000
  eigenvalues    EBANDS =     -2614.46130704
  atomic energy  EATOM  =      8364.30921166
  ---------------------------------------------------
  free energy    TOTEN  =      -466.88741073 eV

  energy without entropy =     -466.88741073  energy(sigma->0) =     -466.88741073


--------------------------------------------------------------------------------------------------------




--------------------------------------- Iteration      1(  16)  ---------------------------------------


    POTLOK:  cpu time    0.3768: real time    0.3792
    SETDIJ:  cpu time    0.0028: real time    0.0029
    TRIAL :  cpu time    2.6783: real time    2.7050
    CORREC:  cpu time    1.0770: real time    1.0866
    CHARGE:  cpu time    0.3130: real time    0.3156
    --------------------------------------------
      LOOP:  cpu time    4.5252: real time    4.5675

 eigenvalue-minimisations  :     0
 total energy-change (2. order) :-0.2098027E-03  (-0.7907161E-04)
 number of electron     216.0000000 magnetization 
 augmentation part       -0.4737512 magnetization 

 Free energy of the ion-electron system (eV)
  ---------------------------------------------------
  alpha Z        PSCENC =        47.94900195
  Ewald energy   TEWEN  =     45539.65285635
  -Hartree energ DENC   =    -52527.51641833
  -exchange      EXHF   =         0.00000000
  -V(xc)+E(xc)   XCENC  =       446.18992057
  PAW double counting   =    126472.64785445  -126195.72901586
  entropy T*S    EENTRO =        -0.00000000
  eigenvalues    EBANDS =     -2614.39103134
  atomic energy  EATOM  =      8364.30921166
  ---------------------------------------------------
  free energy    TOTEN  =      -466.88762053 eV

  energy without entropy =     -466.88762053  energy(sigma->0) =     -466.88762053


--------------------------------------------------------------------------------------------------------




--------------------------------------- Iteration      1(  17)  ---------------------------------------


    POTLOK:  cpu time    0.3769: real time    0.3795
    SETDIJ:  cpu time    0.0028: real time    0.0029
    TRIAL :  cpu time    2.6657: real time    2.6920
    CORREC:  cpu time    1.0749: real time    1.0850
    CHARGE:  cpu time    0.3122: real time    0.3146
    --------------------------------------------
      LOOP:  cpu time    4.4872: real time    4.5386

 eigenvalue-minimisations  :     0
 total energy-change (2. order) :-0.8007715E-04  (-0.3000613E-04)
 number of electron     216.0000000 magnetization 
 augmentation part       -0.4737433 magnetization 

 Free energy of the ion-electron system (eV)
  ---------------------------------------------------
  alpha Z        PSCENC =        47.94900195
  Ewald energy   TEWEN  =     45539.65285635
  -Hartree energ DENC   =    -52527.62152768
  -exchange      EXHF   =         0.00000000
  -V(xc)+E(xc)   XCENC  =       446.19314997
  PAW double counting   =    126444.97333162  -126168.05487126
  entropy T*S    EENTRO =        -0.00000000
  eigenvalues    EBANDS =     -2614.28885322
  atomic energy  EATOM  =      8364.30921166
  ---------------------------------------------------
  free energy    TOTEN  =      -466.88770061 eV

  energy without entropy =     -466.88770061  energy(sigma->0) =     -466.88770061


--------------------------------------------------------------------------------------------------------




--------------------------------------- Iteration      1(  18)  ---------------------------------------


    POTLOK:  cpu time    0.3783: real time    0.3807
    SETDIJ:  cpu time    0.0029: real time    0.0029
    TRIAL :  cpu time    2.6673: real time    2.6920
    CORREC:  cpu time    1.0729: real time    1.0815
    CHARGE:  cpu time    0.3136: real time    0.3160
    --------------------------------------------
      LOOP:  cpu time    4.4779: real time    4.5181

 eigenvalue-minimisations  :     0
 total energy-change (2. order) :-0.3034009E-04  (-0.1208681E-04)
 number of electron     216.0000000 magnetization 
 augmentation part       -0.4737791 magnetization 

 Free energy of the ion-electron system (eV)
  ---------------------------------------------------
  alpha Z        PSCENC =        47.94900195
  Ewald energy   TEWEN  =     45539.65285635
  -Hartree energ DENC   =    -52527.60494521
  -exchange      EXHF   =         0.00000000
  -V(xc)+E(xc)   XCENC  =       446.19190853
  PAW double counting   =    126437.43246215  -126160.51364153
  entropy T*S    EENTRO =        -0.00000000
  eigenvalues    EBANDS =     -2614.30458486
  atomic energy  EATOM  =      8364.30921166
  ---------------------------------------------------
  free energy    TOTEN  =      -466.88773095 eV

  energy without entropy =     -466.88773095  energy(sigma->0) =     -466.88773095


--------------------------------------------------------------------------------------------------------




--------------------------------------- Iteration      1(  19)  ---------------------------------------


    POTLOK:  cpu time    0.3784: real time    0.3808
    SETDIJ:  cpu time    0.0032: real time    0.0032
    TRIAL :  cpu time    2.6701: real time    2.6951
    CORREC:  cpu time    1.0756: real time    1.0841
    CHARGE:  cpu time    0.3131: real time    0.3154
    --------------------------------------------
      LOOP:  cpu time    4.4854: real time    4.5251

 eigenvalue-minimisations  :     0
 total energy-change (2. order) :-0.1186618E-04  (-0.4476500E-05)
 number of electron     216.0000000 magnetization 
 augmentation part       -0.4738511 magnetization 

 Free energy of the ion-electron system (eV)
  ---------------------------------------------------
  alpha Z        PSCENC =        47.94900195
  Ewald energy   TEWEN  =     45539.65285635
  -Hartree energ DENC   =    -52527.62854507
  -exchange      EXHF   =         0.00000000
  -V(xc)+E(xc)   XCENC  =       446.19316312
  PAW double counting   =    126441.80503052  -126164.88616981
  entropy T*S    EENTRO =        -0.00000000
  eigenvalues    EBANDS =     -2614.28229155
  atomic energy  EATOM  =      8364.30921166
  ---------------------------------------------------
  free energy    TOTEN  =      -466.88774282 eV

  energy without entropy =     -466.88774282  energy(sigma->0) =     -466.88774282


--------------------------------------------------------------------------------------------------------




--------------------------------------- Iteration      1(  20)  ---------------------------------------


    POTLOK:  cpu time    0.3773: real time    0.3798
    SETDIJ:  cpu time    0.0028: real time    0.0028
    TRIAL :  cpu time    2.6663: real time    2.6903
    CORREC:  cpu time    1.0751: real time    1.0837
    CHARGE:  cpu time    0.3124: real time    0.3148
    --------------------------------------------
      LOOP:  cpu time    4.4844: real time    4.5832

 eigenvalue-minimisations  :     0
 total energy-change (2. order) :-0.4186790E-05  (-0.1674309E-05)
 number of electron     216.0000000 magnetization 
 augmentation part       -0.4738610 magnetization 

 Free energy of the ion-electron system (eV)
  ---------------------------------------------------
  alpha Z        PSCENC =        47.94900195
  Ewald energy   TEWEN  =     45539.65285635
  -Hartree energ DENC   =    -52527.61347649
  -exchange      EXHF   =         0.00000000
  -V(xc)+E(xc)   XCENC  =       446.19218045
  PAW double counting   =    126447.18117013  -126170.26198933
  entropy T*S    EENTRO =        -0.00000000
  eigenvalues    EBANDS =     -2614.29670173
  atomic energy  EATOM  =      8364.30921166
  ---------------------------------------------------
  free energy    TOTEN  =      -466.88774700 eV

  energy without entropy =     -466.88774700  energy(sigma->0) =     -466.88774700


--------------------------------------------------------------------------------------------------------




--------------------------------------- Iteration      1(  21)  ---------------------------------------


    POTLOK:  cpu time    0.3779: real time    0.3802
    SETDIJ:  cpu time    0.0028: real time    0.0028
    TRIAL :  cpu time    2.6678: real time    2.6941
    CORREC:  cpu time    1.0775: real time    1.0860
    CHARGE:  cpu time    0.3125: real time    0.3148
    --------------------------------------------
      LOOP:  cpu time    4.5048: real time    4.5473

 eigenvalue-minimisations  :     0
 total energy-change (2. order) :-0.1500113E-05  (-0.6620614E-06)
 number of electron     216.0000000 magnetization 
 augmentation part       -0.4738723 magnetization 

 Free energy of the ion-electron system (eV)
  ---------------------------------------------------
  alpha Z        PSCENC =        47.94900195
  Ewald energy   TEWEN  =     45539.65285635
  -Hartree energ DENC   =    -52527.63848436
  -exchange      EXHF   =         0.00000000
  -V(xc)+E(xc)   XCENC  =       446.19335660
  PAW double counting   =    126448.61765249  -126171.69861493
  entropy T*S    EENTRO =        -0.00000000
  eigenvalues    EBANDS =     -2614.27272827
  atomic energy  EATOM  =      8364.30921166
  ---------------------------------------------------
  free energy    TOTEN  =      -466.88774850 eV

  energy without entropy =     -466.88774850  energy(sigma->0) =     -466.88774850


--------------------------------------------------------------------------------------------------------




--------------------------------------- Iteration      1(  22)  ---------------------------------------


    POTLOK:  cpu time    0.3778: real time    0.3802
    SETDIJ:  cpu time    0.0030: real time    0.0030
    TRIAL :  cpu time    2.6705: real time    2.6945
    CORREC:  cpu time    1.0730: real time    1.0814
    EDDIAG:  cpu time    0.5958: real time    0.6014
    CHARGE:  cpu time    0.3116: real time    0.3138
    --------------------------------------------
      LOOP:  cpu time    5.0815: real time    5.1263

 eigenvalue-minimisations  :     0
 total energy-change (2. order) :-0.6339833E-06  (-0.3196183E-06)
 number of electron     216.0000000 magnetization 
 augmentation part       -0.4738661 magnetization 

 Free energy of the ion-electron system (eV)
  ---------------------------------------------------
  alpha Z        PSCENC =        47.94900195
  Ewald energy   TEWEN  =     45539.65285635
  -Hartree energ DENC   =    -52527.62492107
  -exchange      EXHF   =         0.00000000
  -V(xc)+E(xc)   XCENC  =       446.19264725
  PAW double counting   =    126447.81672779  -126170.89762280
  entropy T*S    EENTRO =        -0.00000000
  eigenvalues    EBANDS =     -2614.28565028
  atomic energy  EATOM  =      8364.30921166
  ---------------------------------------------------
  free energy    TOTEN  =      -466.88774914 eV

  energy without entropy =     -466.88774914  energy(sigma->0) =     -466.88774914


--------------------------------------------------------------------------------------------------------


  average scaling for gradient   0.9329


 average (electrostatic) potential at core
  the test charge radii are     0.5770  0.5955
  (the norm of the test charge is              1.0000)
       1 -85.7770       2 -85.7751       3 -85.7793       4 -85.7822       5 -85.7729
       6 -85.7715       7 -85.7783       8 -85.7738       9 -85.7742      10 -85.7777
      11 -85.7720      12 -85.7732      13 -85.7771      14 -85.7739      15 -85.7713
      16 -85.7721      17 -85.7741      18 -85.7755      19 -85.7766      20 -85.7742
      21 -85.7709      22 -85.7706      23 -85.7836      24 -85.7831      25 -85.7715
      26 -85.7727      27 -85.7747      28 -85.7782      29 -85.7715      30 -85.7716
      31 -85.7808      32 -85.7780      33 -85.7738      34 -85.7724      35 -85.7722
      36 -85.7733      37 -85.7749      38 -85.7762      39 -85.7764      40 -85.7758
      41 -85.7759      42 -85.7771      43 -85.7741      44 -85.7769      45 -85.7716
      46 -85.7718      47 -85.7731      48 -85.7721      49 -85.7758      50 -85.7745
      51 -89.7238      52-120.3892      53-120.3885
 
 
 
 E-fermi :  -4.1488     XC(G=0):  -1.9113     alpha+bet : -1.6890

 Fermi energy:        -4.1488380623

 k-point     1 :       0.0000    0.0000    0.0000
  band No.  band energies     occupation 
      1     -27.6637      2.00000
      2     -26.6413      2.00000
      3     -22.3423      2.00000
      4     -21.4025      2.00000
      5     -21.4013      2.00000
      6     -21.3997      2.00000
      7     -21.3988      2.00000
      8     -21.3974      2.00000
      9     -21.3973      2.00000
     10     -19.5518      2.00000
     11     -19.5517      2.00000
     12     -19.5516      2.00000
     13     -19.5511      2.00000
     14     -19.5510      2.00000
     15     -19.5508      2.00000
     16     -18.6530      2.00000
     17     -18.6527      2.00000
     18     -18.6523      2.00000
     19     -18.6523      2.00000
     20     -18.6521      2.00000
     21     -18.6517      2.00000
     22     -16.4908      2.00000
     23     -16.4908      2.00000
     24     -16.4902      2.00000
     25     -16.4898      2.00000
     26     -16.4882      2.00000
     27     -16.4881      2.00000
     28     -15.4738      2.00000
     29     -15.4736      2.00000
     30     -15.4734      2.00000
     31     -15.4733      2.00000
     32     -15.4725      2.00000
     33     -15.4724      2.00000
     34     -14.1223      2.00000
     35     -14.1222      2.00000
     36     -14.1218      2.00000
     37     -14.1216      2.00000
     38     -14.1216      2.00000
     39     -14.1209      2.00000
     40     -12.4442      2.00000
     41     -11.7324      2.00000
     42     -11.7323      2.00000
     43     -11.7318      2.00000
     44     -11.7318      2.00000
     45     -11.7311      2.00000
     46     -11.7310      2.00000
     47     -11.6102      2.00000
     48     -11.6102      2.00000
     49     -11.6094      2.00000
     50     -11.6093      2.00000
     51     -11.6081      2.00000
     52     -11.6078      2.00000
     53     -11.2189      2.00000
     54     -11.1355      2.00000
     55     -11.1352      2.00000
     56     -10.3660      2.00000
     57     -10.2253      2.00000
     58     -10.2252      2.00000
     59     -10.2241      2.00000
     60     -10.2237      2.00000
     61     -10.2234      2.00000
     62     -10.2234      2.00000
     63      -9.2556      2.00000
     64      -9.2537      2.00000
     65      -9.2498      2.00000
     66      -9.2495      2.00000
     67      -9.2471      2.00000
     68      -9.2469      2.00000
     69      -8.9431      2.00000
     70      -8.9418      2.00000
     71      -8.9416      2.00000
     72      -8.9406      2.00000
     73      -8.9404      2.00000
     74      -8.9403      2.00000
     75      -8.9094      2.00000
     76      -8.9092      2.00000
     77      -8.9091      2.00000
     78      -8.9087      2.00000
     79      -8.9080      2.00000
     80      -8.9072      2.00000
     81      -7.5964      2.00000
     82      -7.5962      2.00000
     83      -7.2827      2.00000
     84      -7.2820      2.00000
     85      -7.2817      2.00000
     86      -7.2812      2.00000
     87      -7.2793      2.00000
     88      -7.2792      2.00000
     89      -7.1254      2.00000
     90      -7.1253      2.00000
     91      -7.1232      2.00000
     92      -7.1228      2.00000
     93      -7.1224      2.00000
     94      -7.1223      2.00000
     95      -6.2320      2.00000
     96      -6.2306      2.00000
     97      -6.2303      2.00000
     98      -6.2289      2.00000
     99      -6.2286      2.00000
    100      -6.2279      2.00000
    101      -5.7893      2.00000
    102      -5.7872      2.00000
    103      -4.2525      2.00000
    104      -4.2520      2.00000
    105      -4.2513      2.00000
    106      -4.2507      2.00000
    107      -4.2479      2.00000
    108      -4.2477      2.00000
    109      -1.4385      0.00000
    110      -1.4383      0.00000
    111      -1.4358      0.00000
    112      -1.4354      0.00000
    113      -1.4349      0.00000
    114      -1.4347      0.00000
    115       0.1531      0.00000
    116       0.4342      0.00000
    117       0.4353      0.00000
    118       0.4360      0.00000
    119       0.4374      0.00000
    120       0.4377      0.00000
    121       0.4404      0.00000
    122       0.7264      0.00000
    123       0.9575      0.00000
    124       1.1520      0.00000
    125       1.3542      0.00000
    126       1.5031      0.00000
    127       1.5940      0.00000
    128       1.6794      0.00000
    129       1.7100      0.00000
    130       1.7175      0.00000
    131       1.7347      0.00000
    132       2.1590      0.00000
    133       2.1761      0.00000
    134       2.1769      0.00000
    135       2.1930      0.00000
    136       2.2523      0.00000
    137       2.2534      0.00000
    138       2.6869      0.00000
    139       2.7800      0.00000
    140       3.1343      0.00000


--------------------------------------------------------------------------------------------------------


 soft charge-density along one line, spin component           1
         0         1         2         3         4         5         6         7         8         9
 total charge-density along one line
 
 pseudopotential strength for first ion, spin component:           1
 12.722  21.410  -0.000   0.000   0.000  -0.000   0.000   0.000
 21.410  36.029  -0.000   0.000   0.000  -0.000   0.000   0.000
 -0.000  -0.000  -3.100  -0.000   0.000  -5.556  -0.000   0.000
  0.000   0.000  -0.000  -3.101  -0.000  -0.000  -5.558  -0.000
  0.000   0.000   0.000  -0.000  -3.100   0.000  -0.000  -5.556
 -0.000  -0.000  -5.556  -0.000   0.000  -9.936  -0.000   0.000
  0.000   0.000  -0.000  -5.558  -0.000  -0.000  -9.939  -0.000
  0.000   0.000   0.000  -0.000  -5.556   0.000  -0.000  -9.936
 total augmentation occupancy for first ion, spin component:           1
  8.451  -3.031  -0.000  -0.002  -0.000   0.000   0.001   0.000
 -3.031   1.122   0.000   0.001  -0.000  -0.000  -0.000   0.000
 -0.000   0.000   7.732  -0.008   0.000  -2.679   0.003  -0.000
 -0.002   0.001  -0.008   3.531  -0.000   0.003  -0.988   0.000
 -0.000  -0.000   0.000  -0.000   7.732  -0.000   0.000  -2.678
  0.000  -0.000  -2.679   0.003  -0.000   0.941  -0.001   0.000
  0.001  -0.000   0.003  -0.988   0.000  -0.001   0.282  -0.000
  0.000   0.000  -0.000   0.000  -2.678   0.000  -0.000   0.941


------------------------ aborting loop because EDIFF is reached ----------------------------------------


    FORLOC:  cpu time    0.0679: real time    0.0685
    FORNL :  cpu time    1.1109: real time    1.1242
    FORCOR:  cpu time    0.4031: real time    0.4056
    OFIELD:  cpu time    0.0015: real time    0.0015

 ---------------------------------------------------------------------------------------------

         DFTD3 V3.0 Rev 1        
 IVDW         = 11
 DF revpbe    
 parameters
 VDW_S6       =    1.0000
 VDW_S8       =    1.0100
 VDW_SR       =    0.9230
 rs18     =    1.0000
 alpha6   =   14.0000
 alpha8   =   16.0000
 k1-k3    =   16.0000    1.3333   -4.0000
 VDW_RADIUS   =   50.2022 A
 VDW_CNRADIUS =   21.1671 A
 Edisp (eV)   -3.71934

 E6    (eV) :    -2.6515
 E8    (eV) :    -1.0679
 % E8        : 28.71
    FORVDW:  cpu time    0.1582: real time    0.1594

 VOLUME and BASIS-vectors are now :
 -----------------------------------------------------------------------------
  energy-cutoff  :     1000.00
  volume of cell :     3288.85
      direct lattice vectors                 reciprocal lattice vectors
    12.325000000  0.000000000  0.000000000     0.081135903  0.046843835  0.000000000
    -6.162500000 10.673763102  0.000000000     0.000000000  0.093687670  0.000000000
     0.000000000  0.000000000 25.000000000     0.000000000  0.000000000  0.040000000

  length of vectors
    12.325000000 12.325000000 25.000000000     0.093687670  0.093687670  0.040000000


 FORCES acting on ions:
    Electron-Ion                     Ewald-Force                    Non-Local-Force
 -----------------------------------------------------------------------------------------------
   0.591E+01 0.515E+01 0.250E+02   -.592E+01 -.515E+01 -.250E+02   0.987E-02 -.174E-02 0.865E-02
   0.893E+01 0.435E+01 0.296E+02   -.894E+01 -.434E+01 -.296E+02   0.122E-01 -.635E-02 -.640E-02
   0.399E+01 0.106E+02 0.333E+02   -.399E+01 -.106E+02 -.334E+02   -.119E-02 0.230E-01 0.108E-01
   0.555E+01 0.805E+01 0.441E+02   -.556E+01 -.805E+01 -.441E+02   0.218E-01 0.571E-02 0.115E-01
   0.633E+01 0.149E+01 0.252E+02   -.634E+01 -.149E+01 -.252E+02   0.332E-02 -.102E-01 -.180E-02
   0.654E+01 -.123E+01 0.255E+02   -.654E+01 0.123E+01 -.255E+02   -.850E-02 0.964E-03 -.107E-01
   0.102E+02 0.381E+01 0.405E+02   -.102E+02 -.379E+01 -.405E+02   0.264E-01 -.282E-01 -.419E-03
   0.989E+01 -.351E+01 0.421E+02   -.991E+01 0.352E+01 -.421E+02   0.542E-02 -.146E-01 -.161E-01
   -.467E+01 0.952E+01 0.336E+02   0.468E+01 -.953E+01 -.335E+02   -.928E-02 -.591E-02 -.122E-01
   -.744E+01 0.627E+01 0.428E+02   0.746E+01 -.628E+01 -.428E+02   -.427E-01 0.261E-01 0.389E-02
   0.162E+01 -.154E+01 0.220E+02   -.161E+01 0.154E+01 -.220E+02   0.580E-03 -.140E-02 -.434E-02
   0.136E+01 -.112E+01 0.210E+02   -.135E+01 0.112E+01 -.210E+02   -.111E-01 0.503E-02 0.266E-02
   0.396E+01 -.862E+01 0.457E+02   -.398E+01 0.863E+01 -.457E+02   0.440E-01 -.187E-01 -.125E-02
   0.211E+01 -.106E+02 0.343E+02   -.213E+01 0.106E+02 -.343E+02   0.132E-01 0.362E-03 -.220E-01
   -.568E+01 0.353E+01 0.246E+02   0.568E+01 -.353E+01 -.246E+02   0.861E-02 -.413E-02 -.116E-02
   -.797E+01 0.233E+01 0.269E+02   0.798E+01 -.234E+01 -.269E+02   -.526E-02 0.928E-02 -.146E-01
   -.956E+00 -.382E+00 0.203E+02   0.964E+00 0.379E+00 -.203E+02   -.454E-02 0.169E-02 0.111E-02
   0.471E+00 0.339E+01 0.212E+02   -.467E+00 -.339E+01 -.212E+02   -.601E-02 0.343E-02 0.915E-02
   -.157E+01 -.956E+01 0.289E+02   0.156E+01 0.957E+01 -.289E+02   0.129E-01 -.626E-02 0.197E-02
   -.778E+00 -.514E+01 0.228E+02   0.770E+00 0.515E+01 -.228E+02   0.405E-02 -.431E-02 -.167E-02
   0.898E+01 -.395E+01 0.311E+02   -.898E+01 0.396E+01 -.310E+02   0.167E-02 -.620E-02 -.305E-01
   0.578E+01 -.487E+01 0.268E+02   -.578E+01 0.487E+01 -.267E+02   -.759E-02 0.693E-02 -.124E-01
   -.191E+01 0.377E+01 0.508E+02   0.192E+01 -.378E+01 -.508E+02   -.188E-01 0.182E-01 0.338E-01
   -.273E+01 -.593E+01 0.495E+02   0.272E+01 0.595E+01 -.495E+02   0.174E-01 -.256E-01 0.201E-01
   0.292E+01 -.121E+01 0.221E+02   -.292E+01 0.121E+01 -.221E+02   -.395E-03 -.102E-02 -.835E-02
   0.614E+00 0.259E+01 0.222E+02   -.610E+00 -.259E+01 -.222E+02   -.936E-02 0.549E-02 0.117E-02
   -.107E+02 0.144E+01 0.356E+02   0.108E+02 -.145E+01 -.356E+02   0.114E-02 0.147E-01 -.867E-02
   -.102E+02 -.413E+01 0.337E+02   0.102E+02 0.412E+01 -.337E+02   -.201E-01 0.147E-01 0.525E-02
   0.347E+01 -.698E+01 0.276E+02   -.347E+01 0.698E+01 -.276E+02   0.979E-02 0.193E-02 -.160E-01
   0.313E+00 -.283E+01 0.231E+02   -.318E+00 0.283E+01 -.231E+02   -.239E-02 0.362E-02 -.761E-02
   -.775E+01 -.817E+01 0.387E+02   0.776E+01 0.818E+01 -.387E+02   -.217E-01 -.138E-01 0.606E-02
   -.500E+01 -.919E+01 0.301E+02   0.500E+01 0.920E+01 -.301E+02   0.659E-03 -.102E-01 0.988E-02
   0.373E+00 0.148E+01 0.209E+02   -.377E+00 -.148E+01 -.209E+02   0.896E-02 -.643E-02 0.462E-02
   0.990E+00 0.147E+01 0.219E+02   -.994E+00 -.147E+01 -.219E+02   -.777E-03 0.266E-02 -.484E-02
   -.399E+01 0.580E+00 0.232E+02   0.399E+01 -.584E+00 -.232E+02   0.474E-02 -.875E-03 0.535E-03
   -.350E+01 -.144E+01 0.228E+02   0.350E+01 0.144E+01 -.228E+02   -.831E-02 0.506E-02 -.558E-04
   -.690E+01 -.358E+01 0.253E+02   0.691E+01 0.358E+01 -.253E+02   -.850E-02 0.238E-02 0.263E-02
   -.424E+01 -.340E+01 0.225E+02   0.425E+01 0.340E+01 -.225E+02   -.813E-02 0.182E-02 0.998E-02
   -.391E+01 -.506E+01 0.236E+02   0.391E+01 0.507E+01 -.236E+02   -.679E-02 -.251E-02 0.747E-02
   -.589E+00 -.127E+01 0.212E+02   0.589E+00 0.127E+01 -.213E+02   0.267E-02 -.878E-03 0.856E-02
   0.147E+01 0.360E+01 0.218E+02   -.147E+01 -.361E+01 -.218E+02   -.477E-02 0.514E-02 0.830E-02
   0.465E+01 0.728E+01 0.260E+02   -.465E+01 -.729E+01 -.260E+02   0.396E-02 0.352E-02 0.125E-01
   0.395E+00 0.620E+01 0.233E+02   -.387E+00 -.620E+01 -.233E+02   -.482E-02 0.521E-02 0.220E-03
   -.797E-01 0.103E+02 0.302E+02   0.915E-01 -.103E+02 -.302E+02   -.166E-01 0.797E-02 0.607E-02
   -.117E+01 0.228E+01 0.230E+02   0.117E+01 -.228E+01 -.230E+02   0.272E-02 -.343E-02 -.443E-02
   -.468E+01 0.583E+01 0.263E+02   0.468E+01 -.583E+01 -.263E+02   -.105E-01 0.183E-02 -.107E-01
   -.940E+00 -.252E+01 0.219E+02   0.936E+00 0.252E+01 -.219E+02   0.105E-01 -.258E-02 0.251E-02
   -.230E+01 0.896E+00 0.211E+02   0.229E+01 -.894E+00 -.211E+02   0.541E-04 0.208E-02 -.710E-02
   0.218E+00 -.157E+01 0.210E+02   -.221E+00 0.158E+01 -.210E+02   0.679E-02 -.411E-02 0.603E-02
   0.249E+01 0.180E+01 0.211E+02   -.249E+01 -.180E+01 -.211E+02   0.424E-02 0.918E-03 0.302E-02
   0.394E-01 -.203E-01 -.353E+03   -.429E-01 0.235E-01 0.353E+03   -.348E-02 0.222E-02 -.143E-02
   -.229E+03 0.156E+03 -.543E+03   0.279E+03 -.190E+03 0.546E+03   -.510E+02 0.347E+02 -.340E+01
   0.229E+03 -.156E+03 -.521E+03   -.279E+03 0.190E+03 0.518E+03   0.510E+02 -.347E+02 0.310E+01
 -----------------------------------------------------------------------------------------------
   -.249E-02 0.105E-01 0.311E+00   0.114E-12 -.114E-12 -.227E-12   0.272E-02 -.108E-01 -.310E+00
 
 
 POSITION                                       TOTAL-FORCE (eV/Angst)
 -----------------------------------------------------------------------------------
     11.98348      0.00342      0.01417         0.002918     -0.000697     -0.000426
     -0.34154      1.42665      0.01100        -0.001577      0.000129     -0.001963
      2.12355      0.00315      0.01249        -0.000701      0.007862     -0.003605
      2.12326      1.42653      0.00641         0.010080      0.001209     -0.002951
     10.75099      2.13819      0.01213         0.000335     -0.004893      0.000619
     -1.57382      3.56123      0.01110        -0.007069      0.005415     -0.000917
      0.89078      2.13854      0.00548         0.007334     -0.014863      0.004636
      0.89099      3.56147      0.00181        -0.012350     -0.001030      0.012676
      4.58864      0.00346      0.01135         0.004417     -0.015695     -0.002031
      4.58894      1.42623      0.00646        -0.019301      0.010996      0.016220
      9.51854      4.27281      0.01369         0.007011     -0.003762      0.000529
     -2.80632      5.69591      0.01434        -0.006313      0.003330      0.001100
      2.12300      4.27302      0.00000         0.019941     -0.003840      0.021980
      2.12335      5.69594      0.00581        -0.001503      0.009009     -0.001439
      7.05344      0.00333      0.01399         0.008242     -0.004492      0.000274
      7.05353      1.42635      0.01368        -0.002130      0.004581     -0.002685
      8.28610      6.40752      0.01601         0.003435     -0.001576     -0.000356
     -4.03885      7.83070      0.01636        -0.001781      0.001068      0.000286
      3.35586      6.40753      0.01007         0.003493      0.000007     -0.000563
      3.35599      7.83072      0.01320        -0.003456      0.000537     -0.000082
     -0.34146      4.27290      0.00723        -0.000966     -0.001555     -0.003499
     -0.34138      5.69591      0.00946        -0.008252      0.005015     -0.000488
      3.35624      2.13791      0.00222        -0.010113      0.009677      0.022025
      3.35573      3.56155      0.00139         0.010399     -0.013007      0.013934
     -1.57395      6.40758      0.01311         0.006634     -0.004283     -0.000301
     -1.57385      7.83068      0.01438        -0.004602      0.003808      0.000535
      5.82093      2.13784      0.01033         0.016157      0.004020     -0.001367
      5.82114      3.56097      0.01156        -0.004891      0.005838     -0.001809
      0.89092      6.40755      0.00907         0.004210      0.001441     -0.001415
      0.89106      7.83068      0.01235        -0.007186      0.002753      0.000691
      4.58871      4.27293      0.00850        -0.009819     -0.005926     -0.006820
      4.58852      5.69606      0.01149         0.001435      0.000892     -0.002295
      9.51845      0.00337      0.01490         0.004574     -0.004584      0.000523
      9.51855      1.42644      0.01438        -0.004897      0.006135      0.000056
      8.28593      2.13803      0.01453         0.005434     -0.003907      0.001083
      8.28613      3.56115      0.01464        -0.004199      0.001842      0.000528
      7.05356      4.27269      0.01457         0.003461     -0.001025      0.000394
      7.05362      5.69588      0.01553        -0.002313      0.001014      0.000329
      5.82112      6.40755      0.01489        -0.002149      0.001826      0.000599
      5.82102      7.83073      0.01579         0.002501      0.000633      0.000087
      7.05363      8.54227      0.01631        -0.004417      0.000619      0.001570
     -5.27149      9.96549      0.01495        -0.000858     -0.002432     -0.001096
     -2.80638      8.54234      0.01558         0.003452     -0.001764     -0.000378
     -2.80627      9.96553      0.01362        -0.004402      0.000222     -0.002493
     -0.34149      8.54239      0.01378         0.005854     -0.003770      0.000690
     -0.34138      9.96550      0.01354        -0.005898      0.000638     -0.000329
      2.12343      8.54232      0.01336         0.005614     -0.001554      0.001108
      2.12354      9.96544      0.01469        -0.006192      0.004218     -0.001540
      4.58846      8.54235      0.01505         0.003482     -0.002902      0.001262
      4.58853      9.96550      0.01517        -0.003417      0.003289      0.000637
      3.04930      2.68154      4.45449        -0.006733      0.005342      0.002270
      4.02070      2.02068      4.51892        -0.252097      0.171154     -0.048225
      2.07767      3.34267      4.39504         0.259168     -0.176961     -0.017569
 -----------------------------------------------------------------------------------
    total drift:                                0.000231     -0.000312      0.000661


--------------------------------------------------------------------------------------------------------



  FREE ENERGIE OF THE ION-ELECTRON SYSTEM (eV)
  ---------------------------------------------------
  free  energy   TOTEN  =      -470.60709286 eV

  energy  without entropy=     -470.60709286  energy(sigma->0) =     -470.60709286
 


--------------------------------------------------------------------------------------------------------


    POTLOK:  cpu time    0.3879: real time    0.3906


--------------------------------------------------------------------------------------------------------


     LOOP+:  cpu time  142.9439: real time  144.5114
    4ORBIT:  cpu time    0.0000: real time    0.0000

 total amount of memory used by VASP MPI-rank0   215378. kBytes
=======================================================================

   base      :      30000. kBytes
   nonl-proj :      57634. kBytes
   fftplans  :      45914. kBytes
   grid      :      67588. kBytes
   one-center:         43. kBytes
   wavefun   :      14199. kBytes
 
  
  
 General timing and accounting informations for this job:
 ========================================================
  
                  Total CPU time used (sec):      187.074
                            User time (sec):      173.620
                          System time (sec):       13.454
                         Elapsed time (sec):      190.027
  
                   Maximum memory used (kb):      589516.
                   Average memory used (kb):          N/A
  
                          Minor page faults:        63249
                          Major page faults:           98
                 Voluntary context switches:         3604
