 vasp.6.2.1 16May21 (build Nov 06 2021 14:46:37) complex                        
  
 executed on             LinuxIFC date 2025.03.03  17:45:54
 running on  112 total cores
 distrk:  each k-point on  112 cores,    1 groups
 distr:  one band on NCORE=   4 cores,   28 groups


--------------------------------------------------------------------------------------------------------


 INCAR:
   ALGO = Conjugate
   NCORE = 4
   ISMEAR = 0
   SIGMA = 0.01
   PREC = Accurate
   EDIFF = 1E-6
   ENCUT = 1000
   ISIF = 0
   GGA = RE
   IVDW = 11
   LWAVE = .FALSE.
   LCHARGE = .FALSE.
   SYMPREC = 1E-6

 POTCAR:    PAW_PBE C_h 06Feb2004                 
 POTCAR:    PAW_PBE O_h 06Feb2004                 
 -----------------------------------------------------------------------------
|                                                                             |
|           W    W    AA    RRRRR   N    N  II  N    N   GGGG   !!!           |
|           W    W   A  A   R    R  NN   N  II  NN   N  G    G  !!!           |
|           W    W  A    A  R    R  N N  N  II  N N  N  G       !!!           |
|           W WW W  AAAAAA  RRRRR   N  N N  II  N  N N  G  GGG   !            |
|           WW  WW  A    A  R   R   N   NN  II  N   NN  G    G                |
|           W    W  A    A  R    R  N    N  II  N    N   GGGG   !!!           |
|                                                                             |
|     For optimal performance we recommend to set                             |
|       NCORE = 2 up to number-of-cores-per-socket                            |
|     NCORE specifies how many cores store one orbital (NPAR=cpu/NCORE).      |
|     This setting can greatly improve the performance of VASP for DFT.       |
|     The default, NCORE=1 might be grossly inefficient on modern             |
|     multi-core architectures or massively parallel machines. Do your        |
|     own testing! More info at https://www.vasp.at/wiki/index.php/NCORE      |
|     Unfortunately you need to use the default for GW and RPA                |
|     calculations (for HF NCORE is supported but not extensively tested      |
|     yet).                                                                   |
|                                                                             |
 -----------------------------------------------------------------------------

 POTCAR:    PAW_PBE C_h 06Feb2004                 
   VRHFIN =C: s2p2                                                                                  
   LEXCH  = PE                                                                                      
   EATOM  =   147.1560 eV,   10.8157 Ry                                                             
                                                                                                    
   TITEL  = PAW_PBE C_h 06Feb2004                                                                   
   LULTRA =        F    use ultrasoft PP ?                                                          
   IUNSCR =        1    unscreen: 0-lin 1-nonlin 2-no                                               
   RPACOR =    0.800    partial core radius                                                         
   POMASS =   12.011; ZVAL   =    4.000    mass and valenz                                          
   RCORE  =    1.100    outmost cutoff radius                                                       
   RWIGS  =    1.630; RWIGS  =    0.863    wigner-seitz radius (au A)                               
   ENMAX  =  700.000; ENMIN  =  500.000 eV                                                          
   ICORE  =        2    local potential                                                             
   LCOR   =        T    correct aug charges                                                         
   LPAW   =        T    paw PP                                                                      
   EAUG   =  946.768                                                                                
   DEXC   =    0.000                                                                                
   RMAX   =    1.128    core radius for proj-oper                                                   
   RAUG   =    1.300    factor for augmentation sphere                                              
   RDEP   =    1.162    radius for radial grids                                                     
   RDEPT  =    1.088    core radius for aug-charge                                                  
                                                                                                    
   Atomic configuration                                                                             
    4 entries                                                                                       
     n  l   j            E        occ.                                                              
     1  0  0.50      -273.3789   2.0000                                                             
     2  0  0.50       -13.7508   2.0000                                                             
     2  1  0.50        -5.2854   2.0000                                                             
     3  2  1.50        -5.4423   0.0000                                                             
   Description                                                                                      
     l       E           TYP  RCUT    TYP  RCUT                                                     
     0    -13.7508458     23  1.100                                                                 
     0     -8.2022199     23  1.100                                                                 
     1     -5.2854383     23  1.100                                                                 
     1      1.1560700     23  1.100                                                                 
     2     -5.4423304      7  1.100                                                                 
  local pseudopotential read in
  partial core-charges read in
  partial kinetic energy density read in
  atomic valenz-charges read in
  non local Contribution for L=           0  read in
    real space projection operators read in
  non local Contribution for L=           0  read in
    real space projection operators read in
  non local Contribution for L=           1  read in
    real space projection operators read in
  non local Contribution for L=           1  read in
    real space projection operators read in
    PAW grid and wavefunctions read in
 
   number of l-projection  operators is LMAX  =           4
   number of lm-projection operators is LMMAX =           8
 
 POTCAR:    PAW_PBE O_h 06Feb2004                 
   VRHFIN =O: s2p4                                                                                  
   LEXCH  = PE                                                                                      
   EATOM  =   432.3788 eV,   31.7789 Ry                                                             
                                                                                                    
   TITEL  = PAW_PBE O_h 06Feb2004                                                                   
   LULTRA =        F    use ultrasoft PP ?                                                          
   IUNSCR =        1    unscreen: 0-lin 1-nonlin 2-no                                               
   RPACOR =    0.800    partial core radius                                                         
   POMASS =   16.000; ZVAL   =    6.000    mass and valenz                                          
   RCORE  =    1.100    outmost cutoff radius                                                       
   RWIGS  =    1.400; RWIGS  =    0.741    wigner-seitz radius (au A)                               
   ENMAX  =  700.000; ENMIN  =  500.000 eV                                                          
   ICORE  =        2    local potential                                                             
   LCOR   =        T    correct aug charges                                                         
   LPAW   =        T    paw PP                                                                      
   EAUG   =  888.804                                                                                
   DEXC   =    0.000                                                                                
   RMAX   =    1.128    core radius for proj-oper                                                   
   RAUG   =    1.300    factor for augmentation sphere                                              
   RDEP   =    1.125    radius for radial grids                                                     
   RDEPT  =    1.088    core radius for aug-charge                                                  
                                                                                                    
   Atomic configuration                                                                             
    4 entries                                                                                       
     n  l   j            E        occ.                                                              
     1  0  0.50      -514.6923   2.0000                                                             
     2  0  0.50       -23.9615   2.0000                                                             
     2  1  0.50        -9.0305   4.0000                                                             
     3  2  1.50        -9.5241   0.0000                                                             
   Description                                                                                      
     l       E           TYP  RCUT    TYP  RCUT                                                     
     0    -23.9615319     23  1.100                                                                 
     0    -25.3221145     23  1.100                                                                 
     1     -9.0304911     23  1.100                                                                 
     1     -5.4802209     23  1.100                                                                 
     2     -9.5240782      7  1.100                                                                 
  local pseudopotential read in
  partial core-charges read in
  partial kinetic energy density read in
  atomic valenz-charges read in
  non local Contribution for L=           0  read in
    real space projection operators read in
  non local Contribution for L=           0  read in
    real space projection operators read in
  non local Contribution for L=           1  read in
    real space projection operators read in
  non local Contribution for L=           1  read in
    real space projection operators read in
    PAW grid and wavefunctions read in
 
   number of l-projection  operators is LMAX  =           4
   number of lm-projection operators is LMMAX =           8
 
 -----------------------------------------------------------------------------
|                                                                             |
|               ----> ADVICE to this user running VASP <----                  |
|                                                                             |
|     You have a (more or less) 'large supercell' and for larger cells it     |
|     might be more efficient to use real-space projection operators.         |
|     Therefore, try LREAL= Auto in the INCAR file.                           |
|     Mind: For very accurate calculation, you might also keep the            |
|     reciprocal projection scheme (i.e. LREAL=.FALSE.).                      |
|                                                                             |
 -----------------------------------------------------------------------------

 -----------------------------------------------------------------------------
|                                                                             |
|               ----> ADVICE to this user running VASP <----                  |
|                                                                             |
|     You enforced a specific xc type in the INCAR file but a different       |
|     type was found in the POTCAR file.                                      |
|     I HOPE YOU KNOW WHAT YOU ARE DOING!                                     |
|                                                                             |
 -----------------------------------------------------------------------------

  PAW_PBE C_h 06Feb2004                 :
 energy of atom  1       EATOM= -147.1560
 kinetic energy error for atom=    0.0031 (will be added to EATOM!!)
  PAW_PBE O_h 06Feb2004                 :
 energy of atom  2       EATOM= -432.3788
 kinetic energy error for atom=    0.0171 (will be added to EATOM!!)
 
 
 POSCAR:  C  O
  positions in cartesian coordinates
  No initial velocities read in
 exchange correlation table for  LEXCH =       40
   RHO(1)=    0.500       N(1)  =     2000
   RHO(2)=  100.500       N(2)  =     4000
 


--------------------------------------------------------------------------------------------------------


 ion  position               nearest neighbor table
   1  0.972  0.000  0.001-  50 1.42   2 1.42  42 1.42
   2  0.039  0.134  0.001-   5 1.42   7 1.42   1 1.42
   3  0.172  0.000  0.001-  42 1.42  44 1.42   4 1.42
   4  0.239  0.134  0.000-   7 1.42   3 1.42  23 1.42
   5  0.972  0.200  0.001-   6 1.42   2 1.42  34 1.42
   6  0.039  0.334  0.001-   5 1.42  21 1.42  11 1.42
   7  0.172  0.200  0.000-   8 1.42   2 1.42   4 1.42
   8  0.239  0.334  0.000-  13 1.42   7 1.42  21 1.42
   9  0.372  0.000  0.001-  10 1.42  44 1.42  46 1.42
  10  0.439  0.134  0.000-  27 1.42   9 1.42  23 1.42
  11  0.972  0.400  0.001-  12 1.42  36 1.42   6 1.42
  12  0.039  0.534  0.001-  25 1.42  11 1.42  17 1.42
  13  0.372  0.400  0.000-   8 1.42  14 1.42  24 1.42
  14  0.439  0.534  0.000-  13 1.42  29 1.42  19 1.42
  15  0.572  0.000  0.001-  46 1.42  16 1.42  48 1.42
  16  0.639  0.134  0.001-  15 1.42  35 1.42  27 1.42
  17  0.972  0.600  0.001-  38 1.42  18 1.42  12 1.42
  18  0.039  0.734  0.001-  43 1.42  41 1.42  17 1.42
  19  0.572  0.600  0.001-  14 1.42  20 1.42  32 1.42
  20  0.639  0.734  0.001-  49 1.42  19 1.42  47 1.42
  21  0.172  0.400  0.000-  22 1.42   8 1.42   6 1.42
  22  0.239  0.534  0.000-  21 1.42  29 1.42  25 1.42
  23  0.372  0.200  0.000-  10 1.42   4 1.42  24 1.42
  24  0.439  0.334  0.000-  13 1.42  31 1.42  23 1.42
  25  0.172  0.600  0.001-  26 1.42  12 1.42  22 1.42
  26  0.239  0.734  0.001-  25 1.42  45 1.42  43 1.42
  27  0.572  0.200  0.001-  10 1.42  28 1.42  16 1.42
  28  0.639  0.334  0.001-  27 1.42  37 1.42  31 1.42
  29  0.372  0.600  0.000-  22 1.42  14 1.42  30 1.42
  30  0.439  0.734  0.001-  47 1.42  29 1.42  45 1.42
  31  0.572  0.400  0.000-  32 1.42  28 1.42  24 1.42
  32  0.639  0.534  0.001-  31 1.42  39 1.42  19 1.42
  33  0.772  0.000  0.001-  34 1.42  48 1.42  50 1.42
  34  0.839  0.134  0.001-  33 1.42   5 1.42  35 1.42
  35  0.772  0.200  0.001-  36 1.42  16 1.42  34 1.42
  36  0.839  0.334  0.001-  35 1.42  11 1.42  37 1.42
  37  0.772  0.400  0.001-  28 1.42  38 1.42  36 1.42
  38  0.839  0.534  0.001-  17 1.42  37 1.42  39 1.42
  39  0.772  0.600  0.001-  40 1.42  38 1.42  32 1.42
  40  0.839  0.734  0.001-  39 1.42  49 1.42  41 1.42
  41  0.972  0.800  0.001-  18 1.42  42 1.42  40 1.42
  42  0.039  0.934  0.001-   3 1.42  41 1.42   1 1.42
  43  0.172  0.800  0.001-  18 1.42  44 1.42  26 1.42
  44  0.239  0.934  0.001-   9 1.42  43 1.42   3 1.42
  45  0.372  0.800  0.001-  26 1.42  46 1.42  30 1.42
  46  0.439  0.934  0.001-  15 1.42  45 1.42   9 1.42
  47  0.572  0.800  0.001-  30 1.42  48 1.42  20 1.42
  48  0.639  0.934  0.001-  47 1.42  33 1.42  15 1.42
  49  0.772  0.800  0.001-  50 1.42  20 1.42  40 1.42
  50  0.839  0.934  0.001-  49 1.42   1 1.42  33 1.42
  51  0.373  0.251  0.297-  52 1.18  53 1.18
  52  0.421  0.189  0.301-  51 1.18
  53  0.325  0.313  0.294-  51 1.18
 
  LATTYP: Found a hexagonal cell.
 ALAT       =    12.3250000000
 C/A-ratio  =     1.6227180527
  
  Lattice vectors:
  
 A1 = (  12.3250000000,   0.0000000000,   0.0000000000)
 A2 = (  -6.1625000000,  10.6737631016,   0.0000000000)
 A3 = (   0.0000000000,   0.0000000000,  20.0000000000)


Analysis of symmetry for initial positions (statically):
=====================================================================
 Subroutine PRICEL returns:
 Original cell was already a primitive cell.
 

 Routine SETGRP: Setting up the symmetry group for a 
 hexagonal supercell.


 Subroutine GETGRP returns: Found  1 space group operations
 (whereof  1 operations were pure point group operations)
 out of a pool of 24 trial point group operations.


The static configuration has the point symmetry C_1 .


Analysis of symmetry for dynamics (positions and initial velocities):
=====================================================================
 Subroutine PRICEL returns:
 Original cell was already a primitive cell.
 

 Routine SETGRP: Setting up the symmetry group for a 
 hexagonal supercell.


 Subroutine GETGRP returns: Found  1 space group operations
 (whereof  1 operations were pure point group operations)
 out of a pool of 24 trial point group operations.


The dynamic configuration has the point symmetry C_1 .


 Subroutine INISYM returns: Found  1 space group operations
 (whereof  1 operations are pure point group operations),
 and found     1 'primitive' translations


----------------------------------------------------------------------------------------

                                     Primitive cell                                     

  volume of cell :    2631.0826

  direct lattice vectors                    reciprocal lattice vectors
    12.325000000  0.000000000  0.000000000     0.081135903  0.046843835  0.000000000
    -6.162500000 10.673763102  0.000000000     0.000000000  0.093687670  0.000000000
     0.000000000  0.000000000 20.000000000     0.000000000  0.000000000  0.050000000

  length of vectors
    12.325000000 12.325000000 20.000000000     0.093687670  0.093687670  0.050000000

  position of ions in fractional coordinates (direct lattice)
     0.972450841  0.000320818  0.000708389
     0.039118382  0.133659505  0.000550216
     0.172443627  0.000295449  0.000624535
     0.239096278  0.133647917  0.000320585
     0.972452058  0.200322012  0.000606523
     0.039128360  0.333643771  0.000555187
     0.172451764  0.200354552  0.000273959
     0.239124359  0.333665720  0.000090325
     0.372465565  0.000324403  0.000567391
     0.439137473  0.133619939  0.000322923
     0.972449824  0.400309362  0.000684513
     0.039124981  0.533636789  0.000716763
     0.372416176  0.400329481  0.000000000
     0.439099602  0.533638981  0.000290518
     0.572443676  0.000312125  0.000699475
     0.639110207  0.133631751  0.000684093
     0.972452703  0.600305653  0.000800361
     0.039124495  0.733640359  0.000818141
     0.572433471  0.600306242  0.000503618
     0.639111888  0.733641879  0.000659881
     0.172454630  0.400318228  0.000361306
     0.239120185  0.533636548  0.000473136
     0.372459750  0.200295993  0.000111246
     0.439107096  0.333673419  0.000069702
     0.172452155  0.600311506  0.000655425
     0.239123371  0.733638574  0.000718912
     0.572431082  0.200289171  0.000516621
     0.639112773  0.333618630  0.000577970
     0.372439808  0.600308022  0.000453556
     0.439116090  0.733637858  0.000617737
     0.572469358  0.400320504  0.000424897
     0.639119408  0.533650873  0.000574513
     0.772445723  0.000315427  0.000745201
     0.839116277  0.133640203  0.000719132
     0.772440513  0.200307432  0.000726291
     0.839120241  0.333635728  0.000731834
     0.772446320  0.400298367  0.000728722
     0.839118980  0.533633964  0.000776376
     0.772456143  0.600308173  0.000744639
     0.839115033  0.733643180  0.000789390
     0.972455313  0.800305582  0.000815291
     0.039114714  0.933643289  0.000747563
     0.172457971  0.800312211  0.000779216
     0.239134551  0.933647193  0.000681063
     0.372451396  0.800316674  0.000689249
     0.439124489  0.933644769  0.000676788
     0.572441101  0.800310054  0.000668168
     0.639115067  0.933638985  0.000734556
     0.772445098  0.800313187  0.000752577
     0.839116614  0.933644338  0.000758538
     0.373021009  0.251226878  0.297301779
     0.420879805  0.189313152  0.300522872
     0.325156981  0.313167186  0.294329035

  ion indices of the primitive-cell ions
   primitive index   ion index
                 1           1
                 2           2
                 3           3
                 4           4
                 5           5
                 6           6
                 7           7
                 8           8
                 9           9
                10          10
                11          11
                12          12
                13          13
                14          14
                15          15
                16          16
                17          17
                18          18
                19          19
                20          20
                21          21
                22          22
                23          23
                24          24
                25          25
                26          26
                27          27
                28          28
                29          29
                30          30
                31          31
                32          32
                33          33
                34          34
                35          35
                36          36
                37          37
                38          38
                39          39
                40          40
                41          41
                42          42
                43          43
                44          44
                45          45
                46          46
                47          47
                48          48
                49          49
                50          50
                51          51
                52          52
                53          53

----------------------------------------------------------------------------------------

 
 
 KPOINTS: auto                                    

Automatic generation of k-mesh.
 Grid dimensions read from file:
 generate k-points for:    1    1    1

 Generating k-lattice:

  Cartesian coordinates                     Fractional coordinates (reciprocal lattice)
     0.081135903  0.046843835  0.000000000     1.000000000 -0.000000000  0.000000000
     0.000000000  0.093687670  0.000000000     0.000000000  1.000000000  0.000000000
     0.000000000  0.000000000  0.050000000     0.000000000  0.000000000  1.000000000

  Length of vectors
     0.093687670  0.093687670  0.050000000

  Shift w.r.t. Gamma in fractional coordinates (k-lattice)
     0.000000000  0.000000000  0.000000000

 
 Subroutine IBZKPT returns following result:
 ===========================================
 
 Found      1 irreducible k-points:
 
 Following reciprocal coordinates:
            Coordinates               Weight
  0.000000  0.000000  0.000000      1.000000
 
 Following cartesian coordinates:
            Coordinates               Weight
  0.000000  0.000000  0.000000      1.000000
 


--------------------------------------------------------------------------------------------------------




 Dimension of arrays:
   k-points           NKPTS =      1   k-points in BZ     NKDIM =      1   number of bands    NBANDS=    140
   number of dos      NEDOS =    301   number of ions     NIONS =     53
   non local maximal  LDIM  =      4   non local SUM 2l+1 LMDIM =      8
   total plane-waves  NPLWV = ******
   max r-space proj   IRMAX =      1   max aug-charges    IRDMAX=   9736
   dimension x,y,z NGX =   128 NGY =  128 NGZ =  210
   dimension x,y,z NGXF=   256 NGYF=  256 NGZF=  420
   support grid    NGXF=   256 NGYF=  256 NGZF=  420
   ions per type =              51   2
   NGX,Y,Z   is equivalent  to a cutoff of  17.27, 17.27, 17.46 a.u.
   NGXF,Y,Z  is equivalent  to a cutoff of  34.53, 34.53, 34.91 a.u.

 SYSTEM =  unknown system                          
 POSCAR =   C  O                                   

 Startparameter for this run:
   NWRITE =      2    write-flag & timer
   PREC   = accura    normal or accurate (medium, high low for compatibility)
   ISTART =      0    job   : 0-new  1-cont  2-samecut
   ICHARG =      2    charge: 1-file 2-atom 10-const
   ISPIN  =      1    spin polarized calculation?
   LNONCOLLINEAR =      F non collinear calculations
   LSORBIT =      F    spin-orbit coupling
   INIWAV =      1    electr: 0-lowe 1-rand  2-diag
   LASPH  =      F    aspherical Exc in radial PAW
 Electronic Relaxation 1
   ENCUT  = 1000.0 eV  73.50 Ry    8.57 a.u.  31.78 31.78 51.57*2*pi/ulx,y,z
   ENINI  = 1000.0     initial cutoff
   ENAUG  =  946.8 eV  augmentation charge cutoff
   NELM   =     60;   NELMIN=  2; NELMDL= -5     # of ELM steps 
   EDIFF  = 0.1E-05   stopping-criterion for ELM
   LREAL  =      F    real-space projection
   NLSPLINE    = F    spline interpolate recip. space projectors
   LCOMPAT=      F    compatible to vasp.4.4
   GGA_COMPAT  = T    GGA compatible to vasp.4.4-vasp.4.6
   LMAXPAW     = -100 max onsite density
   LMAXMIX     =    2 max onsite mixed and CHGCAR
   VOSKOWN=      0    Vosko Wilk Nusair interpolation
   ROPT   =    0.00000   0.00000
 Ionic relaxation
   EDIFFG = 0.1E-04   stopping-criterion for IOM
   NSW    =      0    number of steps for IOM
   NBLOCK =      1;   KBLOCK =      1    inner block; outer block 
   IBRION =     -1    ionic relax: 0-MD 1-quasi-New 2-CG
   NFREE  =      0    steps in history (QN), initial steepest desc. (CG)
   ISIF   =      0    stress and relaxation
   IWAVPR =     10    prediction:  0-non 1-charg 2-wave 3-comb
   ISYM   =      2    0-nonsym 1-usesym 2-fastsym
   LCORR  =      T    Harris-Foulkes like correction to forces

   POTIM  = 0.5000    time-step for ionic-motion
   TEIN   =    0.0    initial temperature
   TEBEG  =    0.0;   TEEND  =   0.0 temperature during run
   SMASS  =  -3.00    Nose mass-parameter (am)
   estimated Nose-frequenzy (Omega)   =  0.10E-29 period in steps = 0.13E+47 mass=  -0.347E-26a.u.
   SCALEE = 1.0000    scale energy and forces
   NPACO  =    256;   APACO  = 16.0  distance and # of slots for P.C.
   PSTRESS=    0.0 pullay stress

  Mass of Ions in am
   POMASS =  12.01 16.00
  Ionic Valenz
   ZVAL   =   4.00  6.00
  Atomic Wigner-Seitz radii
   RWIGS  =  -1.00 -1.00
  virtual crystal weights 
   VCA    =   1.00  1.00
   NELECT =     216.0000    total number of electrons
   NUPDOWN=      -1.0000    fix difference up-down

 DOS related values:
   EMIN   =  10.00;   EMAX   =-10.00  energy-range for DOS
   EFERMI =   0.00
   ISMEAR =     0;   SIGMA  =   0.01  broadening in eV -4-tet -1-fermi 0-gaus

 Electronic relaxation 2 (details)
   IALGO  =     58    algorithm
   LDIAG  =      T    sub-space diagonalisation (order eigenvalues)
   LSUBROT=      F    optimize rotation matrix (better conditioning)
   TURBO    =      0    0=normal 1=particle mesh
   IRESTART =      0    0=no restart 2=restart with 2 vectors
   NREBOOT  =      0    no. of reboots
   NMIN     =      0    reboot dimension
   EREF     =   0.00    reference energy to select bands
   IMIX   =      4    mixing-type and parameters
     AMIX     =   0.40;   BMIX     =  1.00
     AMIX_MAG =   1.60;   BMIX_MAG =  1.00
     AMIN     =   0.10
     WC   =   100.;   INIMIX=   1;  MIXPRE=   1;  MAXMIX= -45

 Intra band minimization:
   WEIMIN = 0.0000     energy-eigenvalue tresh-hold
   EBREAK =  0.18E-08  absolut break condition
   DEPER  =   0.30     relativ break condition  

   TIME   =   0.40     timestep for ELM

  volume/ion in A,a.u.               =      49.64       335.01
  Fermi-wavevector in a.u.,A,eV,Ry     =   0.711510  1.344560  6.887909  0.506247
  Thomas-Fermi vector in A             =   1.798641
 
 Write flags
   LWAVE        =      F    write WAVECAR
   LDOWNSAMPLE  =      F    k-point downsampling of WAVECAR
   LCHARG       =      T    write CHGCAR
   LVTOT        =      F    write LOCPOT, total local potential
   LVHAR        =      F    write LOCPOT, Hartree potential only
   LELF         =      F    write electronic localiz. function (ELF)
   LORBIT       =      0    0 simple, 1 ext, 2 COOP (PROOUT), +10 PAW based schemes


 Dipole corrections
   LMONO  =      F    monopole corrections only (constant potential shift)
   LDIPOL =      F    correct potential (dipole corrections)
   IDIPOL =      0    1-x, 2-y, 3-z, 4-all directions 
   EPSILON=  1.0000000 bulk dielectric constant

 Exchange correlation treatment:
   GGA     =    RE    GGA type
   LEXCH   =    40    internal setting for exchange type
   VOSKOWN=      0    Vosko Wilk Nusair interpolation
   LHFCALC =     F    Hartree Fock is set to
   LHFONE  =     F    Hartree Fock one center treatment
   AEXX    =    0.0000 exact exchange contribution

 Linear response parameters
   LEPSILON=     F    determine dielectric tensor
   LRPA    =     F    only Hartree local field effects (RPA)
   LNABLA  =     F    use nabla operator in PAW spheres
   LVEL    =     F    velocity operator in full k-point grid
   LINTERFAST=   F  fast interpolation
   KINTER  =     0    interpolate to denser k-point grid
   CSHIFT  =0.1000    complex shift for real part using Kramers Kronig
   OMEGAMAX=  -1.0    maximum frequency
   DEG_THRESHOLD= 0.2000000E-02 threshold for treating states as degnerate
   RTIME   =   -0.100 relaxation time in fs
  (WPLASMAI=    0.000 imaginary part of plasma frequency in eV, 0.658/RTIME)
   DFIELD  = 0.0000000 0.0000000 0.0000000 field for delta impulse in time
 
 Orbital magnetization related:
   ORBITALMAG=     F  switch on orbital magnetization
   LCHIMAG   =     F  perturbation theory with respect to B field
   DQ        =  0.001000  dq finite difference perturbation B field
   LLRAUG    =     F  two centre corrections for induced B field



--------------------------------------------------------------------------------------------------------


 Static calculation
 charge density and potential will be updated during run
 non-spin polarized calculation
 Conjugate gradient for all bands (Freysoldt, et al. PRB 79, 241103 (2009))
 preconditioned conjugated gradient                                        
 perform sub-space diagonalisation
    before iterative eigenvector-optimisation
 modified Broyden-mixing scheme, WC =      100.0
 initial mixing is a Kerker type mixing with AMIX =  0.4000 and BMIX =      1.0000
 Hartree-type preconditioning will be used
 using additional bands           32
 reciprocal scheme for non local part
 use partial core corrections
 no Harris-corrections to forces 
 use gradient corrections 
 use of overlap-Matrix (Vanderbilt PP)
 Gauss-broadening in eV      SIGMA  =   0.01


--------------------------------------------------------------------------------------------------------


  energy-cutoff  :     1000.00
  volume of cell :     2631.08
      direct lattice vectors                 reciprocal lattice vectors
    12.325000000  0.000000000  0.000000000     0.081135903  0.046843835  0.000000000
    -6.162500000 10.673763102  0.000000000     0.000000000  0.093687670  0.000000000
     0.000000000  0.000000000 20.000000000     0.000000000  0.000000000  0.050000000

  length of vectors
    12.325000000 12.325000000 20.000000000     0.093687670  0.093687670  0.050000000


 
 k-points in units of 2pi/SCALE and weight: auto                                    
   0.00000000  0.00000000  0.00000000       1.000
 
 k-points in reciprocal lattice and weights: auto                                    
   0.00000000  0.00000000  0.00000000       1.000
 
 position of ions in fractional coordinates (direct lattice) 
   0.97245084  0.00032082  0.00070839
   0.03911838  0.13365950  0.00055022
   0.17244363  0.00029545  0.00062454
   0.23909628  0.13364792  0.00032058
   0.97245206  0.20032201  0.00060652
   0.03912836  0.33364377  0.00055519
   0.17245176  0.20035455  0.00027396
   0.23912436  0.33366572  0.00009033
   0.37246557  0.00032440  0.00056739
   0.43913747  0.13361994  0.00032292
   0.97244982  0.40030936  0.00068451
   0.03912498  0.53363679  0.00071676
   0.37241618  0.40032948  0.00000000
   0.43909960  0.53363898  0.00029052
   0.57244368  0.00031213  0.00069947
   0.63911021  0.13363175  0.00068409
   0.97245270  0.60030565  0.00080036
   0.03912449  0.73364036  0.00081814
   0.57243347  0.60030624  0.00050362
   0.63911189  0.73364188  0.00065988
   0.17245463  0.40031823  0.00036131
   0.23912018  0.53363655  0.00047314
   0.37245975  0.20029599  0.00011125
   0.43910710  0.33367342  0.00006970
   0.17245216  0.60031151  0.00065542
   0.23912337  0.73363857  0.00071891
   0.57243108  0.20028917  0.00051662
   0.63911277  0.33361863  0.00057797
   0.37243981  0.60030802  0.00045356
   0.43911609  0.73363786  0.00061774
   0.57246936  0.40032050  0.00042490
   0.63911941  0.53365087  0.00057451
   0.77244572  0.00031543  0.00074520
   0.83911628  0.13364020  0.00071913
   0.77244051  0.20030743  0.00072629
   0.83912024  0.33363573  0.00073183
   0.77244632  0.40029837  0.00072872
   0.83911898  0.53363396  0.00077638
   0.77245614  0.60030817  0.00074464
   0.83911503  0.73364318  0.00078939
   0.97245531  0.80030558  0.00081529
   0.03911471  0.93364329  0.00074756
   0.17245797  0.80031221  0.00077922
   0.23913455  0.93364719  0.00068106
   0.37245140  0.80031667  0.00068925
   0.43912449  0.93364477  0.00067679
   0.57244110  0.80031005  0.00066817
   0.63911507  0.93363899  0.00073456
   0.77244510  0.80031319  0.00075258
   0.83911661  0.93364434  0.00075854
   0.37302101  0.25122688  0.29730178
   0.42087980  0.18931315  0.30052287
   0.32515698  0.31316719  0.29432904
 
 position of ions in cartesian coordinates  (Angst):
  11.98347958  0.00342433  0.01416777
  -0.34154264  1.42664989  0.01100432
   2.12354700  0.00315355  0.01249070
   2.12325634  1.42652621  0.00641170
  10.75098721  2.13818970  0.01213047
  -1.57382270  3.56123457  0.01110375
   0.89078307  2.13853702  0.00547917
   0.89099273  3.56146885  0.00180651
   4.58863896  0.00346260  0.01134782
   4.58893648  1.42622757  0.00645846
   9.51853763  4.27280730  0.01369027
  -2.80632132  5.69591267  0.01433526
   2.12299894  4.27302204  0.00000000
   2.12335237  5.69593607  0.00581036
   7.05344483  0.00333155  0.01398950
   7.05352764  1.42635365  0.01368187
   8.28609598  6.40752033  0.01600723
  -4.03884931  7.83070339  0.01636283
   3.35585531  6.40752662  0.01007237
   3.35598594  7.83071962  0.01319763
  -0.34145776  4.27290193  0.00722612
  -0.34137895  5.69591010  0.00946273
   3.35624236  2.13791198  0.00222492
   3.35573251  3.56155103  0.00139405
  -1.57394684  6.40758280  0.01310850
  -1.57385216  7.83068434  0.01437823
   5.82093107  2.13783916  0.01033241
   5.82114012  3.56096622  0.01155939
   0.89092245  6.40754561  0.00907111
   0.89106251  7.83067670  0.01235474
   4.58870974  4.27292622  0.00849795
   4.58852320  5.69606300  0.01149026
   9.51844972  0.00336679  0.01490402
   9.51855036  1.42644387  0.01438264
   8.28593477  2.13803408  0.01452582
   8.28612680  3.56114872  0.01463668
   7.05356221  4.27268994  0.01457444
   7.05362213  5.69588251  0.01552751
   5.82112285  6.40754723  0.01489279
   5.82101669  7.83073350  0.01578780
   7.05362858  8.54227219  0.01630582
  -5.27148792  9.96548729  0.01495127
  -2.80637951  8.54234295  0.01558431
  -2.80626749  9.96552896  0.01362126
  -0.34148805  8.54239058  0.01378498
  -0.34137657  9.96550309  0.01353576
   2.12342586  8.54231992  0.01336337
   2.12354296  9.96544135  0.01469111
   4.58845581  8.54235337  0.01505154
   4.58852904  9.96549848  0.01517076
   3.04929830  2.68153618  5.94603558
   4.02070129  2.02068374  6.01045744
   2.07766701  3.34267235  5.88658071
 


--------------------------------------------------------------------------------------------------------


 k-point   1 :   0.0000 0.0000 0.0000  plane waves:  189031

 maximum and minimum number of plane-waves per node :     47262    47254

 maximum number of plane-waves:    189031
 maximum index in each direction: 
   IXMAX=   31   IYMAX=   31   IZMAX=   51
   IXMIN=  -31   IYMIN=  -31   IZMIN=  -51


 parallel 3D FFT for wavefunctions:
    minimum data exchange during FFTs selected (reduces bandwidth)
 parallel 3D FFT for charge:
    minimum data exchange during FFTs selected (reduces bandwidth)


 total amount of memory used by VASP MPI-rank0   175916. kBytes
=======================================================================

   base      :      30000. kBytes
   nonl-proj :      46129. kBytes
   fftplans  :      35778. kBytes
   grid      :      52596. kBytes
   one-center:         43. kBytes
   wavefun   :      11370. kBytes
 
     INWAV:  cpu time    0.0000: real time    0.0000
 Broyden mixing: mesh for mixing (old mesh)
   NGX = 63   NGY = 63   NGZ =103
  (NGX  =256   NGY  =256   NGZ  =420)
  gives a total of 408807 points

 initial charge density was supplied:
 charge density of overlapping atoms calculated
 number of electron     216.0000000 magnetization 
 keeping initial charge density in first step


--------------------------------------------------------------------------------------------------------


 Maximum index for augmentation-charges          459 (set IRDMAX)


--------------------------------------------------------------------------------------------------------


 First call to EWALD:  gamma=   0.128
 Maximum number of real-space cells 3x 3x 2
 Maximum number of reciprocal cells 3x 3x 4

    FEWALD:  cpu time    0.0027: real time    0.0028


--------------------------------------- Iteration      1(   1)  ---------------------------------------


    POTLOK:  cpu time    0.2922: real time    0.2950
    SETDIJ:  cpu time    0.0052: real time    0.0055
    TRIAL :  cpu time    4.1896: real time    4.2359
    CORREC:  cpu time    0.0005: real time    0.0005
    --------------------------------------------
      LOOP:  cpu time    4.4930: real time    4.5500

 eigenvalue-minimisations  :   280
 total energy-change (2. order) : 0.2670944E+04  (-0.1113838E+05)
 number of electron     216.0000000 magnetization 
 augmentation part      216.0000000 magnetization 

 Free energy of the ion-electron system (eV)
  ---------------------------------------------------
  alpha Z        PSCENC =        59.93625244
  Ewald energy   TEWEN  =     31026.62845738
  -Hartree energ DENC   =    -37202.07702306
  -exchange      EXHF   =         0.00000000
  -V(xc)+E(xc)   XCENC  =       415.89445770
  PAW double counting   =      6538.03749920    -6258.26020123
  entropy T*S    EENTRO =        -0.00000340
  eigenvalues    EBANDS =      -273.52498927
  atomic energy  EATOM  =      8364.30921166
  ---------------------------------------------------
  free energy    TOTEN  =      2670.94366142 eV

  energy without entropy =     2670.94366482  energy(sigma->0) =     2670.94366312


--------------------------------------------------------------------------------------------------------




--------------------------------------- Iteration      1(   2)  ---------------------------------------


    TRIAL :  cpu time    6.0591: real time    6.1204
    CORREC:  cpu time    0.0001: real time    0.0001
    --------------------------------------------
      LOOP:  cpu time    6.1040: real time    6.1662

 eigenvalue-minimisations  :   448
 total energy-change (2. order) :-0.2441737E+04  (-0.2297357E+04)
 number of electron     216.0000000 magnetization 
 augmentation part      216.0000000 magnetization 

 Free energy of the ion-electron system (eV)
  ---------------------------------------------------
  alpha Z        PSCENC =        59.93625244
  Ewald energy   TEWEN  =     31026.62845738
  -Hartree energ DENC   =    -37202.07702306
  -exchange      EXHF   =         0.00000000
  -V(xc)+E(xc)   XCENC  =       415.89445770
  PAW double counting   =      6538.03749920    -6258.26020123
  entropy T*S    EENTRO =        -0.00000000
  eigenvalues    EBANDS =     -2715.26192071
  atomic energy  EATOM  =      8364.30921166
  ---------------------------------------------------
  free energy    TOTEN  =       229.20673338 eV

  energy without entropy =      229.20673338  energy(sigma->0) =      229.20673338


--------------------------------------------------------------------------------------------------------




--------------------------------------- Iteration      1(   3)  ---------------------------------------


    TRIAL :  cpu time    4.8091: real time    4.8613
    CORREC:  cpu time    0.0001: real time    0.0001
    --------------------------------------------
      LOOP:  cpu time    4.8875: real time    4.9419

 eigenvalue-minimisations  :   336
 total energy-change (2. order) :-0.6905128E+03  (-0.6867806E+03)
 number of electron     216.0000000 magnetization 
 augmentation part      216.0000000 magnetization 

 Free energy of the ion-electron system (eV)
  ---------------------------------------------------
  alpha Z        PSCENC =        59.93625244
  Ewald energy   TEWEN  =     31026.62845738
  -Hartree energ DENC   =    -37202.07702306
  -exchange      EXHF   =         0.00000000
  -V(xc)+E(xc)   XCENC  =       415.89445770
  PAW double counting   =      6538.03749920    -6258.26020123
  entropy T*S    EENTRO =        -0.00000000
  eigenvalues    EBANDS =     -3405.77473712
  atomic energy  EATOM  =      8364.30921166
  ---------------------------------------------------
  free energy    TOTEN  =      -461.30608303 eV

  energy without entropy =     -461.30608303  energy(sigma->0) =     -461.30608303


--------------------------------------------------------------------------------------------------------




--------------------------------------- Iteration      1(   4)  ---------------------------------------


    TRIAL :  cpu time    5.4087: real time    5.4817
    CORREC:  cpu time    0.0001: real time    0.0001
    --------------------------------------------
      LOOP:  cpu time    5.4855: real time    5.5622

 eigenvalue-minimisations  :   392
 total energy-change (2. order) :-0.3655653E+02  (-0.3640978E+02)
 number of electron     216.0000000 magnetization 
 augmentation part      216.0000000 magnetization 

 Free energy of the ion-electron system (eV)
  ---------------------------------------------------
  alpha Z        PSCENC =        59.93625244
  Ewald energy   TEWEN  =     31026.62845738
  -Hartree energ DENC   =    -37202.07702306
  -exchange      EXHF   =         0.00000000
  -V(xc)+E(xc)   XCENC  =       415.89445770
  PAW double counting   =      6538.03749920    -6258.26020123
  entropy T*S    EENTRO =        -0.00000000
  eigenvalues    EBANDS =     -3442.33126622
  atomic energy  EATOM  =      8364.30921166
  ---------------------------------------------------
  free energy    TOTEN  =      -497.86261213 eV

  energy without entropy =     -497.86261213  energy(sigma->0) =     -497.86261213


--------------------------------------------------------------------------------------------------------




--------------------------------------- Iteration      1(   5)  ---------------------------------------


    TRIAL :  cpu time    5.4245: real time    5.4792
    CORREC:  cpu time    0.0001: real time    0.0001
    CHARGE:  cpu time    0.2444: real time    0.2523
    --------------------------------------------
      LOOP:  cpu time    5.7220: real time    5.7860

 eigenvalue-minimisations  :   392
 total energy-change (2. order) :-0.7525246E+00  (-0.7494726E+00)
 number of electron     216.0000000 magnetization 
 augmentation part       -0.3143359 magnetization 

 Free energy of the ion-electron system (eV)
  ---------------------------------------------------
  alpha Z        PSCENC =        59.93625244
  Ewald energy   TEWEN  =     31026.62845738
  -Hartree energ DENC   =    -37202.07702306
  -exchange      EXHF   =         0.00000000
  -V(xc)+E(xc)   XCENC  =       415.89445770
  PAW double counting   =      6538.03749920    -6258.26020123
  entropy T*S    EENTRO =        -0.00000000
  eigenvalues    EBANDS =     -3443.08379082
  atomic energy  EATOM  =      8364.30921166
  ---------------------------------------------------
  free energy    TOTEN  =      -498.61513673 eV

  energy without entropy =     -498.61513673  energy(sigma->0) =     -498.61513673


--------------------------------------------------------------------------------------------------------




--------------------------------------- Iteration      1(   6)  ---------------------------------------


    POTLOK:  cpu time    0.2718: real time    0.2747
    SETDIJ:  cpu time    0.0043: real time    0.0045
    TRIAL :  cpu time    2.0063: real time    2.0279
    CORREC:  cpu time    0.7974: real time    0.8085
    CHARGE:  cpu time    0.2342: real time    0.2362
    --------------------------------------------
      LOOP:  cpu time    3.3496: real time    3.4023

 eigenvalue-minimisations  :     0
 total energy-change (2. order) : 0.4856071E+02  (-0.1435130E+02)
 number of electron     216.0000000 magnetization 
 augmentation part       -0.4058346 magnetization 

 Free energy of the ion-electron system (eV)
  ---------------------------------------------------
  alpha Z        PSCENC =        59.93625244
  Ewald energy   TEWEN  =     31026.62845738
  -Hartree energ DENC   =    -38598.29853255
  -exchange      EXHF   =         0.00000000
  -V(xc)+E(xc)   XCENC  =       462.89345138
  PAW double counting   =    104393.77900856  -104119.34799940
  entropy T*S    EENTRO =        -0.00000000
  eigenvalues    EBANDS =     -2039.95427340
  atomic energy  EATOM  =      8364.30921166
  ---------------------------------------------------
  free energy    TOTEN  =      -450.05442393 eV

  energy without entropy =     -450.05442393  energy(sigma->0) =     -450.05442393


--------------------------------------------------------------------------------------------------------




--------------------------------------- Iteration      1(   7)  ---------------------------------------


    POTLOK:  cpu time    0.2732: real time    0.2755
    SETDIJ:  cpu time    0.0030: real time    0.0030
    TRIAL :  cpu time    2.0057: real time    2.0261
    CORREC:  cpu time    0.8013: real time    0.8098
    CHARGE:  cpu time    0.2341: real time    0.2362
    --------------------------------------------
      LOOP:  cpu time    3.3592: real time    3.3947

 eigenvalue-minimisations  :     0
 total energy-change (2. order) :-0.1438893E+02  (-0.1754739E+01)
 number of electron     216.0000000 magnetization 
 augmentation part       -0.4514728 magnetization 

 Free energy of the ion-electron system (eV)
  ---------------------------------------------------
  alpha Z        PSCENC =        59.93625244
  Ewald energy   TEWEN  =     31026.62845738
  -Hartree energ DENC   =    -38118.83098248
  -exchange      EXHF   =         0.00000000
  -V(xc)+E(xc)   XCENC  =       446.78877487
  PAW double counting   =    120506.93141503  -120230.44423000
  entropy T*S    EENTRO =        -0.00000000
  eigenvalues    EBANDS =     -2519.76225081
  atomic energy  EATOM  =      8364.30921166
  ---------------------------------------------------
  free energy    TOTEN  =      -464.44335191 eV

  energy without entropy =     -464.44335191  energy(sigma->0) =     -464.44335191


--------------------------------------------------------------------------------------------------------




--------------------------------------- Iteration      1(   8)  ---------------------------------------


    POTLOK:  cpu time    0.2742: real time    0.2762
    SETDIJ:  cpu time    0.0030: real time    0.0030
    TRIAL :  cpu time    2.0035: real time    2.0241
    CORREC:  cpu time    0.8026: real time    0.8099
    CHARGE:  cpu time    0.2329: real time    0.2348
    --------------------------------------------
      LOOP:  cpu time    3.3726: real time    3.4074

 eigenvalue-minimisations  :     0
 total energy-change (2. order) :-0.1753596E+01  (-0.4565564E+00)
 number of electron     216.0000000 magnetization 
 augmentation part       -0.4671096 magnetization 

 Free energy of the ion-electron system (eV)
  ---------------------------------------------------
  alpha Z        PSCENC =        59.93625244
  Ewald energy   TEWEN  =     31026.62845738
  -Hartree energ DENC   =    -38088.45191309
  -exchange      EXHF   =         0.00000000
  -V(xc)+E(xc)   XCENC  =       446.17534002
  PAW double counting   =    124705.00102783  -124428.22007254
  entropy T*S    EENTRO =        -0.00000000
  eigenvalues    EBANDS =     -2551.57525138
  atomic energy  EATOM  =      8364.30921166
  ---------------------------------------------------
  free energy    TOTEN  =      -466.19694767 eV

  energy without entropy =     -466.19694767  energy(sigma->0) =     -466.19694767


--------------------------------------------------------------------------------------------------------




--------------------------------------- Iteration      1(   9)  ---------------------------------------


    POTLOK:  cpu time    0.2739: real time    0.2760
    SETDIJ:  cpu time    0.0030: real time    0.0031
    TRIAL :  cpu time    2.0029: real time    2.0238
    CORREC:  cpu time    0.7999: real time    0.8070
    CHARGE:  cpu time    0.2341: real time    0.2360
    --------------------------------------------
      LOOP:  cpu time    3.3815: real time    3.4488

 eigenvalue-minimisations  :     0
 total energy-change (2. order) :-0.4563518E+00  (-0.1423133E+00)
 number of electron     216.0000000 magnetization 
 augmentation part       -0.4739344 magnetization 

 Free energy of the ion-electron system (eV)
  ---------------------------------------------------
  alpha Z        PSCENC =        59.93625244
  Ewald energy   TEWEN  =     31026.62845738
  -Hartree energ DENC   =    -38104.42780590
  -exchange      EXHF   =         0.00000000
  -V(xc)+E(xc)   XCENC  =       446.36850401
  PAW double counting   =    127209.40549366  -126932.52283343
  entropy T*S    EENTRO =        -0.00000000
  eigenvalues    EBANDS =     -2536.35057931
  atomic energy  EATOM  =      8364.30921166
  ---------------------------------------------------
  free energy    TOTEN  =      -466.65329949 eV

  energy without entropy =     -466.65329949  energy(sigma->0) =     -466.65329949


--------------------------------------------------------------------------------------------------------




--------------------------------------- Iteration      1(  10)  ---------------------------------------


    POTLOK:  cpu time    0.2714: real time    0.2735
    SETDIJ:  cpu time    0.0030: real time    0.0030
    TRIAL :  cpu time    2.0112: real time    2.0367
    CORREC:  cpu time    0.7992: real time    0.8063
    CHARGE:  cpu time    0.2337: real time    0.2356
    --------------------------------------------
      LOOP:  cpu time    3.3680: real time    3.4083

 eigenvalue-minimisations  :     0
 total energy-change (2. order) :-0.1420748E+00  (-0.5540745E-01)
 number of electron     216.0000000 magnetization 
 augmentation part       -0.4746955 magnetization 

 Free energy of the ion-electron system (eV)
  ---------------------------------------------------
  alpha Z        PSCENC =        59.93625244
  Ewald energy   TEWEN  =     31026.62845738
  -Hartree energ DENC   =    -38105.87956650
  -exchange      EXHF   =         0.00000000
  -V(xc)+E(xc)   XCENC  =       446.29298198
  PAW double counting   =    127438.40473862  -127161.46188932
  entropy T*S    EENTRO =        -0.00000000
  eigenvalues    EBANDS =     -2535.02556056
  atomic energy  EATOM  =      8364.30921166
  ---------------------------------------------------
  free energy    TOTEN  =      -466.79537429 eV

  energy without entropy =     -466.79537429  energy(sigma->0) =     -466.79537429


--------------------------------------------------------------------------------------------------------




--------------------------------------- Iteration      1(  11)  ---------------------------------------


    POTLOK:  cpu time    0.2743: real time    0.2763
    SETDIJ:  cpu time    0.0030: real time    0.0030
    TRIAL :  cpu time    2.0036: real time    2.0243
    CORREC:  cpu time    0.8015: real time    0.8086
    CHARGE:  cpu time    0.2333: real time    0.2352
    --------------------------------------------
      LOOP:  cpu time    3.3834: real time    3.4183

 eigenvalue-minimisations  :     0
 total energy-change (2. order) :-0.5525785E-01  (-0.2235276E-01)
 number of electron     216.0000000 magnetization 
 augmentation part       -0.4744697 magnetization 

 Free energy of the ion-electron system (eV)
  ---------------------------------------------------
  alpha Z        PSCENC =        59.93625244
  Ewald energy   TEWEN  =     31026.62845738
  -Hartree energ DENC   =    -38102.50797785
  -exchange      EXHF   =         0.00000000
  -V(xc)+E(xc)   XCENC  =       446.23664094
  PAW double counting   =    126847.50014236  -126570.55878190
  entropy T*S    EENTRO =        -0.00000000
  eigenvalues    EBANDS =     -2538.39457716
  atomic energy  EATOM  =      8364.30921166
  ---------------------------------------------------
  free energy    TOTEN  =      -466.85063213 eV

  energy without entropy =     -466.85063213  energy(sigma->0) =     -466.85063213


--------------------------------------------------------------------------------------------------------




--------------------------------------- Iteration      1(  12)  ---------------------------------------


    POTLOK:  cpu time    0.2730: real time    0.2749
    SETDIJ:  cpu time    0.0029: real time    0.0029
    TRIAL :  cpu time    2.0039: real time    2.0245
    CORREC:  cpu time    0.8041: real time    0.8113
    CHARGE:  cpu time    0.2331: real time    0.2351
    --------------------------------------------
      LOOP:  cpu time    3.3504: real time    3.3931

 eigenvalue-minimisations  :     0
 total energy-change (2. order) :-0.2225215E-01  (-0.7940064E-02)
 number of electron     216.0000000 magnetization 
 augmentation part       -0.4747309 magnetization 

 Free energy of the ion-electron system (eV)
  ---------------------------------------------------
  alpha Z        PSCENC =        59.93625244
  Ewald energy   TEWEN  =     31026.62845738
  -Hartree energ DENC   =    -38101.01436440
  -exchange      EXHF   =         0.00000000
  -V(xc)+E(xc)   XCENC  =       446.20582953
  PAW double counting   =    126469.76279334  -126192.83717789
  entropy T*S    EENTRO =        -0.00000000
  eigenvalues    EBANDS =     -2539.86388634
  atomic energy  EATOM  =      8364.30921166
  ---------------------------------------------------
  free energy    TOTEN  =      -466.87288428 eV

  energy without entropy =     -466.87288428  energy(sigma->0) =     -466.87288428


--------------------------------------------------------------------------------------------------------




--------------------------------------- Iteration      1(  13)  ---------------------------------------


    POTLOK:  cpu time    0.2721: real time    0.2740
    SETDIJ:  cpu time    0.0031: real time    0.0031
    TRIAL :  cpu time    2.0036: real time    2.0246
    CORREC:  cpu time    0.7988: real time    0.8059
    CHARGE:  cpu time    0.2336: real time    0.2356
    --------------------------------------------
      LOOP:  cpu time    3.3533: real time    3.3866

 eigenvalue-minimisations  :     0
 total energy-change (2. order) :-0.7919748E-02  (-0.2269146E-02)
 number of electron     216.0000000 magnetization 
 augmentation part       -0.4744660 magnetization 

 Free energy of the ion-electron system (eV)
  ---------------------------------------------------
  alpha Z        PSCENC =        59.93625244
  Ewald energy   TEWEN  =     31026.62845738
  -Hartree energ DENC   =    -38100.96573403
  -exchange      EXHF   =         0.00000000
  -V(xc)+E(xc)   XCENC  =       446.19828811
  PAW double counting   =    126390.24688850  -126113.32718261
  entropy T*S    EENTRO =        -0.00000000
  eigenvalues    EBANDS =     -2539.90698547
  atomic energy  EATOM  =      8364.30921166
  ---------------------------------------------------
  free energy    TOTEN  =      -466.88080403 eV

  energy without entropy =     -466.88080403  energy(sigma->0) =     -466.88080403


--------------------------------------------------------------------------------------------------------




--------------------------------------- Iteration      1(  14)  ---------------------------------------


    POTLOK:  cpu time    0.2713: real time    0.2733
    SETDIJ:  cpu time    0.0030: real time    0.0030
    TRIAL :  cpu time    2.0037: real time    2.0242
    CORREC:  cpu time    0.7971: real time    0.8044
    CHARGE:  cpu time    0.2312: real time    0.2362
    --------------------------------------------
      LOOP:  cpu time    3.3428: real time    3.3820

 eigenvalue-minimisations  :     0
 total energy-change (2. order) :-0.2270375E-02  (-0.6305468E-03)
 number of electron     216.0000000 magnetization 
 augmentation part       -0.4742334 magnetization 

 Free energy of the ion-electron system (eV)
  ---------------------------------------------------
  alpha Z        PSCENC =        59.93625244
  Ewald energy   TEWEN  =     31026.62845738
  -Hartree energ DENC   =    -38100.87258688
  -exchange      EXHF   =         0.00000000
  -V(xc)+E(xc)   XCENC  =       446.19829784
  PAW double counting   =    126451.05745263  -126174.13904613
  entropy T*S    EENTRO =        -0.00000000
  eigenvalues    EBANDS =     -2540.00111334
  atomic energy  EATOM  =      8364.30921166
  ---------------------------------------------------
  free energy    TOTEN  =      -466.88307441 eV

  energy without entropy =     -466.88307441  energy(sigma->0) =     -466.88307441


--------------------------------------------------------------------------------------------------------




--------------------------------------- Iteration      1(  15)  ---------------------------------------


    POTLOK:  cpu time    0.2691: real time    0.2710
    SETDIJ:  cpu time    0.0029: real time    0.0029
    TRIAL :  cpu time    2.0037: real time    2.0245
    CORREC:  cpu time    0.7960: real time    0.8032
    CHARGE:  cpu time    0.2339: real time    0.2359
    --------------------------------------------
      LOOP:  cpu time    3.3474: real time    3.3823

 eigenvalue-minimisations  :     0
 total energy-change (2. order) :-0.6324487E-03  (-0.2162732E-03)
 number of electron     216.0000000 magnetization 
 augmentation part       -0.4739437 magnetization 

 Free energy of the ion-electron system (eV)
  ---------------------------------------------------
  alpha Z        PSCENC =        59.93625244
  Ewald energy   TEWEN  =     31026.62845738
  -Hartree energ DENC   =    -38100.54800945
  -exchange      EXHF   =         0.00000000
  -V(xc)+E(xc)   XCENC  =       446.18614333
  PAW double counting   =    126490.58295488  -126213.66330333
  entropy T*S    EENTRO =        -0.00000000
  eigenvalues    EBANDS =     -2540.31541376
  atomic energy  EATOM  =      8364.30921166
  ---------------------------------------------------
  free energy    TOTEN  =      -466.88370685 eV

  energy without entropy =     -466.88370685  energy(sigma->0) =     -466.88370685


--------------------------------------------------------------------------------------------------------




--------------------------------------- Iteration      1(  16)  ---------------------------------------


    POTLOK:  cpu time    0.2699: real time    0.2718
    SETDIJ:  cpu time    0.0030: real time    0.0030
    TRIAL :  cpu time    2.0018: real time    2.0227
    CORREC:  cpu time    0.7974: real time    0.8048
    CHARGE:  cpu time    0.2341: real time    0.2361
    --------------------------------------------
      LOOP:  cpu time    3.3704: real time    3.4127

 eigenvalue-minimisations  :     0
 total energy-change (2. order) :-0.2177789E-03  (-0.7946096E-04)
 number of electron     216.0000000 magnetization 
 augmentation part       -0.4737789 magnetization 

 Free energy of the ion-electron system (eV)
  ---------------------------------------------------
  alpha Z        PSCENC =        59.93625244
  Ewald energy   TEWEN  =     31026.62845738
  -Hartree energ DENC   =    -38100.64338575
  -exchange      EXHF   =         0.00000000
  -V(xc)+E(xc)   XCENC  =       446.18989522
  PAW double counting   =    126473.28638150  -126196.36736960
  entropy T*S    EENTRO =        -0.00000000
  eigenvalues    EBANDS =     -2540.22336748
  atomic energy  EATOM  =      8364.30921166
  ---------------------------------------------------
  free energy    TOTEN  =      -466.88392463 eV

  energy without entropy =     -466.88392463  energy(sigma->0) =     -466.88392463


--------------------------------------------------------------------------------------------------------




--------------------------------------- Iteration      1(  17)  ---------------------------------------


    POTLOK:  cpu time    0.2705: real time    0.2723
    SETDIJ:  cpu time    0.0030: real time    0.0030
    TRIAL :  cpu time    2.0022: real time    2.0231
    CORREC:  cpu time    0.7938: real time    0.8012
    CHARGE:  cpu time    0.2337: real time    0.2356
    --------------------------------------------
      LOOP:  cpu time    3.3754: real time    3.4120

 eigenvalue-minimisations  :     0
 total energy-change (2. order) :-0.8028712E-04  (-0.3168442E-04)
 number of electron     216.0000000 magnetization 
 augmentation part       -0.4737723 magnetization 

 Free energy of the ion-electron system (eV)
  ---------------------------------------------------
  alpha Z        PSCENC =        59.93625244
  Ewald energy   TEWEN  =     31026.62845738
  -Hartree energ DENC   =    -38100.74670490
  -exchange      EXHF   =         0.00000000
  -V(xc)+E(xc)   XCENC  =       446.19288855
  PAW double counting   =    126445.56864635  -126168.64996998
  entropy T*S    EENTRO =        -0.00000000
  eigenvalues    EBANDS =     -2540.12278643
  atomic energy  EATOM  =      8364.30921166
  ---------------------------------------------------
  free energy    TOTEN  =      -466.88400492 eV

  energy without entropy =     -466.88400492  energy(sigma->0) =     -466.88400492


--------------------------------------------------------------------------------------------------------




--------------------------------------- Iteration      1(  18)  ---------------------------------------


    POTLOK:  cpu time    0.2706: real time    0.2726
    SETDIJ:  cpu time    0.0030: real time    0.0030
    TRIAL :  cpu time    2.0037: real time    2.0244
    CORREC:  cpu time    0.7959: real time    0.8031
    CHARGE:  cpu time    0.2341: real time    0.2360
    --------------------------------------------
      LOOP:  cpu time    3.3264: real time    3.3690

 eigenvalue-minimisations  :     0
 total energy-change (2. order) :-0.3197747E-04  (-0.1228437E-04)
 number of electron     216.0000000 magnetization 
 augmentation part       -0.4738209 magnetization 

 Free energy of the ion-electron system (eV)
  ---------------------------------------------------
  alpha Z        PSCENC =        59.93625244
  Ewald energy   TEWEN  =     31026.62845738
  -Hartree energ DENC   =    -38100.73269283
  -exchange      EXHF   =         0.00000000
  -V(xc)+E(xc)   XCENC  =       446.19194709
  PAW double counting   =    126437.11511802  -126160.19612594
  entropy T*S    EENTRO =        -0.00000000
  eigenvalues    EBANDS =     -2540.13620472
  atomic energy  EATOM  =      8364.30921166
  ---------------------------------------------------
  free energy    TOTEN  =      -466.88403690 eV

  energy without entropy =     -466.88403690  energy(sigma->0) =     -466.88403690


--------------------------------------------------------------------------------------------------------




--------------------------------------- Iteration      1(  19)  ---------------------------------------


    POTLOK:  cpu time    0.2703: real time    0.2721
    SETDIJ:  cpu time    0.0030: real time    0.0030
    TRIAL :  cpu time    2.0054: real time    2.0262
    CORREC:  cpu time    0.8111: real time    0.8185
    CHARGE:  cpu time    0.2339: real time    0.2358
    --------------------------------------------
      LOOP:  cpu time    3.4469: real time    3.4803

 eigenvalue-minimisations  :     0
 total energy-change (2. order) :-0.1202094E-04  (-0.4719087E-05)
 number of electron     216.0000000 magnetization 
 augmentation part       -0.4738954 magnetization 

 Free energy of the ion-electron system (eV)
  ---------------------------------------------------
  alpha Z        PSCENC =        59.93625244
  Ewald energy   TEWEN  =     31026.62845738
  -Hartree energ DENC   =    -38100.74717785
  -exchange      EXHF   =         0.00000000
  -V(xc)+E(xc)   XCENC  =       446.19289466
  PAW double counting   =    126441.83005984  -126164.91097963
  entropy T*S    EENTRO =        -0.00000000
  eigenvalues    EBANDS =     -2540.12276742
  atomic energy  EATOM  =      8364.30921166
  ---------------------------------------------------
  free energy    TOTEN  =      -466.88404892 eV

  energy without entropy =     -466.88404892  energy(sigma->0) =     -466.88404892


--------------------------------------------------------------------------------------------------------




--------------------------------------- Iteration      1(  20)  ---------------------------------------


    POTLOK:  cpu time    0.2705: real time    0.2723
    SETDIJ:  cpu time    0.0031: real time    0.0031
    TRIAL :  cpu time    2.0015: real time    2.0270
    CORREC:  cpu time    0.7974: real time    0.8044
    CHARGE:  cpu time    0.2340: real time    0.2359
    --------------------------------------------
      LOOP:  cpu time    3.4100: real time    3.4479

 eigenvalue-minimisations  :     0
 total energy-change (2. order) :-0.4417103E-05  (-0.1745339E-05)
 number of electron     216.0000000 magnetization 
 augmentation part       -0.4739055 magnetization 

 Free energy of the ion-electron system (eV)
  ---------------------------------------------------
  alpha Z        PSCENC =        59.93625244
  Ewald energy   TEWEN  =     31026.62845738
  -Hartree energ DENC   =    -38100.73891306
  -exchange      EXHF   =         0.00000000
  -V(xc)+E(xc)   XCENC  =       446.19210394
  PAW double counting   =    126447.34149867  -126170.42211595
  entropy T*S    EENTRO =        -0.00000000
  eigenvalues    EBANDS =     -2540.13054842
  atomic energy  EATOM  =      8364.30921166
  ---------------------------------------------------
  free energy    TOTEN  =      -466.88405334 eV

  energy without entropy =     -466.88405334  energy(sigma->0) =     -466.88405334


--------------------------------------------------------------------------------------------------------




--------------------------------------- Iteration      1(  21)  ---------------------------------------


    POTLOK:  cpu time    0.2712: real time    0.2732
    SETDIJ:  cpu time    0.0030: real time    0.0030
    TRIAL :  cpu time    2.0031: real time    2.0239
    CORREC:  cpu time    0.7968: real time    0.8041
    CHARGE:  cpu time    0.2336: real time    0.2356
    --------------------------------------------
      LOOP:  cpu time    3.3651: real time    3.4103

 eigenvalue-minimisations  :     0
 total energy-change (2. order) :-0.1588385E-05  (-0.7460564E-06)
 number of electron     216.0000000 magnetization 
 augmentation part       -0.4739148 magnetization 

 Free energy of the ion-electron system (eV)
  ---------------------------------------------------
  alpha Z        PSCENC =        59.93625244
  Ewald energy   TEWEN  =     31026.62845738
  -Hartree energ DENC   =    -38100.76084300
  -exchange      EXHF   =         0.00000000
  -V(xc)+E(xc)   XCENC  =       446.19317263
  PAW double counting   =    126448.75182965  -126171.83258339
  entropy T*S    EENTRO =        -0.00000000
  eigenvalues    EBANDS =     -2540.10955230
  atomic energy  EATOM  =      8364.30921166
  ---------------------------------------------------
  free energy    TOTEN  =      -466.88405492 eV

  energy without entropy =     -466.88405492  energy(sigma->0) =     -466.88405492


--------------------------------------------------------------------------------------------------------




--------------------------------------- Iteration      1(  22)  ---------------------------------------


    POTLOK:  cpu time    0.2697: real time    0.2717
    SETDIJ:  cpu time    0.0028: real time    0.0028
    TRIAL :  cpu time    1.9994: real time    2.0264
    CORREC:  cpu time    0.7954: real time    0.8027
    EDDIAG:  cpu time    0.4573: real time    0.4618
    CHARGE:  cpu time    0.2343: real time    0.2362
    --------------------------------------------
      LOOP:  cpu time    3.8051: real time    3.8489

 eigenvalue-minimisations  :     0
 total energy-change (2. order) :-0.7229246E-06  (-0.3294468E-06)
 number of electron     216.0000000 magnetization 
 augmentation part       -0.4739111 magnetization 

 Free energy of the ion-electron system (eV)
  ---------------------------------------------------
  alpha Z        PSCENC =        59.93625244
  Ewald energy   TEWEN  =     31026.62845738
  -Hartree energ DENC   =    -38100.75010615
  -exchange      EXHF   =         0.00000000
  -V(xc)+E(xc)   XCENC  =       446.19262243
  PAW double counting   =    126448.23867286  -126171.31938518
  entropy T*S    EENTRO =        -0.00000000
  eigenvalues    EBANDS =     -2540.11978109
  atomic energy  EATOM  =      8364.30921166
  ---------------------------------------------------
  free energy    TOTEN  =      -466.88405565 eV

  energy without entropy =     -466.88405565  energy(sigma->0) =     -466.88405565


--------------------------------------------------------------------------------------------------------


  average scaling for gradient   0.9462


 average (electrostatic) potential at core
  the test charge radii are     0.5770  0.5955
  (the norm of the test charge is              1.0000)
       1 -85.4320       2 -85.4312       3 -85.4327       4 -85.4340       5 -85.4300
       6 -85.4295       7 -85.4325       8 -85.4306       9 -85.4309      10 -85.4321
      11 -85.4295      12 -85.4298      13 -85.4319      14 -85.4307      15 -85.4294
      16 -85.4299      17 -85.4306      18 -85.4313      19 -85.4319      20 -85.4307
      21 -85.4294      22 -85.4291      23 -85.4346      24 -85.4345      25 -85.4292
      26 -85.4297      27 -85.4311      28 -85.4326      29 -85.4294      30 -85.4293
      31 -85.4333      32 -85.4322      33 -85.4301      34 -85.4297      35 -85.4298
      36 -85.4301      37 -85.4311      38 -85.4316      39 -85.4317      40 -85.4315
      41 -85.4315      42 -85.4319      43 -85.4307      44 -85.4320      45 -85.4294
      46 -85.4297      47 -85.4298      48 -85.4295      49 -85.4315      50 -85.4308
      51 -89.3892      52-120.0546      53-120.0540
 
 
 
 E-fermi :  -3.8401     XC(G=0):  -2.4239     alpha+bet : -2.1113

 Fermi energy:        -3.8400803271

 k-point     1 :       0.0000    0.0000    0.0000
  band No.  band energies     occupation 
      1     -27.3290      2.00000
      2     -26.3066      2.00000
      3     -21.9983      2.00000
      4     -21.0567      2.00000
      5     -21.0561      2.00000
      6     -21.0559      2.00000
      7     -21.0549      2.00000
      8     -21.0547      2.00000
      9     -21.0545      2.00000
     10     -19.2080      2.00000
     11     -19.2079      2.00000
     12     -19.2076      2.00000
     13     -19.2071      2.00000
     14     -19.2068      2.00000
     15     -19.2066      2.00000
     16     -18.3091      2.00000
     17     -18.3089      2.00000
     18     -18.3086      2.00000
     19     -18.3082      2.00000
     20     -18.3077      2.00000
     21     -18.3075      2.00000
     22     -16.1467      2.00000
     23     -16.1464      2.00000
     24     -16.1456      2.00000
     25     -16.1454      2.00000
     26     -16.1449      2.00000
     27     -16.1449      2.00000
     28     -15.1299      2.00000
     29     -15.1299      2.00000
     30     -15.1292      2.00000
     31     -15.1290      2.00000
     32     -15.1285      2.00000
     33     -15.1284      2.00000
     34     -13.7784      2.00000
     35     -13.7783      2.00000
     36     -13.7776      2.00000
     37     -13.7775      2.00000
     38     -13.7774      2.00000
     39     -13.7772      2.00000
     40     -12.1083      2.00000
     41     -11.3886      2.00000
     42     -11.3884      2.00000
     43     -11.3879      2.00000
     44     -11.3879      2.00000
     45     -11.3869      2.00000
     46     -11.3866      2.00000
     47     -11.2658      2.00000
     48     -11.2658      2.00000
     49     -11.2652      2.00000
     50     -11.2652      2.00000
     51     -11.2646      2.00000
     52     -11.2645      2.00000
     53     -10.8829      2.00000
     54     -10.8000      2.00000
     55     -10.7999      2.00000
     56     -10.0224      2.00000
     57      -9.8816      2.00000
     58      -9.8814      2.00000
     59      -9.8799      2.00000
     60      -9.8795      2.00000
     61      -9.8794      2.00000
     62      -9.8793      2.00000
     63      -8.9080      2.00000
     64      -8.9076      2.00000
     65      -8.9073      2.00000
     66      -8.9061      2.00000
     67      -8.9051      2.00000
     68      -8.9051      2.00000
     69      -8.5981      2.00000
     70      -8.5980      2.00000
     71      -8.5974      2.00000
     72      -8.5972      2.00000
     73      -8.5967      2.00000
     74      -8.5966      2.00000
     75      -8.5653      2.00000
     76      -8.5651      2.00000
     77      -8.5647      2.00000
     78      -8.5647      2.00000
     79      -8.5643      2.00000
     80      -8.5635      2.00000
     81      -7.2607      2.00000
     82      -7.2606      2.00000
     83      -6.9390      2.00000
     84      -6.9376      2.00000
     85      -6.9373      2.00000
     86      -6.9368      2.00000
     87      -6.9357      2.00000
     88      -6.9357      2.00000
     89      -6.7803      2.00000
     90      -6.7798      2.00000
     91      -6.7797      2.00000
     92      -6.7796      2.00000
     93      -6.7794      2.00000
     94      -6.7794      2.00000
     95      -5.8868      2.00000
     96      -5.8861      2.00000
     97      -5.8858      2.00000
     98      -5.8854      2.00000
     99      -5.8853      2.00000
    100      -5.8852      2.00000
    101      -5.4453      2.00000
    102      -5.4432      2.00000
    103      -3.9073      2.00000
    104      -3.9071      2.00000
    105      -3.9067      2.00000
    106      -3.9065      2.00000
    107      -3.9053      2.00000
    108      -3.9051      2.00000
    109      -1.0933      0.00000
    110      -1.0930      0.00000
    111      -1.0922      0.00000
    112      -1.0919      0.00000
    113      -1.0916      0.00000
    114      -1.0913      0.00000
    115       0.4958      0.00000
    116       0.7796      0.00000
    117       0.7801      0.00000
    118       0.7806      0.00000
    119       0.7810      0.00000
    120       0.7811      0.00000
    121       0.7831      0.00000
    122       0.9762      0.00000
    123       1.2692      0.00000
    124       1.2728      0.00000
    125       1.5826      0.00000
    126       1.8893      0.00000
    127       1.9499      0.00000
    128       1.9774      0.00000
    129       2.0549      0.00000
    130       2.0598      0.00000
    131       2.0744      0.00000
    132       2.4770      0.00000
    133       2.5145      0.00000
    134       2.5159      0.00000
    135       2.5165      0.00000
    136       2.5221      0.00000
    137       2.5352      0.00000
    138       2.7646      0.00000
    139       2.9913      0.00000
    140       3.1508      0.00000


--------------------------------------------------------------------------------------------------------


 soft charge-density along one line, spin component           1
         0         1         2         3         4         5         6         7         8         9
 total charge-density along one line
 
 pseudopotential strength for first ion, spin component:           1
 12.709  21.388   0.000   0.000   0.000   0.000   0.000   0.000
 21.388  35.991   0.000   0.000   0.000   0.000   0.000   0.000
  0.000   0.000  -3.095  -0.000   0.000  -5.547  -0.000   0.000
  0.000   0.000  -0.000  -3.096  -0.000  -0.000  -5.548  -0.000
  0.000   0.000   0.000  -0.000  -3.095   0.000  -0.000  -5.547
  0.000   0.000  -5.547  -0.000   0.000  -9.919  -0.000   0.000
  0.000   0.000  -0.000  -5.548  -0.000  -0.000  -9.921  -0.000
  0.000   0.000   0.000  -0.000  -5.547   0.000  -0.000  -9.919
 total augmentation occupancy for first ion, spin component:           1
  8.451  -3.031  -0.000  -0.002  -0.000   0.000   0.001   0.000
 -3.031   1.122   0.000   0.001   0.000  -0.000  -0.000  -0.000
 -0.000   0.000   7.733  -0.008   0.000  -2.679   0.003  -0.000
 -0.002   0.001  -0.008   3.531  -0.000   0.003  -0.988   0.000
 -0.000   0.000   0.000  -0.000   7.732  -0.000   0.000  -2.678
  0.000  -0.000  -2.679   0.003  -0.000   0.941  -0.001   0.000
  0.001  -0.000   0.003  -0.988   0.000  -0.001   0.282  -0.000
  0.000  -0.000  -0.000   0.000  -2.678   0.000  -0.000   0.941


------------------------ aborting loop because EDIFF is reached ----------------------------------------


    FORLOC:  cpu time    0.0506: real time    0.0511
    FORNL :  cpu time    0.7470: real time    0.7564
    FORCOR:  cpu time    0.2895: real time    0.2918
    OFIELD:  cpu time    0.0016: real time    0.0016

 ---------------------------------------------------------------------------------------------

         DFTD3 V3.0 Rev 1        
 IVDW         = 11
 DF revpbe    
 parameters
 VDW_S6       =    1.0000
 VDW_S8       =    1.0100
 VDW_SR       =    0.9230
 rs18     =    1.0000
 alpha6   =   14.0000
 alpha8   =   16.0000
 k1-k3    =   16.0000    1.3333   -4.0000
 VDW_RADIUS   =   50.2022 A
 VDW_CNRADIUS =   21.1671 A
 Edisp (eV)   -3.67180

 E6    (eV) :    -2.6154
 E8    (eV) :    -1.0564
 % E8        : 28.77
    FORVDW:  cpu time    0.1812: real time    0.1830

 VOLUME and BASIS-vectors are now :
 -----------------------------------------------------------------------------
  energy-cutoff  :     1000.00
  volume of cell :     2631.08
      direct lattice vectors                 reciprocal lattice vectors
    12.325000000  0.000000000  0.000000000     0.081135903  0.046843835  0.000000000
    -6.162500000 10.673763102  0.000000000     0.000000000  0.093687670  0.000000000
     0.000000000  0.000000000 20.000000000     0.000000000  0.000000000  0.050000000

  length of vectors
    12.325000000 12.325000000 20.000000000     0.093687670  0.093687670  0.050000000


 FORCES acting on ions:
    Electron-Ion                     Ewald-Force                    Non-Local-Force
 -----------------------------------------------------------------------------------------------
   0.265E+01 0.230E+01 0.163E+02   -.265E+01 -.230E+01 -.163E+02   0.650E-02 -.899E-03 0.693E-02
   0.378E+01 0.186E+01 0.186E+02   -.379E+01 -.185E+01 -.186E+02   0.625E-02 -.401E-02 -.553E-02
   0.158E+01 0.427E+01 0.200E+02   -.158E+01 -.427E+01 -.200E+02   -.332E-03 0.145E-01 0.242E-02
   0.204E+01 0.295E+01 0.248E+02   -.205E+01 -.296E+01 -.248E+02   0.139E-01 0.180E-02 -.859E-02
   0.283E+01 0.678E+00 0.166E+02   -.283E+01 -.677E+00 -.166E+02   0.112E-02 -.683E-02 0.174E-02
   0.290E+01 -.592E+00 0.168E+02   -.290E+01 0.594E+00 -.168E+02   -.631E-02 0.269E-02 -.534E-02
   0.392E+01 0.144E+01 0.237E+02   -.392E+01 -.144E+01 -.237E+02   0.156E-01 -.209E-01 -.378E-02
   0.382E+01 -.136E+01 0.249E+02   -.383E+01 0.136E+01 -.248E+02   -.318E-02 -.787E-02 -.599E-02
   -.191E+01 0.388E+01 0.202E+02   0.192E+01 -.389E+01 -.202E+02   -.292E-02 -.104E-01 -.553E-02
   -.278E+01 0.234E+01 0.245E+02   0.279E+01 -.235E+01 -.245E+02   -.299E-01 0.177E-01 0.482E-02
   0.742E+00 -.753E+00 0.149E+02   -.738E+00 0.752E+00 -.149E+02   0.287E-02 -.266E-02 -.171E-02
   0.658E+00 -.554E+00 0.144E+02   -.656E+00 0.554E+00 -.144E+02   -.831E-02 0.391E-02 0.461E-02
   0.148E+01 -.319E+01 0.265E+02   -.148E+01 0.320E+01 -.265E+02   0.306E-01 -.106E-01 0.681E-04
   0.863E+00 -.431E+01 0.212E+02   -.871E+00 0.432E+01 -.212E+02   0.657E-02 0.425E-02 -.166E-01
   -.257E+01 0.157E+01 0.161E+02   0.258E+01 -.158E+01 -.161E+02   0.724E-02 -.353E-02 0.478E-02
   -.345E+01 0.103E+01 0.171E+02   0.345E+01 -.103E+01 -.171E+02   -.361E-02 0.676E-02 -.727E-02
   -.470E+00 -.184E+00 0.139E+02   0.475E+00 0.181E+00 -.139E+02   -.191E-02 0.997E-03 0.161E-02
   0.210E+00 0.161E+01 0.143E+02   -.208E+00 -.162E+01 -.143E+02   -.403E-02 0.237E-02 0.929E-02
   -.667E+00 -.411E+01 0.185E+02   0.664E+00 0.412E+01 -.185E+02   0.789E-02 -.342E-02 0.961E-03
   -.367E+00 -.240E+01 0.153E+02   0.363E+00 0.240E+01 -.153E+02   0.153E-02 -.232E-02 -.110E-02
   0.378E+01 -.167E+01 0.196E+02   -.378E+01 0.167E+01 -.196E+02   0.293E-03 -.391E-02 -.197E-01
   0.258E+01 -.212E+01 0.176E+02   -.258E+01 0.212E+01 -.176E+02   -.651E-02 0.518E-02 -.528E-02
   -.716E+00 0.133E+01 0.279E+02   0.714E+00 -.133E+01 -.279E+02   -.117E-01 0.119E-01 0.871E-02
   -.960E+00 -.210E+01 0.275E+02   0.960E+00 0.210E+01 -.275E+02   0.131E-01 -.170E-01 -.334E-02
   0.139E+01 -.535E+00 0.150E+02   -.138E+01 0.533E+00 -.150E+02   0.273E-02 -.223E-02 -.529E-02
   0.333E+00 0.121E+01 0.150E+02   -.331E+00 -.121E+01 -.150E+02   -.664E-02 0.428E-02 0.388E-02
   -.431E+01 0.587E+00 0.212E+02   0.432E+01 -.591E+00 -.212E+02   0.840E-02 0.964E-02 -.238E-02
   -.413E+01 -.164E+01 0.202E+02   0.414E+01 0.163E+01 -.202E+02   -.119E-01 0.101E-01 0.260E-02
   0.151E+01 -.302E+01 0.180E+02   -.151E+01 0.302E+01 -.180E+02   0.642E-02 0.146E-02 -.935E-02
   0.129E+00 -.130E+01 0.156E+02   -.132E+00 0.131E+01 -.156E+02   -.408E-02 0.240E-02 -.433E-02
   -.300E+01 -.311E+01 0.225E+02   0.300E+01 0.311E+01 -.225E+02   -.140E-01 -.942E-02 -.809E-02
   -.210E+01 -.390E+01 0.188E+02   0.210E+01 0.391E+01 -.188E+02   0.659E-03 -.343E-02 0.441E-02
   0.182E+00 0.739E+00 0.142E+02   -.183E+00 -.739E+00 -.143E+02   0.643E-02 -.526E-02 0.606E-02
   0.469E+00 0.714E+00 0.148E+02   -.473E+00 -.712E+00 -.148E+02   -.176E-02 0.424E-02 -.258E-02
   -.179E+01 0.300E+00 0.154E+02   0.180E+01 -.301E+00 -.154E+02   0.379E-02 -.205E-02 0.415E-02
   -.159E+01 -.687E+00 0.152E+02   0.159E+01 0.686E+00 -.152E+02   -.566E-02 0.314E-02 0.248E-02
   -.306E+01 -.160E+01 0.164E+02   0.307E+01 0.160E+01 -.164E+02   -.359E-02 0.134E-02 0.334E-02
   -.198E+01 -.158E+01 0.150E+02   0.198E+01 0.158E+01 -.150E+02   -.544E-02 0.135E-02 0.937E-02
   -.180E+01 -.230E+01 0.156E+02   0.180E+01 0.231E+01 -.156E+02   -.411E-02 -.509E-03 0.581E-02
   -.273E+00 -.606E+00 0.144E+02   0.274E+00 0.606E+00 -.144E+02   0.214E-02 0.156E-03 0.794E-02
   0.675E+00 0.169E+01 0.146E+02   -.676E+00 -.169E+01 -.146E+02   -.430E-02 0.278E-02 0.750E-02
   0.207E+01 0.321E+01 0.167E+02   -.207E+01 -.322E+01 -.167E+02   0.657E-03 0.313E-03 0.927E-02
   0.196E+00 0.283E+01 0.153E+02   -.190E+00 -.283E+01 -.153E+02   -.186E-02 0.251E-02 0.163E-02
   -.529E-01 0.432E+01 0.186E+02   0.566E-01 -.432E+01 -.186E+02   -.102E-01 0.397E-02 0.592E-02
   -.535E+00 0.102E+01 0.154E+02   0.537E+00 -.102E+01 -.154E+02   0.358E-02 -.270E-02 -.703E-03
   -.205E+01 0.252E+01 0.169E+02   0.205E+01 -.252E+01 -.169E+02   -.795E-02 0.139E-02 -.387E-02
   -.483E+00 -.121E+01 0.149E+02   0.482E+00 0.121E+01 -.149E+02   0.769E-02 -.187E-02 0.457E-02
   -.109E+01 0.405E+00 0.144E+02   0.109E+01 -.404E+00 -.144E+02   -.278E-02 0.305E-02 -.466E-02
   0.117E+00 -.755E+00 0.143E+02   -.119E+00 0.756E+00 -.143E+02   0.524E-02 -.357E-02 0.583E-02
   0.120E+01 0.853E+00 0.144E+02   -.120E+01 -.851E+00 -.144E+02   0.146E-02 0.131E-02 0.312E-02
   0.116E-01 0.114E-01 -.223E+03   -.153E-01 -.795E-02 0.223E+03   -.303E-02 0.198E-02 -.354E-02
   -.229E+03 0.156E+03 -.345E+03   0.279E+03 -.190E+03 0.349E+03   -.510E+02 0.347E+02 -.342E+01
   0.229E+03 -.156E+03 -.326E+03   -.279E+03 0.190E+03 0.323E+03   0.510E+02 -.347E+02 0.308E+01
 -----------------------------------------------------------------------------------------------
   -.611E-02 0.131E-01 0.342E+00   0.000E+00 0.568E-13 -.284E-12   0.630E-02 -.133E-01 -.341E+00
 
 
 POSITION                                       TOTAL-FORCE (eV/Angst)
 -----------------------------------------------------------------------------------
     11.98348      0.00342      0.01417         0.003102     -0.001456     -0.000632
     -0.34154      1.42665      0.01100        -0.001103     -0.000086     -0.002940
      2.12355      0.00315      0.01249        -0.001505      0.010218     -0.005495
      2.12326      1.42653      0.00641         0.012822      0.001169     -0.007605
     10.75099      2.13819      0.01213         0.000173     -0.005455      0.000149
     -1.57382      3.56123      0.01110        -0.008677      0.004949     -0.001254
      0.89078      2.13854      0.00548         0.009057     -0.018631      0.002451
      0.89099      3.56147      0.00181        -0.012510     -0.002119      0.011050
      4.58864      0.00346      0.01135         0.003955     -0.016442     -0.003115
      4.58894      1.42623      0.00646        -0.022973      0.012905      0.013666
      9.51854      4.27281      0.01369         0.006747     -0.003264      0.000418
     -2.80632      5.69591      0.01434        -0.006409      0.003349      0.000930
      2.12300      4.27302      0.00000         0.024414     -0.004647      0.019450
      2.12335      5.69594      0.00581        -0.000850      0.009688     -0.002676
      7.05344      0.00333      0.01399         0.009213     -0.005190     -0.000121
      7.05353      1.42635      0.01368        -0.001495      0.004786     -0.003349
      8.28610      6.40752      0.01601         0.003193     -0.001534     -0.000479
     -4.03885      7.83070      0.01636        -0.002064      0.000859      0.000239
      3.35586      6.40753      0.01007         0.005080      0.000523     -0.001070
      3.35599      7.83072      0.01320        -0.003386      0.000227     -0.000393
     -0.34146      4.27290      0.00723        -0.002134     -0.001260     -0.004467
     -0.34138      5.69591      0.00946        -0.009076      0.006346     -0.001029
      3.35624      2.13791      0.00222        -0.013148      0.011697      0.015815
      3.35573      3.56155      0.00139         0.013275     -0.015524      0.008309
     -1.57395      6.40758      0.01311         0.005707     -0.004044     -0.000399
     -1.57385      7.83068      0.01438        -0.004700      0.003705      0.000302
      5.82093      2.13784      0.01033         0.016687      0.005061     -0.002588
      5.82114      3.56097      0.01156        -0.005968      0.008127     -0.003059
      0.89092      6.40755      0.00907         0.004296      0.002291     -0.002123
      0.89106      7.83068      0.01235        -0.006976      0.003697      0.000558
      4.58871      4.27293      0.00850        -0.012400     -0.006430     -0.009995
      4.58852      5.69606      0.01149         0.001798     -0.000587     -0.003407
      9.51845      0.00337      0.01490         0.004635     -0.004619      0.000403
      9.51855      1.42644      0.01438        -0.005127      0.005620     -0.000048
      8.28593      2.13803      0.01453         0.006525     -0.003517      0.000894
      8.28613      3.56115      0.01464        -0.004182      0.002077      0.000265
      7.05356      4.27269      0.01457         0.003013     -0.001089     -0.000149
      7.05362      5.69588      0.01553        -0.002368      0.001431      0.000247
      5.82112      6.40755      0.01489        -0.002711      0.001676      0.000363
      5.82102      7.83073      0.01579         0.002609      0.000431      0.000022
      7.05363      8.54227      0.01631        -0.004596      0.001057      0.001440
     -5.27149      9.96549      0.01495        -0.000211     -0.002134     -0.001566
     -2.80638      8.54234      0.01558         0.003337     -0.001598     -0.000711
     -2.80627      9.96553      0.01362        -0.006310     -0.000208     -0.003226
     -0.34149      8.54239      0.01378         0.005846     -0.004725      0.000520
     -0.34138      9.96550      0.01354        -0.005709     -0.000127     -0.000894
      2.12343      8.54232      0.01336         0.005709     -0.001512      0.000910
      2.12354      9.96544      0.01469        -0.005419      0.003919     -0.001602
      4.58846      8.54235      0.01505         0.003630     -0.002817      0.001213
      4.58853      9.96550      0.01517        -0.003063      0.003397      0.000456
      3.04930      2.68154      5.94604        -0.006620      0.005354      0.025757
      4.02070      2.02068      6.01046        -0.250024      0.169728     -0.036561
      2.07767      3.34267      5.88658         0.256889     -0.175270     -0.004875
 -----------------------------------------------------------------------------------
    total drift:                                0.000196     -0.000200      0.000926


--------------------------------------------------------------------------------------------------------



  FREE ENERGIE OF THE ION-ELECTRON SYSTEM (eV)
  ---------------------------------------------------
  free  energy   TOTEN  =      -470.55585902 eV

  energy  without entropy=     -470.55585902  energy(sigma->0) =     -470.55585902
 


--------------------------------------------------------------------------------------------------------


    POTLOK:  cpu time    0.2792: real time    0.2814


--------------------------------------------------------------------------------------------------------


     LOOP+:  cpu time  107.3862: real time  108.9336
    4ORBIT:  cpu time    0.0000: real time    0.0000

 total amount of memory used by VASP MPI-rank0   175916. kBytes
=======================================================================

   base      :      30000. kBytes
   nonl-proj :      46129. kBytes
   fftplans  :      35778. kBytes
   grid      :      52596. kBytes
   one-center:         43. kBytes
   wavefun   :      11370. kBytes
 
  
  
 General timing and accounting informations for this job:
 ========================================================
  
                  Total CPU time used (sec):      143.133
                            User time (sec):      129.924
                          System time (sec):       13.209
                         Elapsed time (sec):      146.033
  
                   Maximum memory used (kb):      513188.
                   Average memory used (kb):          N/A
  
                          Minor page faults:        52153
                          Major page faults:          124
                 Voluntary context switches:         3669
