 vasp.6.2.1 16May21 (build Nov 06 2021 14:46:37) complex                        
  
 executed on             LinuxIFC date 2025.04.16  19:09:35
 running on  112 total cores
 distrk:  each k-point on   56 cores,    2 groups
 distr:  one band on NCORE=   1 cores,   56 groups


--------------------------------------------------------------------------------------------------------


 INCAR:
   ALGO = Conjugate
   KPAR = 2
   NCORE = 32
   ISMEAR = 0
   SIGMA = 0.01
   PREC = Accurate
   EDIFF = 1E-7
   ENCUT = 1000
   ISIF = 0
   GGA = BO
   PARAM1 = 0.1833333333
   PARAM2 = 0.2200000000
   LUSE_VDW = .TRUE.
   AGGAC = 0.0000
   LASPH = .TRUE.
   SYMPREC = 1E-7

 POTCAR:    PAW_PBE C_h 06Feb2004                 
 POTCAR:    PAW_PBE O_h 06Feb2004                 
 -----------------------------------------------------------------------------
|                                                                             |
|           W    W    AA    RRRRR   N    N  II  N    N   GGGG   !!!           |
|           W    W   A  A   R    R  NN   N  II  NN   N  G    G  !!!           |
|           W    W  A    A  R    R  N N  N  II  N N  N  G       !!!           |
|           W WW W  AAAAAA  RRRRR   N  N N  II  N  N N  G  GGG   !            |
|           WW  WW  A    A  R   R   N   NN  II  N   NN  G    G                |
|           W    W  A    A  R    R  N    N  II  N    N   GGGG   !!!           |
|                                                                             |
|     The value NCORE = 32 specified in the INCAR file was overwritten,       |
|     because it was not compatible with the 56 processes available:          |
|     NCORE = 1                                                               |
|     was used instead, please check that this makes sense for your           |
|     machine.                                                                |
|                                                                             |
 -----------------------------------------------------------------------------

 -----------------------------------------------------------------------------
|                                                                             |
|           W    W    AA    RRRRR   N    N  II  N    N   GGGG   !!!           |
|           W    W   A  A   R    R  NN   N  II  NN   N  G    G  !!!           |
|           W    W  A    A  R    R  N N  N  II  N N  N  G       !!!           |
|           W WW W  AAAAAA  RRRRR   N  N N  II  N  N N  G  GGG   !            |
|           WW  WW  A    A  R   R   N   NN  II  N   NN  G    G                |
|           W    W  A    A  R    R  N    N  II  N    N   GGGG   !!!           |
|                                                                             |
|     For optimal performance we recommend to set                             |
|       NCORE = 2 up to number-of-cores-per-socket                            |
|     NCORE specifies how many cores store one orbital (NPAR=cpu/NCORE).      |
|     This setting can greatly improve the performance of VASP for DFT.       |
|     The default, NCORE=1 might be grossly inefficient on modern             |
|     multi-core architectures or massively parallel machines. Do your        |
|     own testing! More info at https://www.vasp.at/wiki/index.php/NCORE      |
|     Unfortunately you need to use the default for GW and RPA                |
|     calculations (for HF NCORE is supported but not extensively tested      |
|     yet).                                                                   |
|                                                                             |
 -----------------------------------------------------------------------------

 -----------------------------------------------------------------------------
|                                                                             |
|               ----> ADVICE to this user running VASP <----                  |
|                                                                             |
|     You have switched on vdW-DFT.                                           |
|     This routine was written and supplied by Jiri Klimes. We recommend      |
|     that you carefully read and cite the following publications:            |
|       J. Klimes, D.R. Bowler, A. Michelides                                 |
|          J. Phys.: Cond Matt. 22 022201 (2010)                              |
|       J. Klimes, D.R. Bowler, A. Michelides                                 |
|          Phys. Rev. B. 83, 195131 (2011)                                    |
|     and references therein.                                                 |
|                                                                             |
 -----------------------------------------------------------------------------

 POTCAR:    PAW_PBE C_h 06Feb2004                 
   VRHFIN =C: s2p2                                                                                  
   LEXCH  = PE                                                                                      
   EATOM  =   147.1560 eV,   10.8157 Ry                                                             
                                                                                                    
   TITEL  = PAW_PBE C_h 06Feb2004                                                                   
   LULTRA =        F    use ultrasoft PP ?                                                          
   IUNSCR =        1    unscreen: 0-lin 1-nonlin 2-no                                               
   RPACOR =    0.800    partial core radius                                                         
   POMASS =   12.011; ZVAL   =    4.000    mass and valenz                                          
   RCORE  =    1.100    outmost cutoff radius                                                       
   RWIGS  =    1.630; RWIGS  =    0.863    wigner-seitz radius (au A)                               
   ENMAX  =  700.000; ENMIN  =  500.000 eV                                                          
   ICORE  =        2    local potential                                                             
   LCOR   =        T    correct aug charges                                                         
   LPAW   =        T    paw PP                                                                      
   EAUG   =  946.768                                                                                
   DEXC   =    0.000                                                                                
   RMAX   =    1.128    core radius for proj-oper                                                   
   RAUG   =    1.300    factor for augmentation sphere                                              
   RDEP   =    1.162    radius for radial grids                                                     
   RDEPT  =    1.088    core radius for aug-charge                                                  
                                                                                                    
   Atomic configuration                                                                             
    4 entries                                                                                       
     n  l   j            E        occ.                                                              
     1  0  0.50      -273.3789   2.0000                                                             
     2  0  0.50       -13.7508   2.0000                                                             
     2  1  0.50        -5.2854   2.0000                                                             
     3  2  1.50        -5.4423   0.0000                                                             
   Description                                                                                      
     l       E           TYP  RCUT    TYP  RCUT                                                     
     0    -13.7508458     23  1.100                                                                 
     0     -8.2022199     23  1.100                                                                 
     1     -5.2854383     23  1.100                                                                 
     1      1.1560700     23  1.100                                                                 
     2     -5.4423304      7  1.100                                                                 
  local pseudopotential read in
  partial core-charges read in
  partial kinetic energy density read in
  atomic valenz-charges read in
  non local Contribution for L=           0  read in
    real space projection operators read in
  non local Contribution for L=           0  read in
    real space projection operators read in
  non local Contribution for L=           1  read in
    real space projection operators read in
  non local Contribution for L=           1  read in
    real space projection operators read in
    PAW grid and wavefunctions read in
 
   number of l-projection  operators is LMAX  =           4
   number of lm-projection operators is LMMAX =           8
 
 POTCAR:    PAW_PBE O_h 06Feb2004                 
   VRHFIN =O: s2p4                                                                                  
   LEXCH  = PE                                                                                      
   EATOM  =   432.3788 eV,   31.7789 Ry                                                             
                                                                                                    
   TITEL  = PAW_PBE O_h 06Feb2004                                                                   
   LULTRA =        F    use ultrasoft PP ?                                                          
   IUNSCR =        1    unscreen: 0-lin 1-nonlin 2-no                                               
   RPACOR =    0.800    partial core radius                                                         
   POMASS =   16.000; ZVAL   =    6.000    mass and valenz                                          
   RCORE  =    1.100    outmost cutoff radius                                                       
   RWIGS  =    1.400; RWIGS  =    0.741    wigner-seitz radius (au A)                               
   ENMAX  =  700.000; ENMIN  =  500.000 eV                                                          
   ICORE  =        2    local potential                                                             
   LCOR   =        T    correct aug charges                                                         
   LPAW   =        T    paw PP                                                                      
   EAUG   =  888.804                                                                                
   DEXC   =    0.000                                                                                
   RMAX   =    1.128    core radius for proj-oper                                                   
   RAUG   =    1.300    factor for augmentation sphere                                              
   RDEP   =    1.125    radius for radial grids                                                     
   RDEPT  =    1.088    core radius for aug-charge                                                  
                                                                                                    
   Atomic configuration                                                                             
    4 entries                                                                                       
     n  l   j            E        occ.                                                              
     1  0  0.50      -514.6923   2.0000                                                             
     2  0  0.50       -23.9615   2.0000                                                             
     2  1  0.50        -9.0305   4.0000                                                             
     3  2  1.50        -9.5241   0.0000                                                             
   Description                                                                                      
     l       E           TYP  RCUT    TYP  RCUT                                                     
     0    -23.9615319     23  1.100                                                                 
     0    -25.3221145     23  1.100                                                                 
     1     -9.0304911     23  1.100                                                                 
     1     -5.4802209     23  1.100                                                                 
     2     -9.5240782      7  1.100                                                                 
  local pseudopotential read in
  partial core-charges read in
  partial kinetic energy density read in
  atomic valenz-charges read in
  non local Contribution for L=           0  read in
    real space projection operators read in
  non local Contribution for L=           0  read in
    real space projection operators read in
  non local Contribution for L=           1  read in
    real space projection operators read in
  non local Contribution for L=           1  read in
    real space projection operators read in
    PAW grid and wavefunctions read in
 
   number of l-projection  operators is LMAX  =           4
   number of lm-projection operators is LMMAX =           8
 
 -----------------------------------------------------------------------------
|                                                                             |
|               ----> ADVICE to this user running VASP <----                  |
|                                                                             |
|     You have a (more or less) 'large supercell' and for larger cells it     |
|     might be more efficient to use real-space projection operators.         |
|     Therefore, try LREAL= Auto in the INCAR file.                           |
|     Mind: For very accurate calculation, you might also keep the            |
|     reciprocal projection scheme (i.e. LREAL=.FALSE.).                      |
|                                                                             |
 -----------------------------------------------------------------------------

 -----------------------------------------------------------------------------
|                                                                             |
|               ----> ADVICE to this user running VASP <----                  |
|                                                                             |
|     You enforced a specific xc type in the INCAR file but a different       |
|     type was found in the POTCAR file.                                      |
|     I HOPE YOU KNOW WHAT YOU ARE DOING!                                     |
|                                                                             |
 -----------------------------------------------------------------------------

  PAW_PBE C_h 06Feb2004                 :
 energy of atom  1       EATOM= -147.1560
 kinetic energy error for atom=    0.0031 (will be added to EATOM!!)
  PAW_PBE O_h 06Feb2004                 :
 energy of atom  2       EATOM= -432.3788
 kinetic energy error for atom=    0.0171 (will be added to EATOM!!)
 
 
 POSCAR:  C  O
  positions in cartesian coordinates
  No initial velocities read in
 exchange correlation table for  LEXCH =       42
   RHO(1)=    0.500       N(1)  =     2000
   RHO(2)=  100.500       N(2)  =     4000
 


--------------------------------------------------------------------------------------------------------


 ion  position               nearest neighbor table
   1  0.972  0.000  0.001-  50 1.42   2 1.42  42 1.42
   2  0.039  0.134  0.000-   5 1.42   7 1.42   1 1.42
   3  0.172  0.000  0.000-  42 1.42  44 1.42   4 1.42
   4  0.239  0.134  0.000-   7 1.42   3 1.42  23 1.42
   5  0.972  0.200  0.000-   6 1.42   2 1.42  34 1.42
   6  0.039  0.334  0.000-   5 1.42  21 1.42  11 1.42
   7  0.172  0.200  0.000-   8 1.42   2 1.42   4 1.42
   8  0.239  0.334  0.000-  13 1.42   7 1.42  21 1.42
   9  0.372  0.000  0.000-  10 1.42  44 1.42  46 1.42
  10  0.439  0.134  0.000-  27 1.42   9 1.42  23 1.42
  11  0.972  0.400  0.001-  12 1.42  36 1.42   6 1.42
  12  0.039  0.534  0.001-  25 1.42  11 1.42  17 1.42
  13  0.372  0.400  0.000-   8 1.42  14 1.42  24 1.42
  14  0.439  0.534  0.000-  13 1.42  29 1.42  19 1.42
  15  0.572  0.000  0.001-  46 1.42  16 1.42  48 1.42
  16  0.639  0.134  0.001-  15 1.42  35 1.42  27 1.42
  17  0.972  0.600  0.001-  38 1.42  18 1.42  12 1.42
  18  0.039  0.734  0.001-  43 1.42  41 1.42  17 1.42
  19  0.572  0.600  0.000-  14 1.42  20 1.42  32 1.42
  20  0.639  0.734  0.001-  49 1.42  19 1.42  47 1.42
  21  0.172  0.400  0.000-  22 1.42   8 1.42   6 1.42
  22  0.239  0.534  0.000-  21 1.42  29 1.42  25 1.42
  23  0.372  0.200  0.000-  10 1.42   4 1.42  24 1.42
  24  0.439  0.334  0.000-  13 1.42  31 1.42  23 1.42
  25  0.172  0.600  0.001-  26 1.42  12 1.42  22 1.42
  26  0.239  0.734  0.001-  25 1.42  45 1.42  43 1.42
  27  0.572  0.200  0.000-  10 1.42  28 1.42  16 1.42
  28  0.639  0.334  0.000-  27 1.42  37 1.42  31 1.42
  29  0.372  0.600  0.000-  22 1.42  14 1.42  30 1.42
  30  0.439  0.734  0.000-  47 1.42  29 1.42  45 1.42
  31  0.572  0.400  0.000-  32 1.42  28 1.42  24 1.42
  32  0.639  0.534  0.000-  31 1.42  39 1.42  19 1.42
  33  0.772  0.000  0.001-  34 1.42  48 1.42  50 1.42
  34  0.839  0.134  0.001-  33 1.42   5 1.42  35 1.42
  35  0.772  0.200  0.001-  36 1.42  16 1.42  34 1.42
  36  0.839  0.334  0.001-  35 1.42  11 1.42  37 1.42
  37  0.772  0.400  0.001-  28 1.42  38 1.42  36 1.42
  38  0.839  0.534  0.001-  17 1.42  37 1.42  39 1.42
  39  0.772  0.600  0.001-  40 1.42  38 1.42  32 1.42
  40  0.839  0.734  0.001-  39 1.42  49 1.42  41 1.42
  41  0.972  0.800  0.001-  18 1.42  42 1.42  40 1.42
  42  0.039  0.934  0.001-   3 1.42  41 1.42   1 1.42
  43  0.172  0.800  0.001-  18 1.42  44 1.42  26 1.42
  44  0.239  0.934  0.001-   9 1.42  43 1.42   3 1.42
  45  0.372  0.800  0.001-  26 1.42  46 1.42  30 1.42
  46  0.439  0.934  0.001-  15 1.42  45 1.42   9 1.42
  47  0.572  0.800  0.001-  30 1.42  48 1.42  20 1.42
  48  0.639  0.934  0.001-  47 1.42  33 1.42  15 1.42
  49  0.772  0.800  0.001-  50 1.42  20 1.42  40 1.42
  50  0.839  0.934  0.001-  49 1.42   1 1.42  33 1.42
  51  0.373  0.251  0.189-  52 1.18  53 1.18
  52  0.421  0.189  0.191-  51 1.18
  53  0.325  0.313  0.186-  51 1.18
 
  LATTYP: Found a hexagonal cell.
 ALAT       =    12.3250000000
 C/A-ratio  =     2.0283975659
  
  Lattice vectors:
  
 A1 = (  12.3250000000,   0.0000000000,   0.0000000000)
 A2 = (  -6.1625000000,  10.6737631016,   0.0000000000)
 A3 = (   0.0000000000,   0.0000000000,  25.0000000000)


Analysis of symmetry for initial positions (statically):
=====================================================================
 Subroutine PRICEL returns:
 Original cell was already a primitive cell.
 

 Routine SETGRP: Setting up the symmetry group for a 
 hexagonal supercell.


 Subroutine GETGRP returns: Found  1 space group operations
 (whereof  1 operations were pure point group operations)
 out of a pool of 24 trial point group operations.


The static configuration has the point symmetry C_1 .


Analysis of symmetry for dynamics (positions and initial velocities):
=====================================================================
 Subroutine PRICEL returns:
 Original cell was already a primitive cell.
 

 Routine SETGRP: Setting up the symmetry group for a 
 hexagonal supercell.


 Subroutine GETGRP returns: Found  1 space group operations
 (whereof  1 operations were pure point group operations)
 out of a pool of 24 trial point group operations.


The dynamic configuration has the point symmetry C_1 .


 Subroutine INISYM returns: Found  1 space group operations
 (whereof  1 operations are pure point group operations),
 and found     1 'primitive' translations


----------------------------------------------------------------------------------------

                                     Primitive cell                                     

  volume of cell :    3288.8533

  direct lattice vectors                    reciprocal lattice vectors
    12.325000000  0.000000000  0.000000000     0.081135903  0.046843835  0.000000000
    -6.162500000 10.673763102  0.000000000     0.000000000  0.093687670  0.000000000
     0.000000000  0.000000000 25.000000000     0.000000000  0.000000000  0.040000000

  length of vectors
    12.325000000 12.325000000 25.000000000     0.093687670  0.093687670  0.040000000

  position of ions in fractional coordinates (direct lattice)
     0.972450841  0.000320818  0.000566711
     0.039118382  0.133659505  0.000440173
     0.172443627  0.000295449  0.000499628
     0.239096278  0.133647917  0.000256468
     0.972452058  0.200322012  0.000485219
     0.039128360  0.333643771  0.000444150
     0.172451764  0.200354552  0.000219167
     0.239124359  0.333665720  0.000072260
     0.372465565  0.000324403  0.000453913
     0.439137473  0.133619939  0.000258338
     0.972449824  0.400309362  0.000547611
     0.039124981  0.533636789  0.000573410
     0.372416176  0.400329481  0.000000000
     0.439099602  0.533638981  0.000232414
     0.572443676  0.000312125  0.000559580
     0.639110207  0.133631751  0.000547275
     0.972452703  0.600305653  0.000640289
     0.039124495  0.733640359  0.000654513
     0.572433471  0.600306242  0.000402895
     0.639111888  0.733641879  0.000527905
     0.172454630  0.400318228  0.000289045
     0.239120185  0.533636548  0.000378509
     0.372459750  0.200295993  0.000088997
     0.439107096  0.333673419  0.000055762
     0.172452155  0.600311506  0.000524340
     0.239123371  0.733638574  0.000575129
     0.572431082  0.200289171  0.000413296
     0.639112773  0.333618630  0.000462376
     0.372439808  0.600308022  0.000362844
     0.439116090  0.733637858  0.000494190
     0.572469358  0.400320504  0.000339918
     0.639119408  0.533650873  0.000459610
     0.772445723  0.000315427  0.000596161
     0.839116277  0.133640203  0.000575306
     0.772440513  0.200307432  0.000581033
     0.839120241  0.333635728  0.000585467
     0.772446320  0.400298367  0.000582978
     0.839118980  0.533633964  0.000621100
     0.772456143  0.600308173  0.000595712
     0.839115033  0.733643180  0.000631512
     0.972455313  0.800305582  0.000652233
     0.039114714  0.933643289  0.000598051
     0.172457971  0.800312211  0.000623372
     0.239134551  0.933647193  0.000544850
     0.372451396  0.800316674  0.000551399
     0.439124489  0.933644769  0.000541430
     0.572441101  0.800310054  0.000534535
     0.639115067  0.933638985  0.000587644
     0.772445098  0.800313187  0.000602062
     0.839116614  0.933644338  0.000606830
     0.373021009  0.251226878  0.188774862
     0.420879805  0.189313152  0.191351737
     0.325156981  0.313167186  0.186396668

  ion indices of the primitive-cell ions
   primitive index   ion index
                 1           1
                 2           2
                 3           3
                 4           4
                 5           5
                 6           6
                 7           7
                 8           8
                 9           9
                10          10
                11          11
                12          12
                13          13
                14          14
                15          15
                16          16
                17          17
                18          18
                19          19
                20          20
                21          21
                22          22
                23          23
                24          24
                25          25
                26          26
                27          27
                28          28
                29          29
                30          30
                31          31
                32          32
                33          33
                34          34
                35          35
                36          36
                37          37
                38          38
                39          39
                40          40
                41          41
                42          42
                43          43
                44          44
                45          45
                46          46
                47          47
                48          48
                49          49
                50          50
                51          51
                52          52
                53          53

----------------------------------------------------------------------------------------

 
 
 KPOINTS: auto                                    

Automatic generation of k-mesh.
 Grid dimensions read from file:
 generate k-points for:    1    1    1

 Generating k-lattice:

  Cartesian coordinates                     Fractional coordinates (reciprocal lattice)
     0.081135903  0.046843835  0.000000000     1.000000000 -0.000000000  0.000000000
     0.000000000  0.093687670  0.000000000     0.000000000  1.000000000  0.000000000
     0.000000000  0.000000000  0.040000000     0.000000000  0.000000000  1.000000000

  Length of vectors
     0.093687670  0.093687670  0.040000000

  Shift w.r.t. Gamma in fractional coordinates (k-lattice)
     0.000000000  0.000000000  0.000000000

 
 Subroutine IBZKPT returns following result:
 ===========================================
 
 Found      1 irreducible k-points:
 
 Following reciprocal coordinates:
            Coordinates               Weight
  0.000000  0.000000  0.000000      1.000000
 
 Following cartesian coordinates:
            Coordinates               Weight
  0.000000  0.000000  0.000000      1.000000
 


--------------------------------------------------------------------------------------------------------




 Dimension of arrays:
   k-points           NKPTS =      1   k-points in BZ     NKDIM =      1   number of bands    NBANDS=    168
   number of dos      NEDOS =    301   number of ions     NIONS =     53
   non local maximal  LDIM  =      4   non local SUM 2l+1 LMDIM =      8
   total plane-waves  NPLWV = ******
   max r-space proj   IRMAX =      1   max aug-charges    IRDMAX=  10008
   dimension x,y,z NGX =   128 NGY =  128 NGZ =  270
   dimension x,y,z NGXF=   256 NGYF=  256 NGZF=  540
   support grid    NGXF=   256 NGYF=  256 NGZF=  540
   ions per type =              51   2
   NGX,Y,Z   is equivalent  to a cutoff of  17.27, 17.27, 17.95 a.u.
   NGXF,Y,Z  is equivalent  to a cutoff of  34.53, 34.53, 35.91 a.u.

 SYSTEM =  unknown system                          
 POSCAR =   C  O                                   

 Startparameter for this run:
   NWRITE =      2    write-flag & timer
   PREC   = accura    normal or accurate (medium, high low for compatibility)
   ISTART =      0    job   : 0-new  1-cont  2-samecut
   ICHARG =      2    charge: 1-file 2-atom 10-const
   ISPIN  =      1    spin polarized calculation?
   LNONCOLLINEAR =      F non collinear calculations
   LSORBIT =      F    spin-orbit coupling
   INIWAV =      1    electr: 0-lowe 1-rand  2-diag
   LASPH  =      T    aspherical Exc in radial PAW
 Electronic Relaxation 1
   ENCUT  = 1000.0 eV  73.50 Ry    8.57 a.u.  31.78 31.78 64.46*2*pi/ulx,y,z
   ENINI  = 1000.0     initial cutoff
   ENAUG  =  946.8 eV  augmentation charge cutoff
   NELM   =     60;   NELMIN=  2; NELMDL= -5     # of ELM steps 
   EDIFF  = 0.1E-06   stopping-criterion for ELM
   LREAL  =      F    real-space projection
   NLSPLINE    = F    spline interpolate recip. space projectors
   LCOMPAT=      F    compatible to vasp.4.4
   GGA_COMPAT  = T    GGA compatible to vasp.4.4-vasp.4.6
   LMAXPAW     = -100 max onsite density
   LMAXMIX     =    2 max onsite mixed and CHGCAR
   VOSKOWN=      0    Vosko Wilk Nusair interpolation
   ROPT   =    0.00000   0.00000
 Ionic relaxation
   EDIFFG = 0.1E-05   stopping-criterion for IOM
   NSW    =      0    number of steps for IOM
   NBLOCK =      1;   KBLOCK =      1    inner block; outer block 
   IBRION =     -1    ionic relax: 0-MD 1-quasi-New 2-CG
   NFREE  =      0    steps in history (QN), initial steepest desc. (CG)
   ISIF   =      0    stress and relaxation
   IWAVPR =     10    prediction:  0-non 1-charg 2-wave 3-comb
   ISYM   =      2    0-nonsym 1-usesym 2-fastsym
   LCORR  =      T    Harris-Foulkes like correction to forces

   POTIM  = 0.5000    time-step for ionic-motion
   TEIN   =    0.0    initial temperature
   TEBEG  =    0.0;   TEEND  =   0.0 temperature during run
   SMASS  =  -3.00    Nose mass-parameter (am)
   estimated Nose-frequenzy (Omega)   =  0.10E-29 period in steps = 0.13E+47 mass=  -0.347E-26a.u.
   SCALEE = 1.0000    scale energy and forces
   NPACO  =    256;   APACO  = 16.0  distance and # of slots for P.C.
   PSTRESS=    0.0 pullay stress

  Mass of Ions in am
   POMASS =  12.01 16.00
  Ionic Valenz
   ZVAL   =   4.00  6.00
  Atomic Wigner-Seitz radii
   RWIGS  =  -1.00 -1.00
  virtual crystal weights 
   VCA    =   1.00  1.00
   NELECT =     216.0000    total number of electrons
   NUPDOWN=      -1.0000    fix difference up-down

 DOS related values:
   EMIN   =  10.00;   EMAX   =-10.00  energy-range for DOS
   EFERMI =   0.00
   ISMEAR =     0;   SIGMA  =   0.01  broadening in eV -4-tet -1-fermi 0-gaus

 Electronic relaxation 2 (details)
   IALGO  =     58    algorithm
   LDIAG  =      T    sub-space diagonalisation (order eigenvalues)
   LSUBROT=      F    optimize rotation matrix (better conditioning)
   TURBO    =      0    0=normal 1=particle mesh
   IRESTART =      0    0=no restart 2=restart with 2 vectors
   NREBOOT  =      0    no. of reboots
   NMIN     =      0    reboot dimension
   EREF     =   0.00    reference energy to select bands
   IMIX   =      4    mixing-type and parameters
     AMIX     =   0.40;   BMIX     =  1.00
     AMIX_MAG =   1.60;   BMIX_MAG =  1.00
     AMIN     =   0.10
     WC   =   100.;   INIMIX=   1;  MIXPRE=   1;  MAXMIX= -45

 Intra band minimization:
   WEIMIN = 0.0000     energy-eigenvalue tresh-hold
   EBREAK =  0.15E-09  absolut break condition
   DEPER  =   0.30     relativ break condition  

   TIME   =   0.40     timestep for ELM

  volume/ion in A,a.u.               =      62.05       418.76
  Fermi-wavevector in a.u.,A,eV,Ry     =   0.660508  1.248179  5.935820  0.436270
  Thomas-Fermi vector in A             =   1.732977
 
 Write flags
   LWAVE        =      T    write WAVECAR
   LDOWNSAMPLE  =      F    k-point downsampling of WAVECAR
   LCHARG       =      T    write CHGCAR
   LVTOT        =      F    write LOCPOT, total local potential
   LVHAR        =      F    write LOCPOT, Hartree potential only
   LELF         =      F    write electronic localiz. function (ELF)
   LORBIT       =      0    0 simple, 1 ext, 2 COOP (PROOUT), +10 PAW based schemes


 Dipole corrections
   LMONO  =      F    monopole corrections only (constant potential shift)
   LDIPOL =      F    correct potential (dipole corrections)
   IDIPOL =      0    1-x, 2-y, 3-z, 4-all directions 
   EPSILON=  1.0000000 bulk dielectric constant

 Exchange correlation treatment:
   GGA     =    BO    GGA type
   LEXCH   =    42    internal setting for exchange type
   VOSKOWN=      0    Vosko Wilk Nusair interpolation
   LHFCALC =     F    Hartree Fock is set to
   LHFONE  =     F    Hartree Fock one center treatment
   AEXX    =    0.0000 exact exchange contribution

 vdW DFT:
   LUSE_VDW   =     T    switch on vdW DFT
   Zab_VDW    =-.8491    correlation parameter
   PARAM1     =0.1833
   PARAM2     =0.2200
   PARAM3     =0.0000
   -- rVV10 --
   BPARAM     = 6.3000
   CPARAM     = 0.0093

 Linear response parameters
   LEPSILON=     F    determine dielectric tensor
   LRPA    =     F    only Hartree local field effects (RPA)
   LNABLA  =     F    use nabla operator in PAW spheres
   LVEL    =     F    velocity operator in full k-point grid
   LINTERFAST=   F  fast interpolation
   KINTER  =     0    interpolate to denser k-point grid
   CSHIFT  =0.1000    complex shift for real part using Kramers Kronig
   OMEGAMAX=  -1.0    maximum frequency
   DEG_THRESHOLD= 0.2000000E-02 threshold for treating states as degnerate
   RTIME   =   -0.100 relaxation time in fs
  (WPLASMAI=    0.000 imaginary part of plasma frequency in eV, 0.658/RTIME)
   DFIELD  = 0.0000000 0.0000000 0.0000000 field for delta impulse in time
 
 Orbital magnetization related:
   ORBITALMAG=     F  switch on orbital magnetization
   LCHIMAG   =     F  perturbation theory with respect to B field
   DQ        =  0.001000  dq finite difference perturbation B field
   LLRAUG    =     F  two centre corrections for induced B field



--------------------------------------------------------------------------------------------------------


 Static calculation
 charge density and potential will be updated during run
 non-spin polarized calculation
 Conjugate gradient for all bands (Freysoldt, et al. PRB 79, 241103 (2009))
 preconditioned conjugated gradient                                        
 perform sub-space diagonalisation
    before iterative eigenvector-optimisation
 modified Broyden-mixing scheme, WC =      100.0
 initial mixing is a Kerker type mixing with AMIX =  0.4000 and BMIX =      1.0000
 Hartree-type preconditioning will be used
 using additional bands           60
 reciprocal scheme for non local part
 use partial core corrections
 no Harris-corrections to forces 
 use gradient corrections 
 use of overlap-Matrix (Vanderbilt PP)
 Gauss-broadening in eV      SIGMA  =   0.01


--------------------------------------------------------------------------------------------------------


  energy-cutoff  :     1000.00
  volume of cell :     3288.85
      direct lattice vectors                 reciprocal lattice vectors
    12.325000000  0.000000000  0.000000000     0.081135903  0.046843835  0.000000000
    -6.162500000 10.673763102  0.000000000     0.000000000  0.093687670  0.000000000
     0.000000000  0.000000000 25.000000000     0.000000000  0.000000000  0.040000000

  length of vectors
    12.325000000 12.325000000 25.000000000     0.093687670  0.093687670  0.040000000


 
 k-points in units of 2pi/SCALE and weight: auto                                    
   0.00000000  0.00000000  0.00000000       1.000
 
 k-points in reciprocal lattice and weights: auto                                    
   0.00000000  0.00000000  0.00000000       1.000
 
 position of ions in fractional coordinates (direct lattice) 
   0.97245084  0.00032082  0.00056671
   0.03911838  0.13365950  0.00044017
   0.17244363  0.00029545  0.00049963
   0.23909628  0.13364792  0.00025647
   0.97245206  0.20032201  0.00048522
   0.03912836  0.33364377  0.00044415
   0.17245176  0.20035455  0.00021917
   0.23912436  0.33366572  0.00007226
   0.37246557  0.00032440  0.00045391
   0.43913747  0.13361994  0.00025834
   0.97244982  0.40030936  0.00054761
   0.03912498  0.53363679  0.00057341
   0.37241618  0.40032948  0.00000000
   0.43909960  0.53363898  0.00023241
   0.57244368  0.00031213  0.00055958
   0.63911021  0.13363175  0.00054727
   0.97245270  0.60030565  0.00064029
   0.03912449  0.73364036  0.00065451
   0.57243347  0.60030624  0.00040289
   0.63911189  0.73364188  0.00052791
   0.17245463  0.40031823  0.00028904
   0.23912018  0.53363655  0.00037851
   0.37245975  0.20029599  0.00008900
   0.43910710  0.33367342  0.00005576
   0.17245216  0.60031151  0.00052434
   0.23912337  0.73363857  0.00057513
   0.57243108  0.20028917  0.00041330
   0.63911277  0.33361863  0.00046238
   0.37243981  0.60030802  0.00036284
   0.43911609  0.73363786  0.00049419
   0.57246936  0.40032050  0.00033992
   0.63911941  0.53365087  0.00045961
   0.77244572  0.00031543  0.00059616
   0.83911628  0.13364020  0.00057531
   0.77244051  0.20030743  0.00058103
   0.83912024  0.33363573  0.00058547
   0.77244632  0.40029837  0.00058298
   0.83911898  0.53363396  0.00062110
   0.77245614  0.60030817  0.00059571
   0.83911503  0.73364318  0.00063151
   0.97245531  0.80030558  0.00065223
   0.03911471  0.93364329  0.00059805
   0.17245797  0.80031221  0.00062337
   0.23913455  0.93364719  0.00054485
   0.37245140  0.80031667  0.00055140
   0.43912449  0.93364477  0.00054143
   0.57244110  0.80031005  0.00053453
   0.63911507  0.93363899  0.00058764
   0.77244510  0.80031319  0.00060206
   0.83911661  0.93364434  0.00060683
   0.37302101  0.25122688  0.18877486
   0.42087980  0.18931315  0.19135174
   0.32515698  0.31316719  0.18639667
 
 position of ions in cartesian coordinates  (Angst):
  11.98347958  0.00342433  0.01416777
  -0.34154264  1.42664989  0.01100432
   2.12354700  0.00315355  0.01249070
   2.12325634  1.42652621  0.00641170
  10.75098721  2.13818970  0.01213047
  -1.57382270  3.56123457  0.01110375
   0.89078307  2.13853702  0.00547917
   0.89099273  3.56146885  0.00180651
   4.58863896  0.00346260  0.01134782
   4.58893648  1.42622757  0.00645846
   9.51853763  4.27280730  0.01369027
  -2.80632132  5.69591267  0.01433526
   2.12299894  4.27302204  0.00000000
   2.12335237  5.69593607  0.00581036
   7.05344483  0.00333155  0.01398950
   7.05352764  1.42635365  0.01368187
   8.28609598  6.40752033  0.01600723
  -4.03884931  7.83070339  0.01636283
   3.35585531  6.40752662  0.01007237
   3.35598594  7.83071962  0.01319763
  -0.34145776  4.27290193  0.00722612
  -0.34137895  5.69591010  0.00946273
   3.35624236  2.13791198  0.00222492
   3.35573251  3.56155103  0.00139405
  -1.57394684  6.40758280  0.01310850
  -1.57385216  7.83068434  0.01437823
   5.82093107  2.13783916  0.01033241
   5.82114012  3.56096622  0.01155939
   0.89092245  6.40754561  0.00907111
   0.89106251  7.83067670  0.01235474
   4.58870974  4.27292622  0.00849795
   4.58852320  5.69606300  0.01149026
   9.51844972  0.00336679  0.01490402
   9.51855036  1.42644387  0.01438264
   8.28593477  2.13803408  0.01452582
   8.28612680  3.56114872  0.01463668
   7.05356221  4.27268994  0.01457444
   7.05362213  5.69588251  0.01552751
   5.82112285  6.40754723  0.01489279
   5.82101669  7.83073350  0.01578780
   7.05362858  8.54227219  0.01630582
  -5.27148792  9.96548729  0.01495127
  -2.80637951  8.54234295  0.01558431
  -2.80626749  9.96552896  0.01362126
  -0.34148805  8.54239058  0.01378498
  -0.34137657  9.96550309  0.01353576
   2.12342586  8.54231992  0.01336337
   2.12354296  9.96544135  0.01469111
   4.58845581  8.54235337  0.01505154
   4.58852904  9.96549848  0.01517076
   3.04929830  2.68153618  4.71937156
   4.02070129  2.02068374  4.78379342
   2.07766701  3.34267235  4.65991669
 


--------------------------------------------------------------------------------------------------------


 k-point   1 :   0.0000 0.0000 0.0000  plane waves:  236157

 maximum and minimum number of plane-waves per node :    236157   236157

 maximum number of plane-waves:    236157
 maximum index in each direction: 
   IXMAX=   31   IYMAX=   31   IZMAX=   64
   IXMIN=  -31   IYMIN=  -31   IZMIN=  -64


 serial   3D FFT for wavefunctions
 parallel 3D FFT for charge:
    minimum data exchange during FFTs selected (reduces bandwidth)


 total amount of memory used by VASP MPI-rank0   551512. kBytes
=======================================================================

   base      :      30000. kBytes
   nonl-proj :     230539. kBytes
   fftplans  :      40716. kBytes
   grid      :     216018. kBytes
   one-center:        162. kBytes
   wavefun   :      34077. kBytes
 
     INWAV:  cpu time    0.0000: real time    0.0000
 Broyden mixing: mesh for mixing (old mesh)
   NGX = 63   NGY = 63   NGZ =129
  (NGX  =256   NGY  =256   NGZ  =540)
  gives a total of 512001 points

 initial charge density was supplied:
 charge density of overlapping atoms calculated
 number of electron     216.0000000 magnetization 
 keeping initial charge density in first step


--------------------------------------------------------------------------------------------------------


 Maximum index for augmentation-charges          471 (set IRDMAX)


--------------------------------------------------------------------------------------------------------


 First call to EWALD:  gamma=   0.119
 Maximum number of real-space cells 4x 4x 2
 Maximum number of reciprocal cells 2x 2x 4

    FEWALD:  cpu time    0.0025: real time    0.0025


--------------------------------------- Iteration      1(   1)  ---------------------------------------


vdW kernel read from vdw_kernel.bindat
  0.0000  0.2424  0.5071  0.7962  1.1119  1.4567  1.8333  2.2446  2.6937  3.1842
  3.7199  4.3049  4.9438  5.6415  6.4036  7.2358  8.1446  9.1372 10.2212 11.4050
 12.6979 14.1099 15.6519 17.3360 19.1751 21.1837 23.3773 25.7729 28.3892 31.2465
 34.3669 37.7748 41.4965 45.5611 50.0000
 
    POTLOK:  cpu time    8.3201: real time    8.4019
    SETDIJ:  cpu time    0.1786: real time    0.1794
    TRIAL :  cpu time   15.3472: real time   15.4631
    CORREC:  cpu time    0.0006: real time    0.0008
    --------------------------------------------
      LOOP:  cpu time   23.8608: real time   24.0647

 eigenvalue-minimisations  :   336
 total energy-change (2. order) : 0.2640995E+04  (-0.1072447E+05)
 number of electron     216.0000000 magnetization 
 augmentation part      216.0000000 magnetization 

 Free energy of the ion-electron system (eV)
  ---------------------------------------------------
  alpha Z        PSCENC =        47.94900195
  Ewald energy   TEWEN  =     45170.36305123
  -Hartree energ DENC   =    -51239.51742434
  -exchange      EXHF   =         0.00000000
  -V(xc)+E(xc)   XCENC  =       398.23303774
  PAW double counting   =      6564.79108649    -6260.84737255
  entropy T*S    EENTRO =        -0.00000000
  eigenvalues    EBANDS =      -501.06017902
  atomic energy  EATOM  =      8461.08393172
  ---------------------------------------------------
  free energy    TOTEN  =      2640.99513321 eV

  energy without entropy =     2640.99513321  energy(sigma->0) =     2640.99513321


--------------------------------------------------------------------------------------------------------




--------------------------------------- Iteration      1(   2)  ---------------------------------------


    TRIAL :  cpu time   26.8757: real time   27.0757
    CORREC:  cpu time    0.0001: real time    0.0001
    --------------------------------------------
      LOOP:  cpu time   26.9173: real time   27.1201

 eigenvalue-minimisations  :   672
 total energy-change (2. order) :-0.2445846E+04  (-0.2318796E+04)
 number of electron     216.0000000 magnetization 
 augmentation part      216.0000000 magnetization 

 Free energy of the ion-electron system (eV)
  ---------------------------------------------------
  alpha Z        PSCENC =        47.94900195
  Ewald energy   TEWEN  =     45170.36305123
  -Hartree energ DENC   =    -51239.51742434
  -exchange      EXHF   =         0.00000000
  -V(xc)+E(xc)   XCENC  =       398.23303774
  PAW double counting   =      6564.79108649    -6260.84737255
  entropy T*S    EENTRO =        -0.00000000
  eigenvalues    EBANDS =     -2946.90647563
  atomic energy  EATOM  =      8461.08393172
  ---------------------------------------------------
  free energy    TOTEN  =       195.14883661 eV

  energy without entropy =      195.14883661  energy(sigma->0) =      195.14883661


--------------------------------------------------------------------------------------------------------




--------------------------------------- Iteration      1(   3)  ---------------------------------------


    TRIAL :  cpu time   19.1485: real time   19.3036
    CORREC:  cpu time    0.0001: real time    0.0001
    --------------------------------------------
      LOOP:  cpu time   19.1813: real time   19.3403

 eigenvalue-minimisations  :   448
 total energy-change (2. order) :-0.6194022E+03  (-0.6171289E+03)
 number of electron     216.0000000 magnetization 
 augmentation part      216.0000000 magnetization 

 Free energy of the ion-electron system (eV)
  ---------------------------------------------------
  alpha Z        PSCENC =        47.94900195
  Ewald energy   TEWEN  =     45170.36305123
  -Hartree energ DENC   =    -51239.51742434
  -exchange      EXHF   =         0.00000000
  -V(xc)+E(xc)   XCENC  =       398.23303774
  PAW double counting   =      6564.79108649    -6260.84737255
  entropy T*S    EENTRO =        -0.00000000
  eigenvalues    EBANDS =     -3566.30867040
  atomic energy  EATOM  =      8461.08393172
  ---------------------------------------------------
  free energy    TOTEN  =      -424.25335817 eV

  energy without entropy =     -424.25335817  energy(sigma->0) =     -424.25335817


--------------------------------------------------------------------------------------------------------




--------------------------------------- Iteration      1(   4)  ---------------------------------------


    TRIAL :  cpu time   19.1521: real time   19.2951
    CORREC:  cpu time    0.0001: real time    0.0001
    --------------------------------------------
      LOOP:  cpu time   19.1944: real time   19.3471

 eigenvalue-minimisations  :   448
 total energy-change (2. order) :-0.2126224E+02  (-0.2113571E+02)
 number of electron     216.0000000 magnetization 
 augmentation part      216.0000000 magnetization 

 Free energy of the ion-electron system (eV)
  ---------------------------------------------------
  alpha Z        PSCENC =        47.94900195
  Ewald energy   TEWEN  =     45170.36305123
  -Hartree energ DENC   =    -51239.51742434
  -exchange      EXHF   =         0.00000000
  -V(xc)+E(xc)   XCENC  =       398.23303774
  PAW double counting   =      6564.79108649    -6260.84737255
  entropy T*S    EENTRO =        -0.00000000
  eigenvalues    EBANDS =     -3587.57091456
  atomic energy  EATOM  =      8461.08393172
  ---------------------------------------------------
  free energy    TOTEN  =      -445.51560233 eV

  energy without entropy =     -445.51560233  energy(sigma->0) =     -445.51560233


--------------------------------------------------------------------------------------------------------




--------------------------------------- Iteration      1(   5)  ---------------------------------------


    TRIAL :  cpu time   17.2421: real time   17.3751
    CORREC:  cpu time    0.0001: real time    0.0001
    CHARGE:  cpu time    0.8322: real time    0.8379
    --------------------------------------------
      LOOP:  cpu time   18.1316: real time   18.2783

 eigenvalue-minimisations  :   392
 total energy-change (2. order) :-0.7127882E+00  (-0.7114879E+00)
 number of electron     216.0000000 magnetization 
 augmentation part       -0.2165463 magnetization 

 Free energy of the ion-electron system (eV)
  ---------------------------------------------------
  alpha Z        PSCENC =        47.94900195
  Ewald energy   TEWEN  =     45170.36305123
  -Hartree energ DENC   =    -51239.51742434
  -exchange      EXHF   =         0.00000000
  -V(xc)+E(xc)   XCENC  =       398.23303774
  PAW double counting   =      6564.79108649    -6260.84737255
  entropy T*S    EENTRO =        -0.00000000
  eigenvalues    EBANDS =     -3588.28370281
  atomic energy  EATOM  =      8461.08393172
  ---------------------------------------------------
  free energy    TOTEN  =      -446.22839058 eV

  energy without entropy =     -446.22839058  energy(sigma->0) =     -446.22839058


--------------------------------------------------------------------------------------------------------




--------------------------------------- Iteration      1(   6)  ---------------------------------------


    POTLOK:  cpu time    7.9297: real time    7.9829
    SETDIJ:  cpu time    0.3126: real time    0.3138
    TRIAL :  cpu time    6.9172: real time    6.9702
    CORREC:  cpu time    9.7062: real time    9.7729
    CHARGE:  cpu time    0.7971: real time    0.8022
    --------------------------------------------
      LOOP:  cpu time   25.6958: real time   25.8797

 eigenvalue-minimisations  :     0
 total energy-change (2. order) : 0.5517528E+02  (-0.1762533E+02)
 number of electron     216.0000000 magnetization 
 augmentation part       -0.3295365 magnetization 

 Free energy of the ion-electron system (eV)
  ---------------------------------------------------
  alpha Z        PSCENC =        47.94900195
  Ewald energy   TEWEN  =     45170.36305123
  -Hartree energ DENC   =    -52718.07627906
  -exchange      EXHF   =         0.00000000
  -V(xc)+E(xc)   XCENC  =       448.09795554
  PAW double counting   =     71412.75566613   -71116.98598894
  entropy T*S    EENTRO =        -0.00000000
  eigenvalues    EBANDS =     -2096.24044685
  atomic energy  EATOM  =      8461.08393172
  ---------------------------------------------------
  free energy    TOTEN  =      -391.05310828 eV

  energy without entropy =     -391.05310828  energy(sigma->0) =     -391.05310828


--------------------------------------------------------------------------------------------------------




--------------------------------------- Iteration      1(   7)  ---------------------------------------


    POTLOK:  cpu time    7.9160: real time    7.9667
    SETDIJ:  cpu time    0.3711: real time    0.3724
    TRIAL :  cpu time    6.8957: real time    6.9467
    CORREC:  cpu time    9.7453: real time    9.8086
    CHARGE:  cpu time    0.7979: real time    0.8027
    --------------------------------------------
      LOOP:  cpu time   25.7372: real time   25.9661

 eigenvalue-minimisations  :     0
 total energy-change (2. order) :-0.1767211E+02  (-0.2010911E+01)
 number of electron     216.0000000 magnetization 
 augmentation part       -0.3785505 magnetization 

 Free energy of the ion-electron system (eV)
  ---------------------------------------------------
  alpha Z        PSCENC =        47.94900195
  Ewald energy   TEWEN  =     45170.36305123
  -Hartree energ DENC   =    -52185.41041295
  -exchange      EXHF   =         0.00000000
  -V(xc)+E(xc)   XCENC  =       430.17557012
  PAW double counting   =     86343.87613770   -86044.86439214
  entropy T*S    EENTRO =        -0.00000000
  eigenvalues    EBANDS =     -2631.89810556
  atomic energy  EATOM  =      8461.08393172
  ---------------------------------------------------
  free energy    TOTEN  =      -408.72521793 eV

  energy without entropy =     -408.72521793  energy(sigma->0) =     -408.72521793


--------------------------------------------------------------------------------------------------------




--------------------------------------- Iteration      1(   8)  ---------------------------------------


    POTLOK:  cpu time    7.9532: real time    8.0118
    SETDIJ:  cpu time    0.2472: real time    0.2481
    TRIAL :  cpu time    6.8967: real time    6.9498
    CORREC:  cpu time    9.7392: real time    9.8085
    CHARGE:  cpu time    0.7990: real time    0.8042
    --------------------------------------------
      LOOP:  cpu time   25.6686: real time   25.8717

 eigenvalue-minimisations  :     0
 total energy-change (2. order) :-0.2010471E+01  (-0.5798301E+00)
 number of electron     216.0000000 magnetization 
 augmentation part       -0.3941933 magnetization 

 Free energy of the ion-electron system (eV)
  ---------------------------------------------------
  alpha Z        PSCENC =        47.94900195
  Ewald energy   TEWEN  =     45170.36305123
  -Hartree energ DENC   =    -52156.56565791
  -exchange      EXHF   =         0.00000000
  -V(xc)+E(xc)   XCENC  =       429.53719460
  PAW double counting   =     90804.94533424   -90505.49015914
  entropy T*S    EENTRO =        -0.00000000
  eigenvalues    EBANDS =     -2662.55838569
  atomic energy  EATOM  =      8461.08393172
  ---------------------------------------------------
  free energy    TOTEN  =      -410.73568901 eV

  energy without entropy =     -410.73568901  energy(sigma->0) =     -410.73568901


--------------------------------------------------------------------------------------------------------




--------------------------------------- Iteration      1(   9)  ---------------------------------------


    POTLOK:  cpu time    7.8938: real time    7.9516
    SETDIJ:  cpu time    0.3102: real time    0.3113
    TRIAL :  cpu time    6.8910: real time    6.9449
    CORREC:  cpu time    9.7614: real time    9.8401
    CHARGE:  cpu time    0.7977: real time    0.8038
    --------------------------------------------
      LOOP:  cpu time   25.7021: real time   25.9234

 eigenvalue-minimisations  :     0
 total energy-change (2. order) :-0.5796976E+00  (-0.2206433E+00)
 number of electron     216.0000000 magnetization 
 augmentation part       -0.3994824 magnetization 

 Free energy of the ion-electron system (eV)
  ---------------------------------------------------
  alpha Z        PSCENC =        47.94900195
  Ewald energy   TEWEN  =     45170.36305123
  -Hartree energ DENC   =    -52169.54465338
  -exchange      EXHF   =         0.00000000
  -V(xc)+E(xc)   XCENC  =       429.64005153
  PAW double counting   =     94050.61556466   -93750.96367219
  entropy T*S    EENTRO =        -0.00000000
  eigenvalues    EBANDS =     -2650.45866214
  atomic energy  EATOM  =      8461.08393172
  ---------------------------------------------------
  free energy    TOTEN  =      -411.31538663 eV

  energy without entropy =     -411.31538663  energy(sigma->0) =     -411.31538663


--------------------------------------------------------------------------------------------------------




--------------------------------------- Iteration      1(  10)  ---------------------------------------


    POTLOK:  cpu time    7.8913: real time    7.9735
    SETDIJ:  cpu time    0.3310: real time    0.3321
    TRIAL :  cpu time    6.8785: real time    6.9402
    CORREC:  cpu time    9.7298: real time    9.8073
    CHARGE:  cpu time    0.7969: real time    0.8030
    --------------------------------------------
      LOOP:  cpu time   25.7313: real time   25.9634

 eigenvalue-minimisations  :     0
 total energy-change (2. order) :-0.2199144E+00  (-0.9669885E-01)
 number of electron     216.0000000 magnetization 
 augmentation part       -0.3972017 magnetization 

 Free energy of the ion-electron system (eV)
  ---------------------------------------------------
  alpha Z        PSCENC =        47.94900195
  Ewald energy   TEWEN  =     45170.36305123
  -Hartree energ DENC   =    -52166.58089304
  -exchange      EXHF   =         0.00000000
  -V(xc)+E(xc)   XCENC  =       429.47840515
  PAW double counting   =     94885.24650719   -94585.47822066
  entropy T*S    EENTRO =        -0.00000000
  eigenvalues    EBANDS =     -2653.59708459
  atomic energy  EATOM  =      8461.08393172
  ---------------------------------------------------
  free energy    TOTEN  =      -411.53530105 eV

  energy without entropy =     -411.53530105  energy(sigma->0) =     -411.53530105


--------------------------------------------------------------------------------------------------------




--------------------------------------- Iteration      1(  11)  ---------------------------------------


    POTLOK:  cpu time    7.9019: real time    7.9739
    SETDIJ:  cpu time    0.2768: real time    0.2778
    TRIAL :  cpu time    6.8829: real time    6.9393
    CORREC:  cpu time    9.7313: real time    9.7982
    CHARGE:  cpu time    0.7983: real time    0.8042
    --------------------------------------------
      LOOP:  cpu time   25.6571: real time   25.8604

 eigenvalue-minimisations  :     0
 total energy-change (2. order) :-0.9625003E-01  (-0.3634589E-01)
 number of electron     216.0000000 magnetization 
 augmentation part       -0.3948934 magnetization 

 Free energy of the ion-electron system (eV)
  ---------------------------------------------------
  alpha Z        PSCENC =        47.94900195
  Ewald energy   TEWEN  =     45170.36305123
  -Hartree energ DENC   =    -52158.08370162
  -exchange      EXHF   =         0.00000000
  -V(xc)+E(xc)   XCENC  =       429.34879334
  PAW double counting   =     94469.31376064   -94169.54843165
  entropy T*S    EENTRO =        -0.00000000
  eigenvalues    EBANDS =     -2662.05795669
  atomic energy  EATOM  =      8461.08393172
  ---------------------------------------------------
  free energy    TOTEN  =      -411.63155108 eV

  energy without entropy =     -411.63155108  energy(sigma->0) =     -411.63155108


--------------------------------------------------------------------------------------------------------




--------------------------------------- Iteration      1(  12)  ---------------------------------------


    POTLOK:  cpu time    7.8926: real time    7.9532
    SETDIJ:  cpu time    0.3225: real time    0.3237
    TRIAL :  cpu time    6.8862: real time    6.9481
    CORREC:  cpu time    9.7263: real time    9.8089
    CHARGE:  cpu time    0.7979: real time    0.8032
    --------------------------------------------
      LOOP:  cpu time   25.6956: real time   25.9113

 eigenvalue-minimisations  :     0
 total energy-change (2. order) :-0.3632353E-01  (-0.1075071E-01)
 number of electron     216.0000000 magnetization 
 augmentation part       -0.3944454 magnetization 

 Free energy of the ion-electron system (eV)
  ---------------------------------------------------
  alpha Z        PSCENC =        47.94900195
  Ewald energy   TEWEN  =     45170.36305123
  -Hartree energ DENC   =    -52153.87359802
  -exchange      EXHF   =         0.00000000
  -V(xc)+E(xc)   XCENC  =       429.27171031
  PAW double counting   =     94005.17106253   -93705.43848902
  entropy T*S    EENTRO =        -0.00000000
  eigenvalues    EBANDS =     -2666.19454530
  atomic energy  EATOM  =      8461.08393172
  ---------------------------------------------------
  free energy    TOTEN  =      -411.66787461 eV

  energy without entropy =     -411.66787461  energy(sigma->0) =     -411.66787461


--------------------------------------------------------------------------------------------------------




--------------------------------------- Iteration      1(  13)  ---------------------------------------


    POTLOK:  cpu time    7.9065: real time    7.9593
    SETDIJ:  cpu time    0.3535: real time    0.3548
    TRIAL :  cpu time    6.8910: real time    6.9468
    CORREC:  cpu time    9.7307: real time    9.7962
    CHARGE:  cpu time    0.7971: real time    0.8023
    --------------------------------------------
      LOOP:  cpu time   25.7282: real time   25.9093

 eigenvalue-minimisations  :     0
 total energy-change (2. order) :-0.1078872E-01  (-0.2796184E-02)
 number of electron     216.0000000 magnetization 
 augmentation part       -0.3941948 magnetization 

 Free energy of the ion-electron system (eV)
  ---------------------------------------------------
  alpha Z        PSCENC =        47.94900195
  Ewald energy   TEWEN  =     45170.36305123
  -Hartree energ DENC   =    -52152.92771205
  -exchange      EXHF   =         0.00000000
  -V(xc)+E(xc)   XCENC  =       429.23685235
  PAW double counting   =     93776.82719347   -93477.10970862
  entropy T*S    EENTRO =        -0.00000000
  eigenvalues    EBANDS =     -2667.10127337
  atomic energy  EATOM  =      8461.08393172
  ---------------------------------------------------
  free energy    TOTEN  =      -411.67866333 eV

  energy without entropy =     -411.67866333  energy(sigma->0) =     -411.67866333


--------------------------------------------------------------------------------------------------------




--------------------------------------- Iteration      1(  14)  ---------------------------------------


    POTLOK:  cpu time    7.8912: real time    7.9468
    SETDIJ:  cpu time    0.3348: real time    0.3361
    TRIAL :  cpu time    6.8952: real time    6.9480
    CORREC:  cpu time    9.7140: real time    9.7811
    CHARGE:  cpu time    0.7950: real time    0.8011
    --------------------------------------------
      LOOP:  cpu time   25.6947: real time   25.8807

 eigenvalue-minimisations  :     0
 total energy-change (2. order) :-0.2818677E-02  (-0.7255546E-03)
 number of electron     216.0000000 magnetization 
 augmentation part       -0.3941362 magnetization 

 Free energy of the ion-electron system (eV)
  ---------------------------------------------------
  alpha Z        PSCENC =        47.94900195
  Ewald energy   TEWEN  =     45170.36305123
  -Hartree energ DENC   =    -52152.79822130
  -exchange      EXHF   =         0.00000000
  -V(xc)+E(xc)   XCENC  =       429.22908047
  PAW double counting   =     93730.03961209   -93430.32801940
  entropy T*S    EENTRO =        -0.00000000
  eigenvalues    EBANDS =     -2667.21991876
  atomic energy  EATOM  =      8461.08393172
  ---------------------------------------------------
  free energy    TOTEN  =      -411.68148201 eV

  energy without entropy =     -411.68148201  energy(sigma->0) =     -411.68148201


--------------------------------------------------------------------------------------------------------




--------------------------------------- Iteration      1(  15)  ---------------------------------------


    POTLOK:  cpu time    7.9281: real time    7.9913
    SETDIJ:  cpu time    0.2945: real time    0.2955
    TRIAL :  cpu time    6.8882: real time    6.9494
    CORREC:  cpu time    9.7307: real time    9.8080
    CHARGE:  cpu time    0.7987: real time    0.8046
    --------------------------------------------
      LOOP:  cpu time   25.6831: real time   25.8961

 eigenvalue-minimisations  :     0
 total energy-change (2. order) :-0.7343657E-03  (-0.2097148E-03)
 number of electron     216.0000000 magnetization 
 augmentation part       -0.3940492 magnetization 

 Free energy of the ion-electron system (eV)
  ---------------------------------------------------
  alpha Z        PSCENC =        47.94900195
  Ewald energy   TEWEN  =     45170.36305123
  -Hartree energ DENC   =    -52152.60215431
  -exchange      EXHF   =         0.00000000
  -V(xc)+E(xc)   XCENC  =       429.21939941
  PAW double counting   =     93727.00646369   -93427.29516014
  entropy T*S    EENTRO =        -0.00000000
  eigenvalues    EBANDS =     -2667.40674992
  atomic energy  EATOM  =      8461.08393172
  ---------------------------------------------------
  free energy    TOTEN  =      -411.68221637 eV

  energy without entropy =     -411.68221637  energy(sigma->0) =     -411.68221637


--------------------------------------------------------------------------------------------------------




--------------------------------------- Iteration      1(  16)  ---------------------------------------


    POTLOK:  cpu time    7.9242: real time    7.9766
    SETDIJ:  cpu time    0.2925: real time    0.2935
    TRIAL :  cpu time    6.9004: real time    6.9517
    CORREC:  cpu time    9.7135: real time    9.7778
    CHARGE:  cpu time    0.7989: real time    0.8045
    --------------------------------------------
      LOOP:  cpu time   25.6880: real time   25.8806

 eigenvalue-minimisations  :     0
 total energy-change (2. order) :-0.2151267E-03  (-0.7472984E-04)
 number of electron     216.0000000 magnetization 
 augmentation part       -0.3939526 magnetization 

 Free energy of the ion-electron system (eV)
  ---------------------------------------------------
  alpha Z        PSCENC =        47.94900195
  Ewald energy   TEWEN  =     45170.36305123
  -Hartree energ DENC   =    -52152.67823193
  -exchange      EXHF   =         0.00000000
  -V(xc)+E(xc)   XCENC  =       429.22078622
  PAW double counting   =     93709.99339139   -93410.28238268
  entropy T*S    EENTRO =        -0.00000000
  eigenvalues    EBANDS =     -2667.33197939
  atomic energy  EATOM  =      8461.08393172
  ---------------------------------------------------
  free energy    TOTEN  =      -411.68243150 eV

  energy without entropy =     -411.68243150  energy(sigma->0) =     -411.68243150


--------------------------------------------------------------------------------------------------------




--------------------------------------- Iteration      1(  17)  ---------------------------------------


    POTLOK:  cpu time    7.9210: real time    7.9743
    SETDIJ:  cpu time    0.2668: real time    0.2678
    TRIAL :  cpu time    6.8997: real time    6.9513
    CORREC:  cpu time    9.7334: real time    9.8029
    CHARGE:  cpu time    0.7993: real time    0.8045
    --------------------------------------------
      LOOP:  cpu time   25.6687: real time   25.8570

 eigenvalue-minimisations  :     0
 total energy-change (2. order) :-0.7771573E-04  (-0.2817984E-04)
 number of electron     216.0000000 magnetization 
 augmentation part       -0.3939551 magnetization 

 Free energy of the ion-electron system (eV)
  ---------------------------------------------------
  alpha Z        PSCENC =        47.94900195
  Ewald energy   TEWEN  =     45170.36305123
  -Hartree energ DENC   =    -52152.84185272
  -exchange      EXHF   =         0.00000000
  -V(xc)+E(xc)   XCENC  =       429.22613335
  PAW double counting   =     93693.42857295   -93393.71795485
  entropy T*S    EENTRO =        -0.00000000
  eigenvalues    EBANDS =     -2667.17339284
  atomic energy  EATOM  =      8461.08393172
  ---------------------------------------------------
  free energy    TOTEN  =      -411.68250921 eV

  energy without entropy =     -411.68250921  energy(sigma->0) =     -411.68250921


--------------------------------------------------------------------------------------------------------




--------------------------------------- Iteration      1(  18)  ---------------------------------------


    POTLOK:  cpu time    7.9155: real time    7.9776
    SETDIJ:  cpu time    0.2766: real time    0.2776
    TRIAL :  cpu time    6.8833: real time    6.9401
    CORREC:  cpu time    9.7345: real time    9.8004
    CHARGE:  cpu time    0.7973: real time    0.8025
    --------------------------------------------
      LOOP:  cpu time   25.6461: real time   25.8677

 eigenvalue-minimisations  :     0
 total energy-change (2. order) :-0.2983338E-04  (-0.1161081E-04)
 number of electron     216.0000000 magnetization 
 augmentation part       -0.3939688 magnetization 

 Free energy of the ion-electron system (eV)
  ---------------------------------------------------
  alpha Z        PSCENC =        47.94900195
  Ewald energy   TEWEN  =     45170.36305123
  -Hartree energ DENC   =    -52152.86417760
  -exchange      EXHF   =         0.00000000
  -V(xc)+E(xc)   XCENC  =       429.22611914
  PAW double counting   =     93690.49129006   -93390.78004413
  entropy T*S    EENTRO =        -0.00000000
  eigenvalues    EBANDS =     -2667.15171141
  atomic energy  EATOM  =      8461.08393172
  ---------------------------------------------------
  free energy    TOTEN  =      -411.68253905 eV

  energy without entropy =     -411.68253905  energy(sigma->0) =     -411.68253905


--------------------------------------------------------------------------------------------------------




--------------------------------------- Iteration      1(  19)  ---------------------------------------


    POTLOK:  cpu time    7.9468: real time    8.0067
    SETDIJ:  cpu time    0.2431: real time    0.2439
    TRIAL :  cpu time    6.8869: real time    6.9424
    CORREC:  cpu time    9.7112: real time    9.7796
    CHARGE:  cpu time    0.8008: real time    0.8059
    --------------------------------------------
      LOOP:  cpu time   25.5976: real time   25.8313

 eigenvalue-minimisations  :     0
 total energy-change (2. order) :-0.1239756E-04  (-0.4957260E-05)
 number of electron     216.0000000 magnetization 
 augmentation part       -0.3939922 magnetization 

 Free energy of the ion-electron system (eV)
  ---------------------------------------------------
  alpha Z        PSCENC =        47.94900195
  Ewald energy   TEWEN  =     45170.36305123
  -Hartree energ DENC   =    -52152.89762659
  -exchange      EXHF   =         0.00000000
  -V(xc)+E(xc)   XCENC  =       429.22729796
  PAW double counting   =     93695.54226577   -93395.83077701
  entropy T*S    EENTRO =        -0.00000000
  eigenvalues    EBANDS =     -2667.11969647
  atomic energy  EATOM  =      8461.08393172
  ---------------------------------------------------
  free energy    TOTEN  =      -411.68255144 eV

  energy without entropy =     -411.68255144  energy(sigma->0) =     -411.68255144


--------------------------------------------------------------------------------------------------------




--------------------------------------- Iteration      1(  20)  ---------------------------------------


    POTLOK:  cpu time    7.8993: real time    7.9546
    SETDIJ:  cpu time    0.3320: real time    0.3330
    TRIAL :  cpu time    6.8873: real time    6.9412
    CORREC:  cpu time    9.7144: real time    9.7863
    CHARGE:  cpu time    0.7968: real time    0.8026
    --------------------------------------------
      LOOP:  cpu time   25.7216: real time   25.9104

 eigenvalue-minimisations  :     0
 total energy-change (2. order) :-0.5230249E-05  (-0.2183293E-05)
 number of electron     216.0000000 magnetization 
 augmentation part       -0.3940056 magnetization 

 Free energy of the ion-electron system (eV)
  ---------------------------------------------------
  alpha Z        PSCENC =        47.94900195
  Ewald energy   TEWEN  =     45170.36305123
  -Hartree energ DENC   =    -52152.92101352
  -exchange      EXHF   =         0.00000000
  -V(xc)+E(xc)   XCENC  =       429.22789727
  PAW double counting   =     93701.30411394   -93401.59248090
  entropy T*S    EENTRO =        -0.00000000
  eigenvalues    EBANDS =     -2667.09705836
  atomic energy  EATOM  =      8461.08393172
  ---------------------------------------------------
  free energy    TOTEN  =      -411.68255667 eV

  energy without entropy =     -411.68255667  energy(sigma->0) =     -411.68255667


--------------------------------------------------------------------------------------------------------




--------------------------------------- Iteration      1(  21)  ---------------------------------------


    POTLOK:  cpu time    7.9195: real time    7.9718
    SETDIJ:  cpu time    0.3186: real time    0.3198
    TRIAL :  cpu time    6.9038: real time    6.9552
    CORREC:  cpu time    9.7095: real time    9.7745
    CHARGE:  cpu time    0.8004: real time    0.8056
    --------------------------------------------
      LOOP:  cpu time   25.7321: real time   25.9091

 eigenvalue-minimisations  :     0
 total energy-change (2. order) :-0.2197514E-05  (-0.7854114E-06)
 number of electron     216.0000000 magnetization 
 augmentation part       -0.3939980 magnetization 

 Free energy of the ion-electron system (eV)
  ---------------------------------------------------
  alpha Z        PSCENC =        47.94900195
  Ewald energy   TEWEN  =     45170.36305123
  -Hartree energ DENC   =    -52152.92089557
  -exchange      EXHF   =         0.00000000
  -V(xc)+E(xc)   XCENC  =       429.22765607
  PAW double counting   =     93703.99585237   -93404.28415474
  entropy T*S    EENTRO =        -0.00000000
  eigenvalues    EBANDS =     -2667.09700190
  atomic energy  EATOM  =      8461.08393172
  ---------------------------------------------------
  free energy    TOTEN  =      -411.68255887 eV

  energy without entropy =     -411.68255887  energy(sigma->0) =     -411.68255887


--------------------------------------------------------------------------------------------------------




--------------------------------------- Iteration      1(  22)  ---------------------------------------


    POTLOK:  cpu time    7.9025: real time    7.9558
    SETDIJ:  cpu time    0.3154: real time    0.3166
    TRIAL :  cpu time    6.8939: real time    6.9461
    CORREC:  cpu time    9.7450: real time    9.8138
    CHARGE:  cpu time    0.7980: real time    0.8032
    --------------------------------------------
      LOOP:  cpu time   25.7059: real time   25.8912

 eigenvalue-minimisations  :     0
 total energy-change (2. order) :-0.7935596E-06  (-0.3904898E-06)
 number of electron     216.0000000 magnetization 
 augmentation part       -0.3939970 magnetization 

 Free energy of the ion-electron system (eV)
  ---------------------------------------------------
  alpha Z        PSCENC =        47.94900195
  Ewald energy   TEWEN  =     45170.36305123
  -Hartree energ DENC   =    -52152.92329764
  -exchange      EXHF   =         0.00000000
  -V(xc)+E(xc)   XCENC  =       429.22775801
  PAW double counting   =     93703.43565948   -93403.72406892
  entropy T*S    EENTRO =        -0.00000000
  eigenvalues    EBANDS =     -2667.09459548
  atomic energy  EATOM  =      8461.08393172
  ---------------------------------------------------
  free energy    TOTEN  =      -411.68255967 eV

  energy without entropy =     -411.68255967  energy(sigma->0) =     -411.68255967


--------------------------------------------------------------------------------------------------------




--------------------------------------- Iteration      1(  23)  ---------------------------------------


    POTLOK:  cpu time    7.8738: real time    7.9364
    SETDIJ:  cpu time    0.3565: real time    0.3578
    TRIAL :  cpu time    6.8926: real time    6.9497
    CORREC:  cpu time    9.7366: real time    9.8076
    CHARGE:  cpu time    0.7980: real time    0.8038
    --------------------------------------------
      LOOP:  cpu time   25.7324: real time   25.9332

 eigenvalue-minimisations  :     0
 total energy-change (2. order) :-0.3553432E-06  (-0.3161126E-06)
 number of electron     216.0000000 magnetization 
 augmentation part       -0.3939936 magnetization 

 Free energy of the ion-electron system (eV)
  ---------------------------------------------------
  alpha Z        PSCENC =        47.94900195
  Ewald energy   TEWEN  =     45170.36305123
  -Hartree energ DENC   =    -52152.91253594
  -exchange      EXHF   =         0.00000000
  -V(xc)+E(xc)   XCENC  =       429.22736929
  PAW double counting   =     93701.88531885   -93402.17373600
  entropy T*S    EENTRO =        -0.00000000
  eigenvalues    EBANDS =     -2667.10496112
  atomic energy  EATOM  =      8461.08393172
  ---------------------------------------------------
  free energy    TOTEN  =      -411.68256002 eV

  energy without entropy =     -411.68256002  energy(sigma->0) =     -411.68256002


--------------------------------------------------------------------------------------------------------




--------------------------------------- Iteration      1(  24)  ---------------------------------------


    POTLOK:  cpu time    7.9596: real time    8.0434
    SETDIJ:  cpu time    0.3130: real time    0.3143
    TRIAL :  cpu time    6.8910: real time    6.9469
    CORREC:  cpu time    9.7298: real time    9.7997
    CHARGE:  cpu time    0.7990: real time    0.8043
    --------------------------------------------
      LOOP:  cpu time   25.7262: real time   25.9453

 eigenvalue-minimisations  :     0
 total energy-change (2. order) : 0.5601032E-07  (-0.2544708E-06)
 number of electron     216.0000000 magnetization 
 augmentation part       -0.3940007 magnetization 

 Free energy of the ion-electron system (eV)
  ---------------------------------------------------
  alpha Z        PSCENC =        47.94900195
  Ewald energy   TEWEN  =     45170.36305123
  -Hartree energ DENC   =    -52152.90997239
  -exchange      EXHF   =         0.00000000
  -V(xc)+E(xc)   XCENC  =       429.22758205
  PAW double counting   =     93700.06543491   -93400.35395999
  entropy T*S    EENTRO =        -0.00000000
  eigenvalues    EBANDS =     -2667.10762944
  atomic energy  EATOM  =      8461.08393172
  ---------------------------------------------------
  free energy    TOTEN  =      -411.68255996 eV

  energy without entropy =     -411.68255996  energy(sigma->0) =     -411.68255996


--------------------------------------------------------------------------------------------------------




--------------------------------------- Iteration      1(  25)  ---------------------------------------


    POTLOK:  cpu time    7.8928: real time    7.9517
    SETDIJ:  cpu time    0.3231: real time    0.3243
    TRIAL :  cpu time    6.9027: real time    6.9549
    CORREC:  cpu time    9.7334: real time    9.7999
    CHARGE:  cpu time    0.7992: real time    0.8044
    --------------------------------------------
      LOOP:  cpu time   25.6855: real time   25.8722

 eigenvalue-minimisations  :     0
 total energy-change (2. order) :-0.2245652E-06  (-0.7896691E-07)
 number of electron     216.0000000 magnetization 
 augmentation part       -0.3940016 magnetization 

 Free energy of the ion-electron system (eV)
  ---------------------------------------------------
  alpha Z        PSCENC =        47.94900195
  Ewald energy   TEWEN  =     45170.36305123
  -Hartree energ DENC   =    -52152.90395851
  -exchange      EXHF   =         0.00000000
  -V(xc)+E(xc)   XCENC  =       429.22722264
  PAW double counting   =     93700.42076045   -93400.70919512
  entropy T*S    EENTRO =        -0.00000000
  eigenvalues    EBANDS =     -2667.11337454
  atomic energy  EATOM  =      8461.08393172
  ---------------------------------------------------
  free energy    TOTEN  =      -411.68256019 eV

  energy without entropy =     -411.68256019  energy(sigma->0) =     -411.68256019


--------------------------------------------------------------------------------------------------------




--------------------------------------- Iteration      1(  26)  ---------------------------------------


    POTLOK:  cpu time    7.9264: real time    7.9864
    SETDIJ:  cpu time    0.2760: real time    0.2771
    TRIAL :  cpu time    6.8910: real time    6.9422
    CORREC:  cpu time   38.8858: real time   39.1513
    CHARGE:  cpu time    0.7971: real time    0.8022
    --------------------------------------------
      LOOP:  cpu time   54.8273: real time   55.2124

 eigenvalue-minimisations  :     0
 total energy-change (2. order) :-0.7008202E-07  (-0.3356925E-06)
 number of electron     216.0000000 magnetization 
 augmentation part       -0.3940061 magnetization 

 Free energy of the ion-electron system (eV)
  ---------------------------------------------------
  alpha Z        PSCENC =        47.94900195
  Ewald energy   TEWEN  =     45170.36305123
  -Hartree energ DENC   =    -52152.90703307
  -exchange      EXHF   =         0.00000000
  -V(xc)+E(xc)   XCENC  =       429.22733674
  PAW double counting   =     93700.95505597   -93401.24348767
  entropy T*S    EENTRO =        -0.00000000
  eigenvalues    EBANDS =     -2667.11041712
  atomic energy  EATOM  =      8461.08393172
  ---------------------------------------------------
  free energy    TOTEN  =      -411.68256026 eV

  energy without entropy =     -411.68256026  energy(sigma->0) =     -411.68256026


--------------------------------------------------------------------------------------------------------




--------------------------------------- Iteration      1(  27)  ---------------------------------------


    POTLOK:  cpu time    7.9037: real time    7.9611
    SETDIJ:  cpu time    0.3606: real time    0.3620
    TRIAL :  cpu time    6.9079: real time    6.9653
    CORREC:  cpu time    9.7259: real time    9.7918
    CHARGE:  cpu time    0.7990: real time    0.8050
    --------------------------------------------
      LOOP:  cpu time   25.7413: real time   25.9539

 eigenvalue-minimisations  :     0
 total energy-change (2. order) : 0.5116744E-06  (-0.4057894E-06)
 number of electron     216.0000000 magnetization 
 augmentation part       -0.3940081 magnetization 

 Free energy of the ion-electron system (eV)
[...]
      9     -21.5344      2.00000
     10     -19.7052      2.00000
     11     -19.7050      2.00000
     12     -19.7049      2.00000
     13     -19.7047      2.00000
     14     -19.7046      2.00000
     15     -19.7044      2.00000
     16     -18.8145      2.00000
     17     -18.8143      2.00000
     18     -18.8140      2.00000
     19     -18.8137      2.00000
     20     -18.8135      2.00000
     21     -18.8133      2.00000
     22     -16.6718      2.00000
     23     -16.6717      2.00000
     24     -16.6711      2.00000
     25     -16.6708      2.00000
     26     -16.6694      2.00000
     27     -16.6693      2.00000
     28     -15.6778      2.00000
     29     -15.6776      2.00000
     30     -15.6776      2.00000
     31     -15.6775      2.00000
     32     -15.6766      2.00000
     33     -15.6765      2.00000
     34     -14.3398      2.00000
     35     -14.3396      2.00000
     36     -14.3391      2.00000
     37     -14.3390      2.00000
     38     -14.3389      2.00000
     39     -14.3384      2.00000
     40     -12.6234      2.00000
     41     -11.9865      2.00000
     42     -11.9863      2.00000
     43     -11.9858      2.00000
     44     -11.9858      2.00000
     45     -11.9850      2.00000
     46     -11.9849      2.00000
     47     -11.8759      2.00000
     48     -11.8758      2.00000
     49     -11.8751      2.00000
     50     -11.8751      2.00000
     51     -11.8739      2.00000
     52     -11.8737      2.00000
     53     -11.4820      2.00000
     54     -11.3901      2.00000
     55     -11.3886      2.00000
     56     -10.6340      2.00000
     57     -10.5115      2.00000
     58     -10.5114      2.00000
     59     -10.5102      2.00000
     60     -10.5098      2.00000
     61     -10.5095      2.00000
     62     -10.5095      2.00000
     63      -9.5234      2.00000
     64      -9.5214      2.00000
     65      -9.5182      2.00000
     66      -9.5176      2.00000
     67      -9.5154      2.00000
     68      -9.5153      2.00000
     69      -9.2715      2.00000
     70      -9.2704      2.00000
     71      -9.2702      2.00000
     72      -9.2694      2.00000
     73      -9.2691      2.00000
     74      -9.2689      2.00000
     75      -9.2114      2.00000
     76      -9.2113      2.00000
     77      -9.2112      2.00000
     78      -9.2110      2.00000
     79      -9.2102      2.00000
     80      -9.2094      2.00000
     81      -7.8662      2.00000
     82      -7.8650      2.00000
     83      -7.6345      2.00000
     84      -7.6336      2.00000
     85      -7.6333      2.00000
     86      -7.6327      2.00000
     87      -7.6310      2.00000
     88      -7.6309      2.00000
     89      -7.3939      2.00000
     90      -7.3938      2.00000
     91      -7.3924      2.00000
     92      -7.3922      2.00000
     93      -7.3917      2.00000
     94      -7.3915      2.00000
     95      -6.4999      2.00000
     96      -6.4986      2.00000
     97      -6.4984      2.00000
     98      -6.4975      2.00000
     99      -6.4971      2.00000
    100      -6.4964      2.00000
    101      -6.1727      2.00000
    102      -6.1705      2.00000
    103      -4.5215      2.00000
    104      -4.5211      2.00000
    105      -4.5207      2.00000
    106      -4.5201      2.00000
    107      -4.5175      2.00000
    108      -4.5173      2.00000
    109      -1.7260      0.00000
    110      -1.7258      0.00000
    111      -1.7236      0.00000
    112      -1.7232      0.00000
    113      -1.7230      0.00000
    114      -1.7228      0.00000
    115      -0.8988      0.00000
    116      -0.2631      0.00000
    117       0.1308      0.00000
    118       0.1318      0.00000
    119       0.1325      0.00000
    120       0.1338      0.00000
    121       0.1340      0.00000
    122       0.1366      0.00000
    123       0.1516      0.00000
    124       0.2233      0.00000
    125       0.2584      0.00000
    126       0.3042      0.00000
    127       0.5131      0.00000
    128       0.5661      0.00000
    129       0.5767      0.00000
    130       0.5786      0.00000
    131       0.6956      0.00000
    132       0.8383      0.00000
    133       1.0400      0.00000
    134       1.1288      0.00000
    135       1.1449      0.00000
    136       1.2053      0.00000
    137       1.2093      0.00000
    138       1.2205      0.00000
    139       1.2410      0.00000
    140       1.4214      0.00000
    141       1.6325      0.00000
    142       1.6603      0.00000
    143       1.6671      0.00000
    144       1.6761      0.00000
    145       1.6849      0.00000
    146       1.8104      0.00000
    147       1.8621      0.00000
    148       1.8625      0.00000
    149       1.8642      0.00000
    150       1.8648      0.00000
    151       1.8649      0.00000
    152       1.8652      0.00000
    153       2.0255      0.00000
    154       2.0799      0.00000
    155       2.1278      0.00000
    156       2.1415      0.00000
    157       2.1633      0.00000
    158       2.1728      0.00000
    159       2.2880      0.00000
    160       2.3382      0.00000
    161       2.3559      0.00000
    162       2.3694      0.00000
    163       2.9002      0.00000
    164       3.5060      0.00000
    165       4.0400      0.00000
    166       4.4939      0.00000
    167       4.5311      0.00000
    168       4.5483      0.00000


--------------------------------------------------------------------------------------------------------


 soft charge-density along one line, spin component           1
         0         1         2         3         4         5         6         7         8         9
 total charge-density along one line
 
 pseudopotential strength for first ion, spin component:           1
 12.687  21.351  -0.000   0.000   0.000  -0.000   0.000   0.000
 21.351  35.929  -0.000   0.000   0.000  -0.000   0.000   0.000
 -0.000  -0.000  -3.244  -0.000   0.000  -5.814  -0.000   0.000
  0.000   0.000  -0.000  -3.251  -0.000  -0.000  -5.828  -0.000
  0.000   0.000   0.000  -0.000  -3.244   0.000  -0.000  -5.814
 -0.000  -0.000  -5.814  -0.000   0.000 -10.398  -0.000   0.000
  0.000   0.000  -0.000  -5.828  -0.000  -0.000 -10.423  -0.000
  0.000   0.000   0.000  -0.000  -5.814   0.000  -0.000 -10.398
 total augmentation occupancy for first ion, spin component:           1
  6.917  -2.317  -0.000  -0.002  -0.000   0.000   0.001  -0.000
 -2.317   0.818   0.000   0.001  -0.000  -0.000  -0.000   0.000
 -0.000   0.000   6.628  -0.007   0.000  -2.167   0.003  -0.000
 -0.002   0.001  -0.007   2.819  -0.000   0.003  -0.689   0.000
 -0.000  -0.000   0.000  -0.000   6.627  -0.000   0.000  -2.167
  0.000  -0.000  -2.167   0.003  -0.000   0.724  -0.001   0.000
  0.001  -0.000   0.003  -0.689   0.000  -0.001   0.176  -0.000
 -0.000   0.000  -0.000   0.000  -2.167   0.000  -0.000   0.724


------------------------ aborting loop because EDIFF is reached ----------------------------------------


    FORLOC:  cpu time    0.1347: real time    0.1357
    FORNL :  cpu time    3.5894: real time    3.6179
    FORCOR:  cpu time    7.8830: real time    7.9389
    OFIELD:  cpu time    0.0029: real time    0.0029

 VOLUME and BASIS-vectors are now :
 -----------------------------------------------------------------------------
  energy-cutoff  :     1000.00
  volume of cell :     3288.85
      direct lattice vectors                 reciprocal lattice vectors
    12.325000000  0.000000000  0.000000000     0.081135903  0.046843835  0.000000000
    -6.162500000 10.673763102  0.000000000     0.000000000  0.093687670  0.000000000
     0.000000000  0.000000000 25.000000000     0.000000000  0.000000000  0.040000000

  length of vectors
    12.325000000 12.325000000 25.000000000     0.093687670  0.093687670  0.040000000


 FORCES acting on ions:
    Electron-Ion                     Ewald-Force                    Non-Local-Force
 -----------------------------------------------------------------------------------------------
   0.514E+01 0.447E+01 0.245E+02   -.515E+01 -.447E+01 -.246E+02   0.941E-02 -.150E-02 0.879E-02
   0.767E+01 0.373E+01 0.286E+02   -.768E+01 -.373E+01 -.286E+02   0.112E-01 -.560E-02 -.489E-02
   0.338E+01 0.897E+01 0.318E+02   -.338E+01 -.899E+01 -.318E+02   -.106E-02 0.212E-01 0.110E-01
   0.461E+01 0.668E+01 0.410E+02   -.462E+01 -.669E+01 -.410E+02   0.201E-01 0.483E-02 0.108E-01
   0.550E+01 0.130E+01 0.248E+02   -.550E+01 -.129E+01 -.248E+02   0.329E-02 -.946E-02 -.536E-03
   0.567E+01 -.108E+01 0.251E+02   -.567E+01 0.108E+01 -.251E+02   -.760E-02 0.111E-02 -.908E-02
   0.858E+01 0.317E+01 0.381E+02   -.860E+01 -.316E+01 -.381E+02   0.243E-01 -.261E-01 0.255E-02
   0.830E+01 -.296E+01 0.395E+02   -.832E+01 0.297E+01 -.395E+02   0.444E-02 -.132E-01 -.890E-02
   -.398E+01 0.809E+01 0.320E+02   0.399E+01 -.810E+01 -.320E+02   -.825E-02 -.587E-02 -.797E-02
   -.622E+01 0.523E+01 0.399E+02   0.624E+01 -.525E+01 -.399E+02   -.396E-01 0.243E-01 0.954E-02
   0.142E+01 -.136E+01 0.219E+02   -.141E+01 0.136E+01 -.219E+02   0.964E-03 -.167E-02 -.383E-02
   0.120E+01 -.997E+00 0.209E+02   -.119E+01 0.995E+00 -.209E+02   -.106E-01 0.475E-02 0.299E-02
   0.332E+01 -.717E+01 0.426E+02   -.334E+01 0.719E+01 -.426E+02   0.406E-01 -.173E-01 0.490E-02
   0.181E+01 -.897E+01 0.328E+02   -.182E+01 0.898E+01 -.328E+02   0.118E-01 0.357E-03 -.186E-01
   -.494E+01 0.306E+01 0.241E+02   0.494E+01 -.306E+01 -.241E+02   0.788E-02 -.368E-02 0.670E-03
   -.687E+01 0.202E+01 0.262E+02   0.688E+01 -.203E+01 -.262E+02   -.544E-02 0.884E-02 -.119E-01
   -.848E+00 -.337E+00 0.203E+02   0.855E+00 0.334E+00 -.203E+02   -.428E-02 0.166E-02 0.117E-02
   0.409E+00 0.299E+01 0.211E+02   -.405E+00 -.299E+01 -.211E+02   -.573E-02 0.343E-02 0.926E-02
   -.135E+01 -.824E+01 0.281E+02   0.134E+01 0.824E+01 -.281E+02   0.119E-01 -.605E-02 0.272E-02
   -.682E+00 -.451E+01 0.226E+02   0.675E+00 0.451E+01 -.226E+02   0.369E-02 -.416E-02 -.145E-02
   0.768E+01 -.339E+01 0.300E+02   -.769E+01 0.339E+01 -.299E+02   0.207E-02 -.596E-02 -.265E-01
   0.501E+01 -.421E+01 0.262E+02   -.501E+01 0.421E+01 -.262E+02   -.687E-02 0.618E-02 -.102E-01
   -.160E+01 0.311E+01 0.467E+02   0.160E+01 -.312E+01 -.467E+02   -.169E-01 0.165E-01 0.345E-01
   -.224E+01 -.489E+01 0.457E+02   0.223E+01 0.490E+01 -.457E+02   0.162E-01 -.234E-01 0.203E-01
   0.257E+01 -.105E+01 0.220E+02   -.257E+01 0.105E+01 -.220E+02   0.215E-03 -.124E-02 -.778E-02
   0.554E+00 0.227E+01 0.220E+02   -.550E+00 -.227E+01 -.220E+02   -.884E-02 0.540E-02 0.181E-02
   -.909E+01 0.124E+01 0.338E+02   0.911E+01 -.125E+01 -.337E+02   0.174E-02 0.135E-01 -.395E-02
   -.868E+01 -.349E+01 0.321E+02   0.869E+01 0.348E+01 -.321E+02   -.187E-01 0.134E-01 0.708E-02
   0.300E+01 -.602E+01 0.269E+02   -.300E+01 0.602E+01 -.269E+02   0.936E-02 0.132E-02 -.137E-01
   0.267E+00 -.247E+01 0.229E+02   -.272E+00 0.247E+01 -.229E+02   -.258E-02 0.319E-02 -.692E-02
   -.652E+01 -.685E+01 0.364E+02   0.653E+01 0.686E+01 -.364E+02   -.200E-01 -.127E-01 0.577E-02
   -.428E+01 -.789E+01 0.290E+02   0.429E+01 0.790E+01 -.290E+02   0.676E-03 -.911E-02 0.999E-02
   0.332E+00 0.131E+01 0.208E+02   -.335E+00 -.131E+01 -.208E+02   0.849E-02 -.614E-02 0.485E-02
   0.872E+00 0.130E+01 0.218E+02   -.876E+00 -.130E+01 -.218E+02   -.864E-03 0.292E-02 -.442E-02
   -.347E+01 0.519E+00 0.229E+02   0.347E+01 -.522E+00 -.229E+02   0.422E-02 -.106E-02 0.152E-02
   -.305E+01 -.127E+01 0.226E+02   0.305E+01 0.127E+01 -.226E+02   -.801E-02 0.463E-02 0.638E-03
   -.599E+01 -.311E+01 0.247E+02   0.600E+01 0.311E+01 -.248E+02   -.787E-02 0.206E-02 0.345E-02
   -.372E+01 -.298E+01 0.223E+02   0.373E+01 0.298E+01 -.223E+02   -.783E-02 0.169E-02 0.100E-01
   -.342E+01 -.442E+01 0.233E+02   0.342E+01 0.442E+01 -.233E+02   -.646E-02 -.219E-02 0.749E-02
   -.517E+00 -.111E+01 0.212E+02   0.517E+00 0.112E+01 -.212E+02   0.266E-02 -.810E-03 0.849E-02
   0.128E+01 0.317E+01 0.216E+02   -.128E+01 -.317E+01 -.217E+02   -.468E-02 0.481E-02 0.832E-02
   0.403E+01 0.631E+01 0.254E+02   -.404E+01 -.632E+01 -.254E+02   0.357E-02 0.298E-02 0.125E-01
   0.349E+00 0.541E+01 0.230E+02   -.341E+00 -.542E+01 -.230E+02   -.437E-02 0.496E-02 0.886E-03
   -.821E-01 0.883E+01 0.290E+02   0.922E-01 -.883E+01 -.290E+02   -.152E-01 0.763E-02 0.770E-02
   -.102E+01 0.198E+01 0.227E+02   0.102E+01 -.198E+01 -.227E+02   0.269E-02 -.306E-02 -.356E-02
   -.405E+01 0.502E+01 0.256E+02   0.405E+01 -.502E+01 -.256E+02   -.102E-01 0.216E-02 -.837E-02
   -.839E+00 -.222E+01 0.218E+02   0.835E+00 0.222E+01 -.218E+02   0.998E-02 -.252E-02 0.290E-02
   -.202E+01 0.781E+00 0.211E+02   0.202E+01 -.779E+00 -.211E+02   -.504E-03 0.229E-02 -.669E-02
   0.198E+00 -.139E+01 0.210E+02   -.201E+00 0.139E+01 -.210E+02   0.654E-02 -.405E-02 0.602E-02
   0.219E+01 0.158E+01 0.211E+02   -.220E+01 -.158E+01 -.211E+02   0.396E-02 0.947E-03 0.310E-02
   0.357E-01 -.147E-01 -.342E+03   -.357E-01 0.155E-01 0.342E+03   -.357E-02 0.241E-02 -.144E-01
   -.229E+03 0.156E+03 -.525E+03   0.279E+03 -.190E+03 0.529E+03   -.513E+02 0.349E+02 -.348E+01
   0.229E+03 -.156E+03 -.503E+03   -.279E+03 0.190E+03 0.500E+03   0.513E+02 -.349E+02 0.306E+01
 -----------------------------------------------------------------------------------------------
   -.139E-02 0.100E-01 0.375E+00   0.171E-12 -.142E-12 0.568E-13   0.124E-02 -.990E-02 -.373E+00
 
 
 POSITION                                       TOTAL-FORCE (eV/Angst)
 -----------------------------------------------------------------------------------
     11.98348      0.00342      0.01417         0.002752     -0.001096     -0.000601
     -0.34154      1.42665      0.01100        -0.002154      0.000005     -0.002207
      2.12355      0.00315      0.01249        -0.001221      0.007677     -0.003975
      2.12326      1.42653      0.00641         0.010285      0.000433     -0.002727
     10.75099      2.13819      0.01213         0.000229     -0.004920      0.000432
     -1.57382      3.56123      0.01110        -0.007547      0.005133     -0.001137
      0.89078      2.13854      0.00548         0.006986     -0.015889      0.005491
      0.89099      3.56147      0.00181        -0.013072     -0.001028      0.014535
      4.58864      0.00346      0.01135         0.004575     -0.016342     -0.001879
      4.58894      1.42623      0.00646        -0.019070      0.010681      0.017480
      9.51854      4.27281      0.01369         0.006860     -0.003482      0.000392
     -2.80632      5.69591      0.01434        -0.006207      0.003275      0.000976
      2.12300      4.27302      0.00000         0.020333     -0.003237      0.024240
      2.12335      5.69594      0.00581        -0.001673      0.009859     -0.000772
      7.05344      0.00333      0.01399         0.008408     -0.004668      0.000180
      7.05353      1.42635      0.01368        -0.001560      0.004295     -0.002846
      8.28610      6.40752      0.01601         0.003421     -0.001568     -0.000556
     -4.03885      7.83070      0.01636        -0.001849      0.000975      0.000064
      3.35586      6.40753      0.01007         0.003926      0.000514     -0.000645
      3.35599      7.83072      0.01320        -0.003471      0.000664     -0.000290
     -0.34146      4.27290      0.00723        -0.001756     -0.001067     -0.003088
     -0.34138      5.69591      0.00946        -0.008349      0.005386     -0.000559
      3.35624      2.13791      0.00222        -0.010937      0.009731      0.023525
      3.35573      3.56155      0.00139         0.011492     -0.012947      0.015324
     -1.57395      6.40758      0.01311         0.006198     -0.004153     -0.000447
     -1.57385      7.83068      0.01438        -0.004519      0.003706      0.000380
      5.82093      2.13784      0.01033         0.016860      0.004123     -0.000976
      5.82114      3.56097      0.01156        -0.004577      0.006560     -0.001948
      0.89092      6.40755      0.00907         0.003983      0.001759     -0.001524
      0.89106      7.83068      0.01235        -0.007017      0.003084      0.000515
      4.58871      4.27293      0.00850        -0.009825     -0.005154     -0.006853
      4.58852      5.69606      0.01149         0.001783      0.000851     -0.002723
      9.51845      0.00337      0.01490         0.004497     -0.004505      0.000409
      9.51855      1.42644      0.01438        -0.004971      0.005828     -0.000110
      8.28593      2.13803      0.01453         0.005805     -0.003730      0.000922
      8.28613      3.56115      0.01464        -0.004050      0.001847      0.000351
      7.05356      4.27269      0.01457         0.003768     -0.000912      0.000155
      7.05362      5.69588      0.01553        -0.002237      0.001212      0.000160
      5.82112      6.40755      0.01489        -0.002135      0.001971      0.000375
      5.82102      7.83073      0.01579         0.002580      0.000533     -0.000073
      7.05363      8.54227      0.01631        -0.004449      0.000614      0.001343
     -5.27149      9.96549      0.01495        -0.000794     -0.002658     -0.001346
     -2.80638      8.54234      0.01558         0.003501     -0.002057     -0.000597
     -2.80627      9.96553      0.01362        -0.004809     -0.000318     -0.002623
     -0.34149      8.54239      0.01378         0.005759     -0.004108      0.000506
     -0.34138      9.96550      0.01354        -0.005424      0.000234     -0.000490
      2.12343      8.54232      0.01336         0.005556     -0.001529      0.000975
      2.12354      9.96544      0.01469        -0.005844      0.004063     -0.001665
      4.58846      8.54235      0.01505         0.003458     -0.002809      0.001123
      4.58853      9.96550      0.01517        -0.003403      0.003238      0.000498
      3.04930      2.68154      4.71937        -0.003576      0.003212      0.002045
      4.02070      2.02068      4.78379        -0.643695      0.437576     -0.074771
      2.07767      3.34267      4.65992         0.647174     -0.440861      0.005031
 -----------------------------------------------------------------------------------
    total drift:                               -0.000142      0.000110      0.001785


--------------------------------------------------------------------------------------------------------



  FREE ENERGIE OF THE ION-ELECTRON SYSTEM (eV)
  ---------------------------------------------------
  free  energy   TOTEN  =      -411.68256027 eV

  energy  without entropy=     -411.68256027  energy(sigma->0) =     -411.68256027
 


--------------------------------------------------------------------------------------------------------


    POTLOK:  cpu time    8.4777: real time    8.5388


--------------------------------------------------------------------------------------------------------


 writing wavefunctions
     LOOP+:  cpu time  829.9970: real time  836.6152
    4ORBIT:  cpu time    0.0000: real time    0.0000

 total amount of memory used by VASP MPI-rank0   551512. kBytes
=======================================================================

   base      :      30000. kBytes
   nonl-proj :     230539. kBytes
   fftplans  :      40716. kBytes
   grid      :     216018. kBytes
   one-center:        162. kBytes
   wavefun   :      34077. kBytes
 
  
  
 General timing and accounting informations for this job:
 ========================================================
  
                  Total CPU time used (sec):      875.040
                            User time (sec):      827.823
                          System time (sec):       47.216
                         Elapsed time (sec):      883.077
  
                   Maximum memory used (kb):     1365368.
                   Average memory used (kb):          N/A
  
                          Minor page faults:       529055
                          Major page faults:          113
                 Voluntary context switches:         3747
