 vasp.6.2.1 16May21 (build Nov 06 2021 14:46:37) complex                        
  
 executed on             LinuxIFC date 2025.03.03  16:25:24
 running on  112 total cores
 distrk:  each k-point on   56 cores,    2 groups
 distr:  one band on NCORE=   1 cores,   56 groups


--------------------------------------------------------------------------------------------------------


 INCAR:
   ALGO = Conjugate
   KPAR = 2
   NCORE = 32
   ISMEAR = 0
   SIGMA = 0.01
   PREC = Accurate
   EDIFF = 1E-7
   ENCUT = 1000
   ISIF = 0
   GGA = BO
   PARAM1 = 0.1833333333
   PARAM2 = 0.2200000000
   LUSE_VDW = .TRUE.
   AGGAC = 0.0000
   LASPH = .TRUE.
   SYMPREC = 1E-7

 POTCAR:    PAW_PBE C_h 06Feb2004                 
 POTCAR:    PAW_PBE O_h 06Feb2004                 
 -----------------------------------------------------------------------------
|                                                                             |
|           W    W    AA    RRRRR   N    N  II  N    N   GGGG   !!!           |
|           W    W   A  A   R    R  NN   N  II  NN   N  G    G  !!!           |
|           W    W  A    A  R    R  N N  N  II  N N  N  G       !!!           |
|           W WW W  AAAAAA  RRRRR   N  N N  II  N  N N  G  GGG   !            |
|           WW  WW  A    A  R   R   N   NN  II  N   NN  G    G                |
|           W    W  A    A  R    R  N    N  II  N    N   GGGG   !!!           |
|                                                                             |
|     The value NCORE = 32 specified in the INCAR file was overwritten,       |
|     because it was not compatible with the 56 processes available:          |
|     NCORE = 1                                                               |
|     was used instead, please check that this makes sense for your           |
|     machine.                                                                |
|                                                                             |
 -----------------------------------------------------------------------------

 -----------------------------------------------------------------------------
|                                                                             |
|           W    W    AA    RRRRR   N    N  II  N    N   GGGG   !!!           |
|           W    W   A  A   R    R  NN   N  II  NN   N  G    G  !!!           |
|           W    W  A    A  R    R  N N  N  II  N N  N  G       !!!           |
|           W WW W  AAAAAA  RRRRR   N  N N  II  N  N N  G  GGG   !            |
|           WW  WW  A    A  R   R   N   NN  II  N   NN  G    G                |
|           W    W  A    A  R    R  N    N  II  N    N   GGGG   !!!           |
|                                                                             |
|     For optimal performance we recommend to set                             |
|       NCORE = 2 up to number-of-cores-per-socket                            |
|     NCORE specifies how many cores store one orbital (NPAR=cpu/NCORE).      |
|     This setting can greatly improve the performance of VASP for DFT.       |
|     The default, NCORE=1 might be grossly inefficient on modern             |
|     multi-core architectures or massively parallel machines. Do your        |
|     own testing! More info at https://www.vasp.at/wiki/index.php/NCORE      |
|     Unfortunately you need to use the default for GW and RPA                |
|     calculations (for HF NCORE is supported but not extensively tested      |
|     yet).                                                                   |
|                                                                             |
 -----------------------------------------------------------------------------

 -----------------------------------------------------------------------------
|                                                                             |
|               ----> ADVICE to this user running VASP <----                  |
|                                                                             |
|     You have switched on vdW-DFT.                                           |
|     This routine was written and supplied by Jiri Klimes. We recommend      |
|     that you carefully read and cite the following publications:            |
|       J. Klimes, D.R. Bowler, A. Michelides                                 |
|          J. Phys.: Cond Matt. 22 022201 (2010)                              |
|       J. Klimes, D.R. Bowler, A. Michelides                                 |
|          Phys. Rev. B. 83, 195131 (2011)                                    |
|     and references therein.                                                 |
|                                                                             |
 -----------------------------------------------------------------------------

 POTCAR:    PAW_PBE C_h 06Feb2004                 
   VRHFIN =C: s2p2                                                                                  
   LEXCH  = PE                                                                                      
   EATOM  =   147.1560 eV,   10.8157 Ry                                                             
                                                                                                    
   TITEL  = PAW_PBE C_h 06Feb2004                                                                   
   LULTRA =        F    use ultrasoft PP ?                                                          
   IUNSCR =        1    unscreen: 0-lin 1-nonlin 2-no                                               
   RPACOR =    0.800    partial core radius                                                         
   POMASS =   12.011; ZVAL   =    4.000    mass and valenz                                          
   RCORE  =    1.100    outmost cutoff radius                                                       
   RWIGS  =    1.630; RWIGS  =    0.863    wigner-seitz radius (au A)                               
   ENMAX  =  700.000; ENMIN  =  500.000 eV                                                          
   ICORE  =        2    local potential                                                             
   LCOR   =        T    correct aug charges                                                         
   LPAW   =        T    paw PP                                                                      
   EAUG   =  946.768                                                                                
   DEXC   =    0.000                                                                                
   RMAX   =    1.128    core radius for proj-oper                                                   
   RAUG   =    1.300    factor for augmentation sphere                                              
   RDEP   =    1.162    radius for radial grids                                                     
   RDEPT  =    1.088    core radius for aug-charge                                                  
                                                                                                    
   Atomic configuration                                                                             
    4 entries                                                                                       
     n  l   j            E        occ.                                                              
     1  0  0.50      -273.3789   2.0000                                                             
     2  0  0.50       -13.7508   2.0000                                                             
     2  1  0.50        -5.2854   2.0000                                                             
     3  2  1.50        -5.4423   0.0000                                                             
   Description                                                                                      
     l       E           TYP  RCUT    TYP  RCUT                                                     
     0    -13.7508458     23  1.100                                                                 
     0     -8.2022199     23  1.100                                                                 
     1     -5.2854383     23  1.100                                                                 
     1      1.1560700     23  1.100                                                                 
     2     -5.4423304      7  1.100                                                                 
  local pseudopotential read in
  partial core-charges read in
  partial kinetic energy density read in
  atomic valenz-charges read in
  non local Contribution for L=           0  read in
    real space projection operators read in
  non local Contribution for L=           0  read in
    real space projection operators read in
  non local Contribution for L=           1  read in
    real space projection operators read in
  non local Contribution for L=           1  read in
    real space projection operators read in
    PAW grid and wavefunctions read in
 
   number of l-projection  operators is LMAX  =           4
   number of lm-projection operators is LMMAX =           8
 
 POTCAR:    PAW_PBE O_h 06Feb2004                 
   VRHFIN =O: s2p4                                                                                  
   LEXCH  = PE                                                                                      
   EATOM  =   432.3788 eV,   31.7789 Ry                                                             
                                                                                                    
   TITEL  = PAW_PBE O_h 06Feb2004                                                                   
   LULTRA =        F    use ultrasoft PP ?                                                          
   IUNSCR =        1    unscreen: 0-lin 1-nonlin 2-no                                               
   RPACOR =    0.800    partial core radius                                                         
   POMASS =   16.000; ZVAL   =    6.000    mass and valenz                                          
   RCORE  =    1.100    outmost cutoff radius                                                       
   RWIGS  =    1.400; RWIGS  =    0.741    wigner-seitz radius (au A)                               
   ENMAX  =  700.000; ENMIN  =  500.000 eV                                                          
   ICORE  =        2    local potential                                                             
   LCOR   =        T    correct aug charges                                                         
   LPAW   =        T    paw PP                                                                      
   EAUG   =  888.804                                                                                
   DEXC   =    0.000                                                                                
   RMAX   =    1.128    core radius for proj-oper                                                   
   RAUG   =    1.300    factor for augmentation sphere                                              
   RDEP   =    1.125    radius for radial grids                                                     
   RDEPT  =    1.088    core radius for aug-charge                                                  
                                                                                                    
   Atomic configuration                                                                             
    4 entries                                                                                       
     n  l   j            E        occ.                                                              
     1  0  0.50      -514.6923   2.0000                                                             
     2  0  0.50       -23.9615   2.0000                                                             
     2  1  0.50        -9.0305   4.0000                                                             
     3  2  1.50        -9.5241   0.0000                                                             
   Description                                                                                      
     l       E           TYP  RCUT    TYP  RCUT                                                     
     0    -23.9615319     23  1.100                                                                 
     0    -25.3221145     23  1.100                                                                 
     1     -9.0304911     23  1.100                                                                 
     1     -5.4802209     23  1.100                                                                 
     2     -9.5240782      7  1.100                                                                 
  local pseudopotential read in
  partial core-charges read in
  partial kinetic energy density read in
  atomic valenz-charges read in
  non local Contribution for L=           0  read in
    real space projection operators read in
  non local Contribution for L=           0  read in
    real space projection operators read in
  non local Contribution for L=           1  read in
    real space projection operators read in
  non local Contribution for L=           1  read in
    real space projection operators read in
    PAW grid and wavefunctions read in
 
   number of l-projection  operators is LMAX  =           4
   number of lm-projection operators is LMMAX =           8
 
 -----------------------------------------------------------------------------
|                                                                             |
|               ----> ADVICE to this user running VASP <----                  |
|                                                                             |
|     You have a (more or less) 'large supercell' and for larger cells it     |
|     might be more efficient to use real-space projection operators.         |
|     Therefore, try LREAL= Auto in the INCAR file.                           |
|     Mind: For very accurate calculation, you might also keep the            |
|     reciprocal projection scheme (i.e. LREAL=.FALSE.).                      |
|                                                                             |
 -----------------------------------------------------------------------------

 -----------------------------------------------------------------------------
|                                                                             |
|               ----> ADVICE to this user running VASP <----                  |
|                                                                             |
|     You enforced a specific xc type in the INCAR file but a different       |
|     type was found in the POTCAR file.                                      |
|     I HOPE YOU KNOW WHAT YOU ARE DOING!                                     |
|                                                                             |
 -----------------------------------------------------------------------------

  PAW_PBE C_h 06Feb2004                 :
 energy of atom  1       EATOM= -147.1560
 kinetic energy error for atom=    0.0031 (will be added to EATOM!!)
  PAW_PBE O_h 06Feb2004                 :
 energy of atom  2       EATOM= -432.3788
 kinetic energy error for atom=    0.0171 (will be added to EATOM!!)
 
 
 POSCAR:  C  O
  positions in cartesian coordinates
  No initial velocities read in
 exchange correlation table for  LEXCH =       42
   RHO(1)=    0.500       N(1)  =     2000
   RHO(2)=  100.500       N(2)  =     4000
 


--------------------------------------------------------------------------------------------------------


 ion  position               nearest neighbor table
   1  0.972  0.000  0.001-  50 1.42   2 1.42  42 1.42
   2  0.039  0.134  0.001-   5 1.42   7 1.42   1 1.42
   3  0.172  0.000  0.001-  42 1.42  44 1.42   4 1.42
   4  0.239  0.134  0.000-   7 1.42   3 1.42  23 1.42
   5  0.972  0.200  0.001-   6 1.42   2 1.42  34 1.42
   6  0.039  0.334  0.001-   5 1.42  21 1.42  11 1.42
   7  0.172  0.200  0.000-   8 1.42   2 1.42   4 1.42
   8  0.239  0.334  0.000-  13 1.42   7 1.42  21 1.42
   9  0.372  0.000  0.001-  10 1.42  44 1.42  46 1.42
  10  0.439  0.134  0.000-  27 1.42   9 1.42  23 1.42
  11  0.972  0.400  0.001-  12 1.42  36 1.42   6 1.42
  12  0.039  0.534  0.001-  25 1.42  11 1.42  17 1.42
  13  0.372  0.400  0.000-   8 1.42  14 1.42  24 1.42
  14  0.439  0.534  0.000-  13 1.42  29 1.42  19 1.42
  15  0.572  0.000  0.001-  46 1.42  16 1.42  48 1.42
  16  0.639  0.134  0.001-  15 1.42  35 1.42  27 1.42
  17  0.972  0.600  0.001-  38 1.42  18 1.42  12 1.42
  18  0.039  0.734  0.001-  43 1.42  41 1.42  17 1.42
  19  0.572  0.600  0.001-  14 1.42  20 1.42  32 1.42
  20  0.639  0.734  0.001-  49 1.42  19 1.42  47 1.42
  21  0.172  0.400  0.000-  22 1.42   8 1.42   6 1.42
  22  0.239  0.534  0.000-  21 1.42  29 1.42  25 1.42
  23  0.372  0.200  0.000-  10 1.42   4 1.42  24 1.42
  24  0.439  0.334  0.000-  13 1.42  31 1.42  23 1.42
  25  0.172  0.600  0.001-  26 1.42  12 1.42  22 1.42
  26  0.239  0.734  0.001-  25 1.42  45 1.42  43 1.42
  27  0.572  0.200  0.001-  10 1.42  28 1.42  16 1.42
  28  0.639  0.334  0.001-  27 1.42  37 1.42  31 1.42
  29  0.372  0.600  0.000-  22 1.42  14 1.42  30 1.42
  30  0.439  0.734  0.001-  47 1.42  29 1.42  45 1.42
  31  0.572  0.400  0.000-  32 1.42  28 1.42  24 1.42
  32  0.639  0.534  0.001-  31 1.42  39 1.42  19 1.42
  33  0.772  0.000  0.001-  34 1.42  48 1.42  50 1.42
  34  0.839  0.134  0.001-  33 1.42   5 1.42  35 1.42
  35  0.772  0.200  0.001-  36 1.42  16 1.42  34 1.42
  36  0.839  0.334  0.001-  35 1.42  11 1.42  37 1.42
  37  0.772  0.400  0.001-  28 1.42  38 1.42  36 1.42
  38  0.839  0.534  0.001-  17 1.42  37 1.42  39 1.42
  39  0.772  0.600  0.001-  40 1.42  38 1.42  32 1.42
  40  0.839  0.734  0.001-  39 1.42  49 1.42  41 1.42
  41  0.972  0.800  0.001-  18 1.42  42 1.42  40 1.42
  42  0.039  0.934  0.001-   3 1.42  41 1.42   1 1.42
  43  0.172  0.800  0.001-  18 1.42  44 1.42  26 1.42
  44  0.239  0.934  0.001-   9 1.42  43 1.42   3 1.42
  45  0.372  0.800  0.001-  26 1.42  46 1.42  30 1.42
  46  0.439  0.934  0.001-  15 1.42  45 1.42   9 1.42
  47  0.572  0.800  0.001-  30 1.42  48 1.42  20 1.42
  48  0.639  0.934  0.001-  47 1.42  33 1.42  15 1.42
  49  0.772  0.800  0.001-  50 1.42  20 1.42  40 1.42
  50  0.839  0.934  0.001-  49 1.42   1 1.42  33 1.42
  51  0.373  0.251  0.149-  52 1.18  53 1.18
  52  0.421  0.189  0.152-  51 1.18
  53  0.325  0.313  0.146-  51 1.18
 
  LATTYP: Found a hexagonal cell.
 ALAT       =    12.3250000000
 C/A-ratio  =     1.6227180527
  
  Lattice vectors:
  
 A1 = (  12.3250000000,   0.0000000000,   0.0000000000)
 A2 = (  -6.1625000000,  10.6737631016,   0.0000000000)
 A3 = (   0.0000000000,   0.0000000000,  20.0000000000)


Analysis of symmetry for initial positions (statically):
=====================================================================
 Subroutine PRICEL returns:
 Original cell was already a primitive cell.
 

 Routine SETGRP: Setting up the symmetry group for a 
 hexagonal supercell.


 Subroutine GETGRP returns: Found  1 space group operations
 (whereof  1 operations were pure point group operations)
 out of a pool of 24 trial point group operations.


The static configuration has the point symmetry C_1 .


Analysis of symmetry for dynamics (positions and initial velocities):
=====================================================================
 Subroutine PRICEL returns:
 Original cell was already a primitive cell.
 

 Routine SETGRP: Setting up the symmetry group for a 
 hexagonal supercell.


 Subroutine GETGRP returns: Found  1 space group operations
 (whereof  1 operations were pure point group operations)
 out of a pool of 24 trial point group operations.


The dynamic configuration has the point symmetry C_1 .


 Subroutine INISYM returns: Found  1 space group operations
 (whereof  1 operations are pure point group operations),
 and found     1 'primitive' translations


----------------------------------------------------------------------------------------

                                     Primitive cell                                     

  volume of cell :    2631.0826

  direct lattice vectors                    reciprocal lattice vectors
    12.325000000  0.000000000  0.000000000     0.081135903  0.046843835  0.000000000
    -6.162500000 10.673763102  0.000000000     0.000000000  0.093687670  0.000000000
     0.000000000  0.000000000 20.000000000     0.000000000  0.000000000  0.050000000

  length of vectors
    12.325000000 12.325000000 20.000000000     0.093687670  0.093687670  0.050000000

  position of ions in fractional coordinates (direct lattice)
     0.972450841  0.000320818  0.000708389
     0.039118382  0.133659505  0.000550216
     0.172443627  0.000295449  0.000624535
     0.239096278  0.133647917  0.000320585
     0.972452058  0.200322012  0.000606523
     0.039128360  0.333643771  0.000555187
     0.172451764  0.200354552  0.000273959
     0.239124359  0.333665720  0.000090325
     0.372465565  0.000324403  0.000567391
     0.439137473  0.133619939  0.000322923
     0.972449824  0.400309362  0.000684513
     0.039124981  0.533636789  0.000716763
     0.372416176  0.400329481  0.000000000
     0.439099602  0.533638981  0.000290518
     0.572443676  0.000312125  0.000699475
     0.639110207  0.133631751  0.000684093
     0.972452703  0.600305653  0.000800361
     0.039124495  0.733640359  0.000818141
     0.572433471  0.600306242  0.000503618
     0.639111888  0.733641879  0.000659881
     0.172454630  0.400318228  0.000361306
     0.239120185  0.533636548  0.000473136
     0.372459750  0.200295993  0.000111246
     0.439107096  0.333673419  0.000069702
     0.172452155  0.600311506  0.000655425
     0.239123371  0.733638574  0.000718912
     0.572431082  0.200289171  0.000516621
     0.639112773  0.333618630  0.000577970
     0.372439808  0.600308022  0.000453556
     0.439116090  0.733637858  0.000617737
     0.572469358  0.400320504  0.000424897
     0.639119408  0.533650873  0.000574513
     0.772445723  0.000315427  0.000745201
     0.839116277  0.133640203  0.000719132
     0.772440513  0.200307432  0.000726291
     0.839120241  0.333635728  0.000731834
     0.772446320  0.400298367  0.000728722
     0.839118980  0.533633964  0.000776376
     0.772456143  0.600308173  0.000744639
     0.839115033  0.733643180  0.000789390
     0.972455313  0.800305582  0.000815291
     0.039114714  0.933643289  0.000747563
     0.172457971  0.800312211  0.000779216
     0.239134551  0.933647193  0.000681063
     0.372451396  0.800316674  0.000689249
     0.439124489  0.933644769  0.000676788
     0.572441101  0.800310054  0.000668168
     0.639115067  0.933638985  0.000734556
     0.772445098  0.800313187  0.000752577
     0.839116614  0.933644338  0.000758538
     0.373021009  0.251226878  0.148650889
     0.420879805  0.189313152  0.151871982
     0.325156981  0.313167186  0.145678146

  ion indices of the primitive-cell ions
   primitive index   ion index
                 1           1
                 2           2
                 3           3
                 4           4
                 5           5
                 6           6
                 7           7
                 8           8
                 9           9
                10          10
                11          11
                12          12
                13          13
                14          14
                15          15
                16          16
                17          17
                18          18
                19          19
                20          20
                21          21
                22          22
                23          23
                24          24
                25          25
                26          26
                27          27
                28          28
                29          29
                30          30
                31          31
                32          32
                33          33
                34          34
                35          35
                36          36
                37          37
                38          38
                39          39
                40          40
                41          41
                42          42
                43          43
                44          44
                45          45
                46          46
                47          47
                48          48
                49          49
                50          50
                51          51
                52          52
                53          53

----------------------------------------------------------------------------------------

 
 
 KPOINTS: auto                                    

Automatic generation of k-mesh.
 Grid dimensions read from file:
 generate k-points for:    1    1    1

 Generating k-lattice:

  Cartesian coordinates                     Fractional coordinates (reciprocal lattice)
     0.081135903  0.046843835  0.000000000     1.000000000 -0.000000000  0.000000000
     0.000000000  0.093687670  0.000000000     0.000000000  1.000000000  0.000000000
     0.000000000  0.000000000  0.050000000     0.000000000  0.000000000  1.000000000

  Length of vectors
     0.093687670  0.093687670  0.050000000

  Shift w.r.t. Gamma in fractional coordinates (k-lattice)
     0.000000000  0.000000000  0.000000000

 
 Subroutine IBZKPT returns following result:
 ===========================================
 
 Found      1 irreducible k-points:
 
 Following reciprocal coordinates:
            Coordinates               Weight
  0.000000  0.000000  0.000000      1.000000
 
 Following cartesian coordinates:
            Coordinates               Weight
  0.000000  0.000000  0.000000      1.000000
 


--------------------------------------------------------------------------------------------------------




 Dimension of arrays:
   k-points           NKPTS =      1   k-points in BZ     NKDIM =      1   number of bands    NBANDS=    168
   number of dos      NEDOS =    301   number of ions     NIONS =     53
   non local maximal  LDIM  =      4   non local SUM 2l+1 LMDIM =      8
   total plane-waves  NPLWV = ******
   max r-space proj   IRMAX =      1   max aug-charges    IRDMAX=   9736
   dimension x,y,z NGX =   128 NGY =  128 NGZ =  210
   dimension x,y,z NGXF=   256 NGYF=  256 NGZF=  420
   support grid    NGXF=   256 NGYF=  256 NGZF=  420
   ions per type =              51   2
   NGX,Y,Z   is equivalent  to a cutoff of  17.27, 17.27, 17.46 a.u.
   NGXF,Y,Z  is equivalent  to a cutoff of  34.53, 34.53, 34.91 a.u.

 SYSTEM =  unknown system                          
 POSCAR =   C  O                                   

 Startparameter for this run:
   NWRITE =      2    write-flag & timer
   PREC   = accura    normal or accurate (medium, high low for compatibility)
   ISTART =      0    job   : 0-new  1-cont  2-samecut
   ICHARG =      2    charge: 1-file 2-atom 10-const
   ISPIN  =      1    spin polarized calculation?
   LNONCOLLINEAR =      F non collinear calculations
   LSORBIT =      F    spin-orbit coupling
   INIWAV =      1    electr: 0-lowe 1-rand  2-diag
   LASPH  =      T    aspherical Exc in radial PAW
 Electronic Relaxation 1
   ENCUT  = 1000.0 eV  73.50 Ry    8.57 a.u.  31.78 31.78 51.57*2*pi/ulx,y,z
   ENINI  = 1000.0     initial cutoff
   ENAUG  =  946.8 eV  augmentation charge cutoff
   NELM   =     60;   NELMIN=  2; NELMDL= -5     # of ELM steps 
   EDIFF  = 0.1E-06   stopping-criterion for ELM
   LREAL  =      F    real-space projection
   NLSPLINE    = F    spline interpolate recip. space projectors
   LCOMPAT=      F    compatible to vasp.4.4
   GGA_COMPAT  = T    GGA compatible to vasp.4.4-vasp.4.6
   LMAXPAW     = -100 max onsite density
   LMAXMIX     =    2 max onsite mixed and CHGCAR
   VOSKOWN=      0    Vosko Wilk Nusair interpolation
   ROPT   =    0.00000   0.00000
 Ionic relaxation
   EDIFFG = 0.1E-05   stopping-criterion for IOM
   NSW    =      0    number of steps for IOM
   NBLOCK =      1;   KBLOCK =      1    inner block; outer block 
   IBRION =     -1    ionic relax: 0-MD 1-quasi-New 2-CG
   NFREE  =      0    steps in history (QN), initial steepest desc. (CG)
   ISIF   =      0    stress and relaxation
   IWAVPR =     10    prediction:  0-non 1-charg 2-wave 3-comb
   ISYM   =      2    0-nonsym 1-usesym 2-fastsym
   LCORR  =      T    Harris-Foulkes like correction to forces

   POTIM  = 0.5000    time-step for ionic-motion
   TEIN   =    0.0    initial temperature
   TEBEG  =    0.0;   TEEND  =   0.0 temperature during run
   SMASS  =  -3.00    Nose mass-parameter (am)
   estimated Nose-frequenzy (Omega)   =  0.10E-29 period in steps = 0.13E+47 mass=  -0.347E-26a.u.
   SCALEE = 1.0000    scale energy and forces
   NPACO  =    256;   APACO  = 16.0  distance and # of slots for P.C.
   PSTRESS=    0.0 pullay stress

  Mass of Ions in am
   POMASS =  12.01 16.00
  Ionic Valenz
   ZVAL   =   4.00  6.00
  Atomic Wigner-Seitz radii
   RWIGS  =  -1.00 -1.00
  virtual crystal weights 
   VCA    =   1.00  1.00
   NELECT =     216.0000    total number of electrons
   NUPDOWN=      -1.0000    fix difference up-down

 DOS related values:
   EMIN   =  10.00;   EMAX   =-10.00  energy-range for DOS
   EFERMI =   0.00
   ISMEAR =     0;   SIGMA  =   0.01  broadening in eV -4-tet -1-fermi 0-gaus

 Electronic relaxation 2 (details)
   IALGO  =     58    algorithm
   LDIAG  =      T    sub-space diagonalisation (order eigenvalues)
   LSUBROT=      F    optimize rotation matrix (better conditioning)
   TURBO    =      0    0=normal 1=particle mesh
   IRESTART =      0    0=no restart 2=restart with 2 vectors
   NREBOOT  =      0    no. of reboots
   NMIN     =      0    reboot dimension
   EREF     =   0.00    reference energy to select bands
   IMIX   =      4    mixing-type and parameters
     AMIX     =   0.40;   BMIX     =  1.00
     AMIX_MAG =   1.60;   BMIX_MAG =  1.00
     AMIN     =   0.10
     WC   =   100.;   INIMIX=   1;  MIXPRE=   1;  MAXMIX= -45

 Intra band minimization:
   WEIMIN = 0.0000     energy-eigenvalue tresh-hold
   EBREAK =  0.15E-09  absolut break condition
   DEPER  =   0.30     relativ break condition  

   TIME   =   0.40     timestep for ELM

  volume/ion in A,a.u.               =      49.64       335.01
  Fermi-wavevector in a.u.,A,eV,Ry     =   0.711510  1.344560  6.887909  0.506247
  Thomas-Fermi vector in A             =   1.798641
 
 Write flags
   LWAVE        =      T    write WAVECAR
   LDOWNSAMPLE  =      F    k-point downsampling of WAVECAR
   LCHARG       =      T    write CHGCAR
   LVTOT        =      F    write LOCPOT, total local potential
   LVHAR        =      F    write LOCPOT, Hartree potential only
   LELF         =      F    write electronic localiz. function (ELF)
   LORBIT       =      0    0 simple, 1 ext, 2 COOP (PROOUT), +10 PAW based schemes


 Dipole corrections
   LMONO  =      F    monopole corrections only (constant potential shift)
   LDIPOL =      F    correct potential (dipole corrections)
   IDIPOL =      0    1-x, 2-y, 3-z, 4-all directions 
   EPSILON=  1.0000000 bulk dielectric constant

 Exchange correlation treatment:
   GGA     =    BO    GGA type
   LEXCH   =    42    internal setting for exchange type
   VOSKOWN=      0    Vosko Wilk Nusair interpolation
   LHFCALC =     F    Hartree Fock is set to
   LHFONE  =     F    Hartree Fock one center treatment
   AEXX    =    0.0000 exact exchange contribution

 vdW DFT:
   LUSE_VDW   =     T    switch on vdW DFT
   Zab_VDW    =-.8491    correlation parameter
   PARAM1     =0.1833
   PARAM2     =0.2200
   PARAM3     =0.0000
   -- rVV10 --
   BPARAM     = 6.3000
   CPARAM     = 0.0093

 Linear response parameters
   LEPSILON=     F    determine dielectric tensor
   LRPA    =     F    only Hartree local field effects (RPA)
   LNABLA  =     F    use nabla operator in PAW spheres
   LVEL    =     F    velocity operator in full k-point grid
   LINTERFAST=   F  fast interpolation
   KINTER  =     0    interpolate to denser k-point grid
   CSHIFT  =0.1000    complex shift for real part using Kramers Kronig
   OMEGAMAX=  -1.0    maximum frequency
   DEG_THRESHOLD= 0.2000000E-02 threshold for treating states as degnerate
   RTIME   =   -0.100 relaxation time in fs
  (WPLASMAI=    0.000 imaginary part of plasma frequency in eV, 0.658/RTIME)
   DFIELD  = 0.0000000 0.0000000 0.0000000 field for delta impulse in time
 
 Orbital magnetization related:
   ORBITALMAG=     F  switch on orbital magnetization
   LCHIMAG   =     F  perturbation theory with respect to B field
   DQ        =  0.001000  dq finite difference perturbation B field
   LLRAUG    =     F  two centre corrections for induced B field



--------------------------------------------------------------------------------------------------------


 Static calculation
 charge density and potential will be updated during run
 non-spin polarized calculation
 Conjugate gradient for all bands (Freysoldt, et al. PRB 79, 241103 (2009))
 preconditioned conjugated gradient                                        
 perform sub-space diagonalisation
    before iterative eigenvector-optimisation
 modified Broyden-mixing scheme, WC =      100.0
 initial mixing is a Kerker type mixing with AMIX =  0.4000 and BMIX =      1.0000
 Hartree-type preconditioning will be used
 using additional bands           60
 reciprocal scheme for non local part
 use partial core corrections
 no Harris-corrections to forces 
 use gradient corrections 
 use of overlap-Matrix (Vanderbilt PP)
 Gauss-broadening in eV      SIGMA  =   0.01


--------------------------------------------------------------------------------------------------------


  energy-cutoff  :     1000.00
  volume of cell :     2631.08
      direct lattice vectors                 reciprocal lattice vectors
    12.325000000  0.000000000  0.000000000     0.081135903  0.046843835  0.000000000
    -6.162500000 10.673763102  0.000000000     0.000000000  0.093687670  0.000000000
     0.000000000  0.000000000 20.000000000     0.000000000  0.000000000  0.050000000

  length of vectors
    12.325000000 12.325000000 20.000000000     0.093687670  0.093687670  0.050000000


 
 k-points in units of 2pi/SCALE and weight: auto                                    
   0.00000000  0.00000000  0.00000000       1.000
 
 k-points in reciprocal lattice and weights: auto                                    
   0.00000000  0.00000000  0.00000000       1.000
 
 position of ions in fractional coordinates (direct lattice) 
   0.97245084  0.00032082  0.00070839
   0.03911838  0.13365950  0.00055022
   0.17244363  0.00029545  0.00062454
   0.23909628  0.13364792  0.00032058
   0.97245206  0.20032201  0.00060652
   0.03912836  0.33364377  0.00055519
   0.17245176  0.20035455  0.00027396
   0.23912436  0.33366572  0.00009033
   0.37246557  0.00032440  0.00056739
   0.43913747  0.13361994  0.00032292
   0.97244982  0.40030936  0.00068451
   0.03912498  0.53363679  0.00071676
   0.37241618  0.40032948  0.00000000
   0.43909960  0.53363898  0.00029052
   0.57244368  0.00031213  0.00069947
   0.63911021  0.13363175  0.00068409
   0.97245270  0.60030565  0.00080036
   0.03912449  0.73364036  0.00081814
   0.57243347  0.60030624  0.00050362
   0.63911189  0.73364188  0.00065988
   0.17245463  0.40031823  0.00036131
   0.23912018  0.53363655  0.00047314
   0.37245975  0.20029599  0.00011125
   0.43910710  0.33367342  0.00006970
   0.17245216  0.60031151  0.00065542
   0.23912337  0.73363857  0.00071891
   0.57243108  0.20028917  0.00051662
   0.63911277  0.33361863  0.00057797
   0.37243981  0.60030802  0.00045356
   0.43911609  0.73363786  0.00061774
   0.57246936  0.40032050  0.00042490
   0.63911941  0.53365087  0.00057451
   0.77244572  0.00031543  0.00074520
   0.83911628  0.13364020  0.00071913
   0.77244051  0.20030743  0.00072629
   0.83912024  0.33363573  0.00073183
   0.77244632  0.40029837  0.00072872
   0.83911898  0.53363396  0.00077638
   0.77245614  0.60030817  0.00074464
   0.83911503  0.73364318  0.00078939
   0.97245531  0.80030558  0.00081529
   0.03911471  0.93364329  0.00074756
   0.17245797  0.80031221  0.00077922
   0.23913455  0.93364719  0.00068106
   0.37245140  0.80031667  0.00068925
   0.43912449  0.93364477  0.00067679
   0.57244110  0.80031005  0.00066817
   0.63911507  0.93363899  0.00073456
   0.77244510  0.80031319  0.00075258
   0.83911661  0.93364434  0.00075854
   0.37302101  0.25122688  0.14865089
   0.42087980  0.18931315  0.15187198
   0.32515698  0.31316719  0.14567815
 
 position of ions in cartesian coordinates  (Angst):
  11.98347958  0.00342433  0.01416777
  -0.34154264  1.42664989  0.01100432
   2.12354700  0.00315355  0.01249070
   2.12325634  1.42652621  0.00641170
  10.75098721  2.13818970  0.01213047
  -1.57382270  3.56123457  0.01110375
   0.89078307  2.13853702  0.00547917
   0.89099273  3.56146885  0.00180651
   4.58863896  0.00346260  0.01134782
   4.58893648  1.42622757  0.00645846
   9.51853763  4.27280730  0.01369027
  -2.80632132  5.69591267  0.01433526
   2.12299894  4.27302204  0.00000000
   2.12335237  5.69593607  0.00581036
   7.05344483  0.00333155  0.01398950
   7.05352764  1.42635365  0.01368187
   8.28609598  6.40752033  0.01600723
  -4.03884931  7.83070339  0.01636283
   3.35585531  6.40752662  0.01007237
   3.35598594  7.83071962  0.01319763
  -0.34145776  4.27290193  0.00722612
  -0.34137895  5.69591010  0.00946273
   3.35624236  2.13791198  0.00222492
   3.35573251  3.56155103  0.00139405
  -1.57394684  6.40758280  0.01310850
  -1.57385216  7.83068434  0.01437823
   5.82093107  2.13783916  0.01033241
   5.82114012  3.56096622  0.01155939
   0.89092245  6.40754561  0.00907111
   0.89106251  7.83067670  0.01235474
   4.58870974  4.27292622  0.00849795
   4.58852320  5.69606300  0.01149026
   9.51844972  0.00336679  0.01490402
   9.51855036  1.42644387  0.01438264
   8.28593477  2.13803408  0.01452582
   8.28612680  3.56114872  0.01463668
   7.05356221  4.27268994  0.01457444
   7.05362213  5.69588251  0.01552751
   5.82112285  6.40754723  0.01489279
   5.82101669  7.83073350  0.01578780
   7.05362858  8.54227219  0.01630582
  -5.27148792  9.96548729  0.01495127
  -2.80637951  8.54234295  0.01558431
  -2.80626749  9.96552896  0.01362126
  -0.34148805  8.54239058  0.01378498
  -0.34137657  9.96550309  0.01353576
   2.12342586  8.54231992  0.01336337
   2.12354296  9.96544135  0.01469111
   4.58845581  8.54235337  0.01505154
   4.58852904  9.96549848  0.01517076
   3.04929830  2.68153618  2.97301779
   4.02070129  2.02068374  3.03743965
   2.07766701  3.34267235  2.91356292
 


--------------------------------------------------------------------------------------------------------


 k-point   1 :   0.0000 0.0000 0.0000  plane waves:  189031

 maximum and minimum number of plane-waves per node :    189031   189031

 maximum number of plane-waves:    189031
 maximum index in each direction: 
   IXMAX=   31   IYMAX=   31   IZMAX=   51
   IXMIN=  -31   IYMIN=  -31   IZMIN=  -51


 serial   3D FFT for wavefunctions
 parallel 3D FFT for charge:
    minimum data exchange during FFTs selected (reduces bandwidth)


 total amount of memory used by VASP MPI-rank0   441788. kBytes
=======================================================================

   base      :      30000. kBytes
   nonl-proj :     184518. kBytes
   fftplans  :      31725. kBytes
   grid      :     168095. kBytes
   one-center:        162. kBytes
   wavefun   :      27288. kBytes
 
     INWAV:  cpu time    0.0001: real time    0.0001
 Broyden mixing: mesh for mixing (old mesh)
   NGX = 63   NGY = 63   NGZ =103
  (NGX  =256   NGY  =256   NGZ  =420)
  gives a total of 408807 points

 initial charge density was supplied:
 charge density of overlapping atoms calculated
 number of electron     216.0000000 magnetization 
 keeping initial charge density in first step


--------------------------------------------------------------------------------------------------------


 Maximum index for augmentation-charges          459 (set IRDMAX)


--------------------------------------------------------------------------------------------------------


 First call to EWALD:  gamma=   0.128
 Maximum number of real-space cells 3x 3x 2
 Maximum number of reciprocal cells 3x 3x 4

    FEWALD:  cpu time    0.0030: real time    0.0030


--------------------------------------- Iteration      1(   1)  ---------------------------------------


vdW kernel read from vdw_kernel.bindat
  0.0000  0.2424  0.5071  0.7962  1.1119  1.4567  1.8333  2.2446  2.6937  3.1842
  3.7199  4.3049  4.9438  5.6415  6.4036  7.2358  8.1446  9.1372 10.2212 11.4050
 12.6979 14.1099 15.6519 17.3360 19.1751 21.1837 23.3773 25.7729 28.3892 31.2465
 34.3669 37.7748 41.4965 45.5611 50.0000
 
    POTLOK:  cpu time    6.3260: real time    6.3917
    SETDIJ:  cpu time    0.1084: real time    0.1090
    TRIAL :  cpu time   11.9777: real time   12.0791
    CORREC:  cpu time    0.0004: real time    0.0006
    --------------------------------------------
      LOOP:  cpu time   18.4221: real time   18.6030

 eigenvalue-minimisations  :   336
 total energy-change (2. order) : 0.2536828E+04  (-0.1171206E+05)
 number of electron     216.0000000 magnetization 
 augmentation part      216.0000000 magnetization 

 Free energy of the ion-electron system (eV)
  ---------------------------------------------------
  alpha Z        PSCENC =        59.93625244
  Ewald energy   TEWEN  =     34655.38404633
  -Hartree energ DENC   =    -40829.90294674
  -exchange      EXHF   =         0.00000000
  -V(xc)+E(xc)   XCENC  =       398.49996801
  PAW double counting   =      6564.79108649    -6260.84737255
  entropy T*S    EENTRO =        -0.00000000
  eigenvalues    EBANDS =      -512.11690375
  atomic energy  EATOM  =      8461.08393172
  ---------------------------------------------------
  free energy    TOTEN  =      2536.82806195 eV

  energy without entropy =     2536.82806195  energy(sigma->0) =     2536.82806195


--------------------------------------------------------------------------------------------------------




--------------------------------------- Iteration      1(   2)  ---------------------------------------


    TRIAL :  cpu time   18.0227: real time   18.1684
    CORREC:  cpu time    0.0001: real time    0.0001
    --------------------------------------------
      LOOP:  cpu time   18.0419: real time   18.1882

 eigenvalue-minimisations  :   560
 total energy-change (2. order) :-0.2370865E+04  (-0.2228053E+04)
 number of electron     216.0000000 magnetization 
 augmentation part      216.0000000 magnetization 

 Free energy of the ion-electron system (eV)
  ---------------------------------------------------
  alpha Z        PSCENC =        59.93625244
  Ewald energy   TEWEN  =     34655.38404633
  -Hartree energ DENC   =    -40829.90294674
  -exchange      EXHF   =         0.00000000
  -V(xc)+E(xc)   XCENC  =       398.49996801
  PAW double counting   =      6564.79108649    -6260.84737255
  entropy T*S    EENTRO =        -0.00000000
  eigenvalues    EBANDS =     -2882.98163976
  atomic energy  EATOM  =      8461.08393172
  ---------------------------------------------------
  free energy    TOTEN  =       165.96332594 eV

  energy without entropy =      165.96332594  energy(sigma->0) =      165.96332594


--------------------------------------------------------------------------------------------------------




--------------------------------------- Iteration      1(   3)  ---------------------------------------


    TRIAL :  cpu time   13.4322: real time   13.5436
    CORREC:  cpu time    0.0001: real time    0.0001
    --------------------------------------------
      LOOP:  cpu time   13.5543: real time   13.6685

 eigenvalue-minimisations  :   392
 total energy-change (2. order) :-0.5817348E+03  (-0.5787292E+03)
 number of electron     216.0000000 magnetization 
 augmentation part      216.0000000 magnetization 

 Free energy of the ion-electron system (eV)
  ---------------------------------------------------
  alpha Z        PSCENC =        59.93625244
  Ewald energy   TEWEN  =     34655.38404633
  -Hartree energ DENC   =    -40829.90294674
  -exchange      EXHF   =         0.00000000
  -V(xc)+E(xc)   XCENC  =       398.49996801
  PAW double counting   =      6564.79108649    -6260.84737255
  entropy T*S    EENTRO =        -0.00000000
  eigenvalues    EBANDS =     -3464.71646331
  atomic energy  EATOM  =      8461.08393172
  ---------------------------------------------------
  free energy    TOTEN  =      -415.77149761 eV

  energy without entropy =     -415.77149761  energy(sigma->0) =     -415.77149761


--------------------------------------------------------------------------------------------------------




--------------------------------------- Iteration      1(   4)  ---------------------------------------


    TRIAL :  cpu time   14.9888: real time   15.1078
    CORREC:  cpu time    0.0001: real time    0.0003
    --------------------------------------------
      LOOP:  cpu time   15.0662: real time   15.1860

 eigenvalue-minimisations  :   448
 total energy-change (2. order) :-0.2931059E+02  (-0.2909784E+02)
 number of electron     216.0000000 magnetization 
 augmentation part      216.0000000 magnetization 

 Free energy of the ion-electron system (eV)
  ---------------------------------------------------
  alpha Z        PSCENC =        59.93625244
  Ewald energy   TEWEN  =     34655.38404633
  -Hartree energ DENC   =    -40829.90294674
  -exchange      EXHF   =         0.00000000
  -V(xc)+E(xc)   XCENC  =       398.49996801
  PAW double counting   =      6564.79108649    -6260.84737255
  entropy T*S    EENTRO =        -0.00000000
  eigenvalues    EBANDS =     -3494.02704842
  atomic energy  EATOM  =      8461.08393172
  ---------------------------------------------------
  free energy    TOTEN  =      -445.08208272 eV

  energy without entropy =     -445.08208272  energy(sigma->0) =     -445.08208272


--------------------------------------------------------------------------------------------------------




--------------------------------------- Iteration      1(   5)  ---------------------------------------


    TRIAL :  cpu time   14.9643: real time   15.0859
    CORREC:  cpu time    0.0001: real time    0.0001
    CHARGE:  cpu time    0.6131: real time    0.6177
    --------------------------------------------
      LOOP:  cpu time   15.6369: real time   15.7650

 eigenvalue-minimisations  :   448
 total energy-change (2. order) :-0.1098360E+01  (-0.1093299E+01)
 number of electron     216.0000000 magnetization 
 augmentation part       -0.2214841 magnetization 

 Free energy of the ion-electron system (eV)
  ---------------------------------------------------
  alpha Z        PSCENC =        59.93625244
  Ewald energy   TEWEN  =     34655.38404633
  -Hartree energ DENC   =    -40829.90294674
  -exchange      EXHF   =         0.00000000
  -V(xc)+E(xc)   XCENC  =       398.49996801
  PAW double counting   =      6564.79108649    -6260.84737255
  entropy T*S    EENTRO =        -0.00000000
  eigenvalues    EBANDS =     -3495.12540882
  atomic energy  EATOM  =      8461.08393172
  ---------------------------------------------------
  free energy    TOTEN  =      -446.18044313 eV

  energy without entropy =     -446.18044313  energy(sigma->0) =     -446.18044313


--------------------------------------------------------------------------------------------------------




--------------------------------------- Iteration      1(   6)  ---------------------------------------


    POTLOK:  cpu time    6.0350: real time    6.0792
    SETDIJ:  cpu time    0.0687: real time    0.0689
    TRIAL :  cpu time    5.3646: real time    5.4115
    CORREC:  cpu time    7.3387: real time    7.3980
    CHARGE:  cpu time    0.6043: real time    0.6084
    --------------------------------------------
      LOOP:  cpu time   19.5165: real time   19.6791

 eigenvalue-minimisations  :     0
 total energy-change (2. order) : 0.5482707E+02  (-0.1760667E+02)
 number of electron     216.0000000 magnetization 
 augmentation part       -0.3324669 magnetization 

 Free energy of the ion-electron system (eV)
  ---------------------------------------------------
  alpha Z        PSCENC =        59.93625244
  Ewald energy   TEWEN  =     34655.38404633
  -Hartree energ DENC   =    -42279.24617300
  -exchange      EXHF   =         0.00000000
  -V(xc)+E(xc)   XCENC  =       448.03325087
  PAW double counting   =     71536.47245624   -71240.66882899
  entropy T*S    EENTRO =        -0.00000000
  eigenvalues    EBANDS =     -2032.34830403
  atomic energy  EATOM  =      8461.08393172
  ---------------------------------------------------
  free energy    TOTEN  =      -391.35336842 eV

  energy without entropy =     -391.35336842  energy(sigma->0) =     -391.35336842


--------------------------------------------------------------------------------------------------------




--------------------------------------- Iteration      1(   7)  ---------------------------------------


    POTLOK:  cpu time    6.0148: real time    6.0598
    SETDIJ:  cpu time    0.0926: real time    0.0929
    TRIAL :  cpu time    5.3617: real time    5.4081
    CORREC:  cpu time    7.2691: real time    7.3385
    CHARGE:  cpu time    0.5995: real time    0.6076
    --------------------------------------------
      LOOP:  cpu time   19.3808: real time   19.5593

 eigenvalue-minimisations  :     0
 total energy-change (2. order) :-0.1764405E+02  (-0.1934087E+01)
 number of electron     216.0000000 magnetization 
 augmentation part       -0.3810241 magnetization 

 Free energy of the ion-electron system (eV)
  ---------------------------------------------------
  alpha Z        PSCENC =        59.93625244
  Ewald energy   TEWEN  =     34655.38404633
  -Hartree energ DENC   =    -41750.87920293
  -exchange      EXHF   =         0.00000000
  -V(xc)+E(xc)   XCENC  =       430.15161366
  PAW double counting   =     86681.60445778   -86382.56033141
  entropy T*S    EENTRO =        -0.00000000
  eigenvalues    EBANDS =     -2563.71818952
  atomic energy  EATOM  =      8461.08393172
  ---------------------------------------------------
  free energy    TOTEN  =      -408.99742192 eV

  energy without entropy =     -408.99742192  energy(sigma->0) =     -408.99742192


--------------------------------------------------------------------------------------------------------




--------------------------------------- Iteration      1(   8)  ---------------------------------------


    POTLOK:  cpu time    6.0787: real time    6.1309
    SETDIJ:  cpu time    0.0612: real time    0.0615
    TRIAL :  cpu time    5.3493: real time    5.4028
    CORREC:  cpu time    7.2608: real time    7.3257
    CHARGE:  cpu time    0.6063: real time    0.6104
    --------------------------------------------
      LOOP:  cpu time   19.3921: real time   19.5724

 eigenvalue-minimisations  :     0
 total energy-change (2. order) :-0.1934514E+01  (-0.5400025E+00)
 number of electron     216.0000000 magnetization 
 augmentation part       -0.3952695 magnetization 

 Free energy of the ion-electron system (eV)
  ---------------------------------------------------
  alpha Z        PSCENC =        59.93625244
  Ewald energy   TEWEN  =     34655.38404633
  -Hartree energ DENC   =    -41729.01355909
  -exchange      EXHF   =         0.00000000
  -V(xc)+E(xc)   XCENC  =       429.61818304
  PAW double counting   =     91067.98186351   -90768.51545131
  entropy T*S    EENTRO =        -0.00000000
  eigenvalues    EBANDS =     -2587.40720220
  atomic energy  EATOM  =      8461.08393172
  ---------------------------------------------------
  free energy    TOTEN  =      -410.93193556 eV

  energy without entropy =     -410.93193556  energy(sigma->0) =     -410.93193556


--------------------------------------------------------------------------------------------------------




--------------------------------------- Iteration      1(   9)  ---------------------------------------


    POTLOK:  cpu time    6.0401: real time    6.0836
    SETDIJ:  cpu time    0.5748: real time    0.5771
    TRIAL :  cpu time    5.3503: real time    5.4067
    CORREC:  cpu time    7.2458: real time    7.3013
    CHARGE:  cpu time    0.6054: real time    0.6094
    --------------------------------------------
      LOOP:  cpu time   19.8775: real time   20.0408

 eigenvalue-minimisations  :     0
 total energy-change (2. order) :-0.5397633E+00  (-0.2005406E+00)
 number of electron     216.0000000 magnetization 
 augmentation part       -0.3994126 magnetization 

 Free energy of the ion-electron system (eV)
  ---------------------------------------------------
  alpha Z        PSCENC =        59.93625244
  Ewald energy   TEWEN  =     34655.38404633
  -Hartree energ DENC   =    -41740.13590775
  -exchange      EXHF   =         0.00000000
  -V(xc)+E(xc)   XCENC  =       429.71124642
  PAW double counting   =     94109.84251886   -93810.18858149
  entropy T*S    EENTRO =        -0.00000000
  eigenvalues    EBANDS =     -2577.10520543
  atomic energy  EATOM  =      8461.08393172
  ---------------------------------------------------
  free energy    TOTEN  =      -411.47169890 eV

  energy without entropy =     -411.47169890  energy(sigma->0) =     -411.47169890


--------------------------------------------------------------------------------------------------------




--------------------------------------- Iteration      1(  10)  ---------------------------------------


    POTLOK:  cpu time    6.0585: real time    6.1029
    SETDIJ:  cpu time    0.0342: real time    0.0343
    TRIAL :  cpu time    5.3531: real time    5.3996
    CORREC:  cpu time    7.2661: real time    7.3257
    CHARGE:  cpu time    0.6058: real time    0.6105
    --------------------------------------------
      LOOP:  cpu time   19.3764: real time   19.5515

 eigenvalue-minimisations  :     0
 total energy-change (2. order) :-0.1999594E+00  (-0.8923933E-01)
 number of electron     216.0000000 magnetization 
 augmentation part       -0.3969741 magnetization 

 Free energy of the ion-electron system (eV)
  ---------------------------------------------------
  alpha Z        PSCENC =        59.93625244
  Ewald energy   TEWEN  =     34655.38404633
  -Hartree energ DENC   =    -41736.58771812
  -exchange      EXHF   =         0.00000000
  -V(xc)+E(xc)   XCENC  =       429.56855277
  PAW double counting   =     94865.80773097   -94566.04812397
  entropy T*S    EENTRO =        -0.00000000
  eigenvalues    EBANDS =     -2580.81633045
  atomic energy  EATOM  =      8461.08393172
  ---------------------------------------------------
  free energy    TOTEN  =      -411.67165831 eV

  energy without entropy =     -411.67165831  energy(sigma->0) =     -411.67165831


--------------------------------------------------------------------------------------------------------




--------------------------------------- Iteration      1(  11)  ---------------------------------------


    POTLOK:  cpu time    6.0655: real time    6.1079
    SETDIJ:  cpu time    0.0398: real time    0.0399
    TRIAL :  cpu time    5.3574: real time    5.4030
    CORREC:  cpu time    7.2620: real time    7.3175
    CHARGE:  cpu time    0.6052: real time    0.6121
    --------------------------------------------
      LOOP:  cpu time   19.3967: real time   19.5493

 eigenvalue-minimisations  :     0
 total energy-change (2. order) :-0.8878380E-01  (-0.3387805E-01)
 number of electron     216.0000000 magnetization 
 augmentation part       -0.3946618 magnetization 

 Free energy of the ion-electron system (eV)
  ---------------------------------------------------
  alpha Z        PSCENC =        59.93625244
  Ewald energy   TEWEN  =     34655.38404633
  -Hartree energ DENC   =    -41728.81510276
  -exchange      EXHF   =         0.00000000
  -V(xc)+E(xc)   XCENC  =       429.45099936
  PAW double counting   =     94487.91309409   -94188.15426893
  entropy T*S    EENTRO =        -0.00000000
  eigenvalues    EBANDS =     -2588.55939436
  atomic energy  EATOM  =      8461.08393172
  ---------------------------------------------------
  free energy    TOTEN  =      -411.76044211 eV

  energy without entropy =     -411.76044211  energy(sigma->0) =     -411.76044211


--------------------------------------------------------------------------------------------------------




--------------------------------------- Iteration      1(  12)  ---------------------------------------


    POTLOK:  cpu time    6.0499: real time    6.0967
    SETDIJ:  cpu time    0.0749: real time    0.0752
    TRIAL :  cpu time    5.3624: real time    5.4087
    CORREC:  cpu time    7.2504: real time    7.3035
    CHARGE:  cpu time    0.6032: real time    0.6105
    --------------------------------------------
      LOOP:  cpu time   19.4369: real time   19.5912

 eigenvalue-minimisations  :     0
 total energy-change (2. order) :-0.3386413E-01  (-0.9915991E-02)
 number of electron     216.0000000 magnetization 
 augmentation part       -0.3942077 magnetization 

 Free energy of the ion-electron system (eV)
  ---------------------------------------------------
  alpha Z        PSCENC =        59.93625244
  Ewald energy   TEWEN  =     34655.38404633
  -Hartree energ DENC   =    -41725.04219497
  -exchange      EXHF   =         0.00000000
  -V(xc)+E(xc)   XCENC  =       429.38303946
  PAW double counting   =     94051.18734827   -93751.45792638
  entropy T*S    EENTRO =        -0.00000000
  eigenvalues    EBANDS =     -2592.26880311
  atomic energy  EATOM  =      8461.08393172
  ---------------------------------------------------
  free energy    TOTEN  =      -411.79430624 eV

  energy without entropy =     -411.79430624  energy(sigma->0) =     -411.79430624


--------------------------------------------------------------------------------------------------------




--------------------------------------- Iteration      1(  13)  ---------------------------------------


    POTLOK:  cpu time    6.1205: real time    6.1632
    SETDIJ:  cpu time    0.0051: real time    0.0051
    TRIAL :  cpu time    5.3312: real time    5.4009
    CORREC:  cpu time    7.2443: real time    7.3061
    CHARGE:  cpu time    0.6054: real time    0.6101
    --------------------------------------------
      LOOP:  cpu time   19.3531: real time   19.5390

 eigenvalue-minimisations  :     0
 total energy-change (2. order) :-0.9954982E-02  (-0.2600685E-02)
 number of electron     216.0000000 magnetization 
 augmentation part       -0.3939425 magnetization 

 Free energy of the ion-electron system (eV)
  ---------------------------------------------------
  alpha Z        PSCENC =        59.93625244
  Ewald energy   TEWEN  =     34655.38404633
  -Hartree energ DENC   =    -41724.10194856
  -exchange      EXHF   =         0.00000000
  -V(xc)+E(xc)   XCENC  =       429.34923839
  PAW double counting   =     93847.20742821   -93547.49133522
  entropy T*S    EENTRO =        -0.00000000
  eigenvalues    EBANDS =     -2593.17187454
  atomic energy  EATOM  =      8461.08393172
  ---------------------------------------------------
  free energy    TOTEN  =      -411.80426122 eV

  energy without entropy =     -411.80426122  energy(sigma->0) =     -411.80426122


--------------------------------------------------------------------------------------------------------




--------------------------------------- Iteration      1(  14)  ---------------------------------------


    POTLOK:  cpu time    6.0691: real time    6.1147
    SETDIJ:  cpu time    0.0312: real time    0.0313
    TRIAL :  cpu time    5.3532: real time    5.3978
    CORREC:  cpu time    7.2912: real time    7.3443
    CHARGE:  cpu time    0.6048: real time    0.6088
    --------------------------------------------
      LOOP:  cpu time   19.3992: real time   19.5505

 eigenvalue-minimisations  :     0
 total energy-change (2. order) :-0.2619822E-02  (-0.6522714E-03)
 number of electron     216.0000000 magnetization 
 augmentation part       -0.3938587 magnetization 

 Free energy of the ion-electron system (eV)
  ---------------------------------------------------
  alpha Z        PSCENC =        59.93625244
  Ewald energy   TEWEN  =     34655.38404633
  -Hartree energ DENC   =    -41723.99788844
  -exchange      EXHF   =         0.00000000
  -V(xc)+E(xc)   XCENC  =       429.34250201
  PAW double counting   =     93804.64021852   -93504.93011687
  entropy T*S    EENTRO =        -0.00000000
  eigenvalues    EBANDS =     -2593.26582675
  atomic energy  EATOM  =      8461.08393172
  ---------------------------------------------------
  free energy    TOTEN  =      -411.80688104 eV

  energy without entropy =     -411.80688104  energy(sigma->0) =     -411.80688104


--------------------------------------------------------------------------------------------------------




--------------------------------------- Iteration      1(  15)  ---------------------------------------


    POTLOK:  cpu time    6.1235: real time    6.1715
    SETDIJ:  cpu time    0.0049: real time    0.0049
    TRIAL :  cpu time    5.3560: real time    5.4012
    CORREC:  cpu time    7.2698: real time    7.3235
    CHARGE:  cpu time    0.6057: real time    0.6096
    --------------------------------------------
      LOOP:  cpu time   19.4328: real time   19.6077

 eigenvalue-minimisations  :     0
 total energy-change (2. order) :-0.6594638E-03  (-0.1938748E-03)
 number of electron     216.0000000 magnetization 
 augmentation part       -0.3937753 magnetization 

 Free energy of the ion-electron system (eV)
  ---------------------------------------------------
  alpha Z        PSCENC =        59.93625244
  Ewald energy   TEWEN  =     34655.38404633
  -Hartree energ DENC   =    -41723.86585467
  -exchange      EXHF   =         0.00000000
  -V(xc)+E(xc)   XCENC  =       429.33514428
  PAW double counting   =     93799.31716616   -93499.60777709
  entropy T*S    EENTRO =        -0.00000000
  eigenvalues    EBANDS =     -2593.39044968
  atomic energy  EATOM  =      8461.08393172
  ---------------------------------------------------
  free energy    TOTEN  =      -411.80754051 eV

  energy without entropy =     -411.80754051  energy(sigma->0) =     -411.80754051


--------------------------------------------------------------------------------------------------------




--------------------------------------- Iteration      1(  16)  ---------------------------------------


    POTLOK:  cpu time    6.0329: real time    6.0811
    SETDIJ:  cpu time    0.1220: real time    0.1225
    TRIAL :  cpu time    5.3456: real time    5.4038
    CORREC:  cpu time    7.2492: real time    7.3024
    CHARGE:  cpu time    0.6061: real time    0.6103
    --------------------------------------------
      LOOP:  cpu time   19.4085: real time   19.6038

 eigenvalue-minimisations  :     0
 total energy-change (2. order) :-0.1984684E-03  (-0.6748554E-04)
 number of electron     216.0000000 magnetization 
 augmentation part       -0.3936798 magnetization 

 Free energy of the ion-electron system (eV)
  ---------------------------------------------------
  alpha Z        PSCENC =        59.93625244
  Ewald energy   TEWEN  =     34655.38404633
  -Hartree energ DENC   =    -41723.93648960
  -exchange      EXHF   =         0.00000000
  -V(xc)+E(xc)   XCENC  =       429.33564419
  PAW double counting   =     93781.81789274   -93482.10875835
  entropy T*S    EENTRO =        -0.00000000
  eigenvalues    EBANDS =     -2593.32025844
  atomic energy  EATOM  =      8461.08393172
  ---------------------------------------------------
  free energy    TOTEN  =      -411.80773898 eV

  energy without entropy =     -411.80773898  energy(sigma->0) =     -411.80773898


--------------------------------------------------------------------------------------------------------




--------------------------------------- Iteration      1(  17)  ---------------------------------------


    POTLOK:  cpu time    6.0331: real time    6.0800
    SETDIJ:  cpu time    0.0742: real time    0.0745
    TRIAL :  cpu time    5.3596: real time    5.4054
    CORREC:  cpu time    7.2669: real time    7.3219
    CHARGE:  cpu time    0.6089: real time    0.6129
    --------------------------------------------
      LOOP:  cpu time   19.3990: real time   19.5514

 eigenvalue-minimisations  :     0
 total energy-change (2. order) :-0.7013453E-04  (-0.2573951E-04)
 number of electron     216.0000000 magnetization 
 augmentation part       -0.3936855 magnetization 

 Free energy of the ion-electron system (eV)
  ---------------------------------------------------
  alpha Z        PSCENC =        59.93625244
  Ewald energy   TEWEN  =     34655.38404633
  -Hartree energ DENC   =    -41724.09538876
  -exchange      EXHF   =         0.00000000
  -V(xc)+E(xc)   XCENC  =       429.34046016
  PAW double counting   =     93765.54392130   -93465.83525656
  entropy T*S    EENTRO =        -0.00000000
  eigenvalues    EBANDS =     -2593.16577573
  atomic energy  EATOM  =      8461.08393172
  ---------------------------------------------------
  free energy    TOTEN  =      -411.80780911 eV

  energy without entropy =     -411.80780911  energy(sigma->0) =     -411.80780911


--------------------------------------------------------------------------------------------------------




--------------------------------------- Iteration      1(  18)  ---------------------------------------


    POTLOK:  cpu time    6.0594: real time    6.1071
    SETDIJ:  cpu time    0.0199: real time    0.0199
    TRIAL :  cpu time    5.3551: real time    5.3981
    CORREC:  cpu time    7.2464: real time    7.3190
    CHARGE:  cpu time    0.6147: real time    0.6187
    --------------------------------------------
      LOOP:  cpu time   19.3338: real time   19.5304

 eigenvalue-minimisations  :     0
 total energy-change (2. order) :-0.2726850E-04  (-0.9851212E-05)
 number of electron     216.0000000 magnetization 
 augmentation part       -0.3937091 magnetization 

 Free energy of the ion-electron system (eV)
  ---------------------------------------------------
  alpha Z        PSCENC =        59.93625244
  Ewald energy   TEWEN  =     34655.38404633
  -Hartree energ DENC   =    -41724.12322414
  -exchange      EXHF   =         0.00000000
  -V(xc)+E(xc)   XCENC  =       429.34068916
  PAW double counting   =     93762.29419675   -93462.58502114
  entropy T*S    EENTRO =        -0.00000000
  eigenvalues    EBANDS =     -2593.13870751
  atomic energy  EATOM  =      8461.08393172
  ---------------------------------------------------
  free energy    TOTEN  =      -411.80783638 eV

  energy without entropy =     -411.80783638  energy(sigma->0) =     -411.80783638


--------------------------------------------------------------------------------------------------------




--------------------------------------- Iteration      1(  19)  ---------------------------------------


    POTLOK:  cpu time    6.0429: real time    6.0918
    SETDIJ:  cpu time    0.0559: real time    0.0561
    TRIAL :  cpu time    5.3570: real time    5.4001
    CORREC:  cpu time    7.2421: real time    7.2982
    CHARGE:  cpu time    0.6149: real time    0.6191
    --------------------------------------------
      LOOP:  cpu time   19.3708: real time   19.5270

 eigenvalue-minimisations  :     0
 total energy-change (2. order) :-0.1051008E-04  (-0.4173067E-05)
 number of electron     216.0000000 magnetization 
 augmentation part       -0.3937308 magnetization 

 Free energy of the ion-electron system (eV)
  ---------------------------------------------------
  alpha Z        PSCENC =        59.93625244
  Ewald energy   TEWEN  =     34655.38404633
  -Hartree energ DENC   =    -41724.14937138
  -exchange      EXHF   =         0.00000000
  -V(xc)+E(xc)   XCENC  =       429.34154558
  PAW double counting   =     93767.09891118   -93467.38946745
  entropy T*S    EENTRO =        -0.00000000
  eigenvalues    EBANDS =     -2593.11369530
  atomic energy  EATOM  =      8461.08393172
  ---------------------------------------------------
  free energy    TOTEN  =      -411.80784689 eV

  energy without entropy =     -411.80784689  energy(sigma->0) =     -411.80784689


--------------------------------------------------------------------------------------------------------




--------------------------------------- Iteration      1(  20)  ---------------------------------------


    POTLOK:  cpu time    6.0718: real time    6.1195
    SETDIJ:  cpu time    0.0460: real time    0.0462
    TRIAL :  cpu time    5.3557: real time    5.3983
    CORREC:  cpu time    7.2658: real time    7.3252
    CHARGE:  cpu time    0.6093: real time    0.6133
    --------------------------------------------
      LOOP:  cpu time   19.3696: real time   19.5756

 eigenvalue-minimisations  :     0
 total energy-change (2. order) :-0.4425630E-05  (-0.1485241E-05)
 number of electron     216.0000000 magnetization 
 augmentation part       -0.3937424 magnetization 

 Free energy of the ion-electron system (eV)
  ---------------------------------------------------
  alpha Z        PSCENC =        59.93625244
  Ewald energy   TEWEN  =     34655.38404633
  -Hartree energ DENC   =    -41724.17099039
  -exchange      EXHF   =         0.00000000
  -V(xc)+E(xc)   XCENC  =       429.34221618
  PAW double counting   =     93772.75117965   -93473.04161154
  entropy T*S    EENTRO =        -0.00000000
  eigenvalues    EBANDS =     -2593.09287571
  atomic energy  EATOM  =      8461.08393172
  ---------------------------------------------------
  free energy    TOTEN  =      -411.80785131 eV

  energy without entropy =     -411.80785131  energy(sigma->0) =     -411.80785131


--------------------------------------------------------------------------------------------------------




--------------------------------------- Iteration      1(  21)  ---------------------------------------


    POTLOK:  cpu time    6.0572: real time    6.1056
    SETDIJ:  cpu time    0.0573: real time    0.0575
    TRIAL :  cpu time    5.3490: real time    5.3915
    CORREC:  cpu time    7.2435: real time    7.3053
    CHARGE:  cpu time    0.6068: real time    0.6115
    --------------------------------------------
      LOOP:  cpu time   19.3496: real time   19.5165

 eigenvalue-minimisations  :     0
 total energy-change (2. order) :-0.1536493E-05  (-0.8506038E-06)
 number of electron     216.0000000 magnetization 
 augmentation part       -0.3937368 magnetization 

 Free energy of the ion-electron system (eV)
  ---------------------------------------------------
  alpha Z        PSCENC =        59.93625244
  Ewald energy   TEWEN  =     34655.38404633
  -Hartree energ DENC   =    -41724.16886810
  -exchange      EXHF   =         0.00000000
  -V(xc)+E(xc)   XCENC  =       429.34194887
  PAW double counting   =     93775.10480291   -93475.39515141
  entropy T*S    EENTRO =        -0.00000000
  eigenvalues    EBANDS =     -2593.09481561
  atomic energy  EATOM  =      8461.08393172
  ---------------------------------------------------
  free energy    TOTEN  =      -411.80785285 eV

  energy without entropy =     -411.80785285  energy(sigma->0) =     -411.80785285


--------------------------------------------------------------------------------------------------------




--------------------------------------- Iteration      1(  22)  ---------------------------------------


    POTLOK:  cpu time    6.0362: real time    6.0830
    SETDIJ:  cpu time    0.0761: real time    0.0764
    TRIAL :  cpu time    5.3638: real time    5.4056
    CORREC:  cpu time    7.2424: real time    7.2977
    CHARGE:  cpu time    0.6103: real time    0.6144
    --------------------------------------------
      LOOP:  cpu time   19.3818: real time   19.5388

 eigenvalue-minimisations  :     0
 total energy-change (2. order) :-0.7218769E-06  (-0.2595567E-06)
 number of electron     216.0000000 magnetization 
 augmentation part       -0.3937378 magnetization 

 Free energy of the ion-electron system (eV)
  ---------------------------------------------------
  alpha Z        PSCENC =        59.93625244
  Ewald energy   TEWEN  =     34655.38404633
  -Hartree energ DENC   =    -41724.17215098
  -exchange      EXHF   =         0.00000000
  -V(xc)+E(xc)   XCENC  =       429.34203303
  PAW double counting   =     93775.10267556   -93475.39312587
  entropy T*S    EENTRO =        -0.00000000
  eigenvalues    EBANDS =     -2593.09151580
  atomic energy  EATOM  =      8461.08393172
  ---------------------------------------------------
  free energy    TOTEN  =      -411.80785357 eV

  energy without entropy =     -411.80785357  energy(sigma->0) =     -411.80785357


--------------------------------------------------------------------------------------------------------




--------------------------------------- Iteration      1(  23)  ---------------------------------------


    POTLOK:  cpu time    6.0502: real time    6.0966
    SETDIJ:  cpu time    0.0493: real time    0.0495
    TRIAL :  cpu time    5.3533: real time    5.4000
    CORREC:  cpu time    7.2615: real time    7.3172
    CHARGE:  cpu time    0.6061: real time    0.6101
    --------------------------------------------
      LOOP:  cpu time   19.3651: real time   19.5523

 eigenvalue-minimisations  :     0
 total energy-change (2. order) :-0.2161978E-06  (-0.2270286E-06)
 number of electron     216.0000000 magnetization 
 augmentation part       -0.3937399 magnetization 

 Free energy of the ion-electron system (eV)
  ---------------------------------------------------
  alpha Z        PSCENC =        59.93625244
  Ewald energy   TEWEN  =     34655.38404633
  -Hartree energ DENC   =    -41724.16656051
  -exchange      EXHF   =         0.00000000
  -V(xc)+E(xc)   XCENC  =       429.34182714
  PAW double counting   =     93774.48537612   -93474.77583438
  entropy T*S    EENTRO =        -0.00000000
  eigenvalues    EBANDS =     -2593.09689265
  atomic energy  EATOM  =      8461.08393172
  ---------------------------------------------------
  free energy    TOTEN  =      -411.80785379 eV

  energy without entropy =     -411.80785379  energy(sigma->0) =     -411.80785379


--------------------------------------------------------------------------------------------------------




--------------------------------------- Iteration      1(  24)  ---------------------------------------


    POTLOK:  cpu time    6.0283: real time    6.0748
    SETDIJ:  cpu time    0.1017: real time    0.1021
    TRIAL :  cpu time    5.3628: real time    5.4037
    CORREC:  cpu time    7.2819: real time    7.3378
    CHARGE:  cpu time    0.6055: real time    0.6095
    --------------------------------------------
      LOOP:  cpu time   19.4405: real time   19.6014

 eigenvalue-minimisations  :     0
 total energy-change (2. order) :-0.9570795E-07  (-0.1451102E-06)
 number of electron     216.0000000 magnetization 
 augmentation part       -0.3937401 magnetization 

 Free energy of the ion-electron system (eV)
  ---------------------------------------------------
  alpha Z        PSCENC =        59.93625244
  Ewald energy   TEWEN  =     34655.38404633
  -Hartree energ DENC   =    -41724.16098528
  -exchange      EXHF   =         0.00000000
  -V(xc)+E(xc)   XCENC  =       429.34174835
  PAW double counting   =     93773.67070935   -93473.96117244
  entropy T*S    EENTRO =        -0.00000000
  eigenvalues    EBANDS =     -2593.10238435
  atomic energy  EATOM  =      8461.08393172
  ---------------------------------------------------
  free energy    TOTEN  =      -411.80785389 eV

  energy without entropy =     -411.80785389  energy(sigma->0) =     -411.80785389


--------------------------------------------------------------------------------------------------------




--------------------------------------- Iteration      1(  25)  ---------------------------------------


    POTLOK:  cpu time    6.0464: real time    6.0941
    SETDIJ:  cpu time    0.0579: real time    0.0581
    TRIAL :  cpu time    5.3586: real time    5.4005
    CORREC:  cpu time   29.0133: real time   29.2511
    CHARGE:  cpu time    0.6082: real time    0.6123
    --------------------------------------------
      LOOP:  cpu time   41.1297: real time   41.4672

 eigenvalue-minimisations  :     0
 total energy-change (2. order) :-0.1381268E-06  (-0.2792673E-06)
 number of electron     216.0000000 magnetization 
 augmentation part       -0.3937465 magnetization 

 Free energy of the ion-electron system (eV)
  ---------------------------------------------------
  alpha Z        PSCENC =        59.93625244
  Ewald energy   TEWEN  =     34655.38404633
  -Hartree energ DENC   =    -41724.16199161
  -exchange      EXHF   =         0.00000000
  -V(xc)+E(xc)   XCENC  =       429.34178501
  PAW double counting   =     93773.67556547   -93473.96602536
  entropy T*S    EENTRO =        -0.00000000
  eigenvalues    EBANDS =     -2593.10141803
  atomic energy  EATOM  =      8461.08393172
  ---------------------------------------------------
  free energy    TOTEN  =      -411.80785402 eV

  energy without entropy =     -411.80785402  energy(sigma->0) =     -411.80785402


--------------------------------------------------------------------------------------------------------




--------------------------------------- Iteration      1(  26)  ---------------------------------------


    POTLOK:  cpu time    6.0557: real time    6.1048
    SETDIJ:  cpu time    0.0352: real time    0.0353
    TRIAL :  cpu time    5.3529: real time    5.3989
    CORREC:  cpu time    7.2630: real time    7.3211
    CHARGE:  cpu time    0.6046: real time    0.6093
    --------------------------------------------
      LOOP:  cpu time   19.3683: real time   19.5338

 eigenvalue-minimisations  :     0
 total energy-change (2. order) : 0.5257316E-06  (-0.4959139E-06)
 number of electron     216.0000000 magnetization 
 augmentation part       -0.3937433 magnetization 

 Free energy of the ion-electron system (eV)
  ---------------------------------------------------
  alpha Z        PSCENC =        59.93625244
  Ewald energy   TEWEN  =     34655.38404633
  -Hartree energ DENC   =    -41724.16163533
  -exchange      EXHF   =         0.00000000
  -V(xc)+E(xc)   XCENC  =       429.34173411
  PAW double counting   =     93773.55640444   -93473.84679150
  entropy T*S    EENTRO =        -0.00000000
  eigenvalues    EBANDS =     -2593.10179571
  atomic energy  EATOM  =      8461.08393172
  ---------------------------------------------------
  free energy    TOTEN  =      -411.80785350 eV

  energy without entropy =     -411.80785350  energy(sigma->0) =     -411.80785350


--------------------------------------------------------------------------------------------------------




--------------------------------------- Iteration      1(  27)  ---------------------------------------


    POTLOK:  cpu time    6.0467: real time    6.0937
    SETDIJ:  cpu time    0.1147: real time    0.1150
    TRIAL :  cpu time    5.3657: real time    5.4074
    CORREC:  cpu time    7.2559: real time    7.3120
    CHARGE:  cpu time    0.6092: real time    0.6136
    --------------------------------------------
      LOOP:  cpu time   19.4056: real time   19.5839

 eigenvalue-minimisations  :     0
 total energy-change (2. order) :-0.4923349E-06  (-0.6813981E-07)
 number of electron     216.0000000 magnetization 
 augmentation part       -0.3937430 magnetization 

 Free energy of the ion-electron system (eV)
[...]
      9     -21.1876      2.00000
     10     -19.3715      2.00000
     11     -19.3688      2.00000
     12     -19.3629      2.00000
     13     -19.3619      2.00000
     14     -19.3602      2.00000
     15     -19.3599      2.00000
     16     -18.4782      2.00000
     17     -18.4759      2.00000
     18     -18.4734      2.00000
     19     -18.4716      2.00000
     20     -18.4704      2.00000
     21     -18.4699      2.00000
     22     -16.3352      2.00000
     23     -16.3337      2.00000
     24     -16.3303      2.00000
     25     -16.3296      2.00000
     26     -16.3257      2.00000
     27     -16.3251      2.00000
     28     -15.3410      2.00000
     29     -15.3398      2.00000
     30     -15.3359      2.00000
     31     -15.3353      2.00000
     32     -15.3338      2.00000
     33     -15.3333      2.00000
     34     -14.0007      2.00000
     35     -13.9999      2.00000
     36     -13.9988      2.00000
     37     -13.9970      2.00000
     38     -13.9970      2.00000
     39     -13.9966      2.00000
     40     -12.2754      2.00000
     41     -11.6479      2.00000
     42     -11.6470      2.00000
     43     -11.6438      2.00000
     44     -11.6434      2.00000
     45     -11.6432      2.00000
     46     -11.6427      2.00000
     47     -11.5378      2.00000
     48     -11.5362      2.00000
     49     -11.5344      2.00000
     50     -11.5341      2.00000
     51     -11.5307      2.00000
     52     -11.5305      2.00000
     53     -11.1550      2.00000
     54     -11.1353      2.00000
     55     -11.0383      2.00000
     56     -10.2515      2.00000
     57     -10.1705      2.00000
     58     -10.1704      2.00000
     59     -10.1691      2.00000
     60     -10.1688      2.00000
     61     -10.1678      2.00000
     62     -10.1672      2.00000
     63      -9.1808      2.00000
     64      -9.1771      2.00000
     65      -9.1753      2.00000
     66      -9.1716      2.00000
     67      -9.1698      2.00000
     68      -9.1154      2.00000
     69      -8.9330      2.00000
     70      -8.9293      2.00000
     71      -8.9285      2.00000
     72      -8.9279      2.00000
     73      -8.9270      2.00000
     74      -8.9253      2.00000
     75      -8.8719      2.00000
     76      -8.8710      2.00000
     77      -8.8706      2.00000
     78      -8.8682      2.00000
     79      -8.8678      2.00000
     80      -8.8662      2.00000
     81      -7.5962      2.00000
     82      -7.5225      2.00000
     83      -7.2942      2.00000
     84      -7.2936      2.00000
     85      -7.2925      2.00000
     86      -7.2900      2.00000
     87      -7.2881      2.00000
     88      -7.2879      2.00000
     89      -7.0596      2.00000
     90      -7.0522      2.00000
     91      -7.0461      2.00000
     92      -7.0426      2.00000
     93      -7.0385      2.00000
     94      -6.9601      2.00000
     95      -6.1651      2.00000
     96      -6.1622      2.00000
     97      -6.1553      2.00000
     98      -6.1528      2.00000
     99      -6.1471      2.00000
    100      -6.1167      2.00000
    101      -5.8312      2.00000
    102      -5.8288      2.00000
    103      -4.1903      2.00000
    104      -4.1850      2.00000
    105      -4.1804      2.00000
    106      -4.1776      2.00000
    107      -4.1729      2.00000
    108      -4.1721      2.00000
    109      -1.4013      0.00000
    110      -1.3969      0.00000
    111      -1.3840      0.00000
    112      -1.3813      0.00000
    113      -1.3791      0.00000
    114      -1.3757      0.00000
    115      -0.2848      0.00000
    116       0.2136      0.00000
    117       0.4412      0.00000
    118       0.4570      0.00000
    119       0.4666      0.00000
    120       0.4752      0.00000
    121       0.4775      0.00000
    122       0.4801      0.00000
    123       0.7166      0.00000
    124       0.7728      0.00000
    125       0.8813      0.00000
    126       0.9435      0.00000
    127       0.9902      0.00000
    128       1.0399      0.00000
    129       1.1672      0.00000
    130       1.2389      0.00000
    131       1.3182      0.00000
    132       1.4570      0.00000
    133       1.6081      0.00000
    134       1.6150      0.00000
    135       1.6370      0.00000
    136       1.6922      0.00000
    137       1.7237      0.00000
    138       1.8749      0.00000
    139       1.9498      0.00000
    140       2.1023      0.00000
    141       2.1122      0.00000
    142       2.1233      0.00000
    143       2.1450      0.00000
    144       2.1529      0.00000
    145       2.1924      0.00000
    146       2.1972      0.00000
    147       2.2068      0.00000
    148       2.2087      0.00000
    149       2.2112      0.00000
    150       2.2155      0.00000
    151       2.2293      0.00000
    152       2.7432      0.00000
    153       2.8919      0.00000
    154       2.9850      0.00000
    155       3.2043      0.00000
    156       3.3038      0.00000
    157       3.4127      0.00000
    158       3.5316      0.00000
    159       3.5608      0.00000
    160       3.7021      0.00000
    161       3.8103      0.00000
    162       4.3027      0.00000
    163       4.5792      0.00000
    164       4.7867      0.00000
    165       4.8328      0.00000
    166       4.8921      0.00000
    167       4.9028      0.00000
    168       4.9045      0.00000


--------------------------------------------------------------------------------------------------------


 soft charge-density along one line, spin component           1
         0         1         2         3         4         5         6         7         8         9
 total charge-density along one line
 
 pseudopotential strength for first ion, spin component:           1
 12.675  21.329  -0.000   0.000   0.000  -0.000   0.000   0.000
 21.329  35.892  -0.000   0.000   0.000  -0.000   0.000   0.000
 -0.000  -0.000  -3.239  -0.000   0.000  -5.804  -0.000   0.000
  0.000   0.000  -0.000  -3.247  -0.000  -0.000  -5.818  -0.000
  0.000   0.000   0.000  -0.000  -3.239   0.000  -0.000  -5.804
 -0.000  -0.000  -5.804  -0.000   0.000 -10.381  -0.000   0.000
  0.000   0.000  -0.000  -5.818  -0.000  -0.000 -10.405  -0.000
  0.000   0.000   0.000  -0.000  -5.804   0.000  -0.000 -10.381
 total augmentation occupancy for first ion, spin component:           1
  6.916  -2.317  -0.001  -0.002   0.000   0.000   0.001  -0.000
 -2.317   0.818   0.000   0.001  -0.000  -0.000  -0.000   0.000
 -0.001   0.000   6.627  -0.007   0.000  -2.167   0.003  -0.000
 -0.002   0.001  -0.007   2.818  -0.000   0.003  -0.689   0.000
  0.000  -0.000   0.000  -0.000   6.627  -0.000   0.000  -2.167
  0.000  -0.000  -2.167   0.003  -0.000   0.724  -0.001   0.000
  0.001  -0.000   0.003  -0.689   0.000  -0.001   0.176   0.000
 -0.000   0.000  -0.000   0.000  -2.167   0.000   0.000   0.724


------------------------ aborting loop because EDIFF is reached ----------------------------------------


    FORLOC:  cpu time    0.1042: real time    0.1050
    FORNL :  cpu time    2.9123: real time    2.9365
    FORCOR:  cpu time    6.0641: real time    6.1131
    OFIELD:  cpu time    0.0022: real time    0.0023

 VOLUME and BASIS-vectors are now :
 -----------------------------------------------------------------------------
  energy-cutoff  :     1000.00
  volume of cell :     2631.08
      direct lattice vectors                 reciprocal lattice vectors
    12.325000000  0.000000000  0.000000000     0.081135903  0.046843835  0.000000000
    -6.162500000 10.673763102  0.000000000     0.000000000  0.093687670  0.000000000
     0.000000000  0.000000000 20.000000000     0.000000000  0.000000000  0.050000000

  length of vectors
    12.325000000 12.325000000 20.000000000     0.093687670  0.093687670  0.050000000


 FORCES acting on ions:
    Electron-Ion                     Ewald-Force                    Non-Local-Force
 -----------------------------------------------------------------------------------------------
   0.121E+02 0.106E+02 0.226E+02   -.121E+02 -.106E+02 -.226E+02   0.146E-01 -.755E-02 0.156E-01
   0.202E+02 0.101E+02 0.308E+02   -.203E+02 -.101E+02 -.308E+02   0.206E-01 -.156E-01 -.361E-02
   0.102E+02 0.259E+02 0.395E+02   -.102E+02 -.260E+02 -.395E+02   -.182E-02 0.523E-01 0.463E-01
   0.168E+02 0.247E+02 0.675E+02   -.169E+02 -.247E+02 -.676E+02   0.680E-01 0.279E-01 0.936E-01
   0.132E+02 0.314E+01 0.227E+02   -.132E+02 -.312E+01 -.226E+02   0.272E-02 -.188E-01 -.279E-02
   0.139E+02 -.234E+01 0.233E+02   -.139E+02 0.235E+01 -.232E+02   -.251E-01 -.566E-02 -.114E-01
   0.283E+02 0.118E+02 0.568E+02   -.284E+02 -.117E+02 -.568E+02   0.581E-01 -.785E-01 -.264E-01
   0.282E+02 -.941E+01 0.611E+02   -.282E+02 0.946E+01 -.610E+02   -.539E-02 -.337E-01 -.161E+00
   -.113E+02 0.242E+02 0.410E+02   0.113E+02 -.241E+02 -.410E+02   -.236E-01 -.115E-01 -.455E-01
   -.213E+02 0.182E+02 0.659E+02   0.213E+02 -.183E+02 -.659E+02   -.748E-01 0.398E-01 -.150E+00
   0.322E+01 -.282E+01 0.176E+02   -.320E+01 0.280E+01 -.176E+02   -.710E-02 0.566E-02 -.531E-02
   0.254E+01 -.205E+01 0.162E+02   -.254E+01 0.205E+01 -.162E+02   -.165E-01 0.714E-02 0.178E-02
   0.107E+02 -.262E+02 0.710E+02   -.108E+02 0.263E+02 -.709E+02   0.105E+00 -.138E-01 -.167E+00
   0.477E+01 -.263E+02 0.403E+02   -.480E+01 0.263E+02 -.403E+02   0.302E-01 0.411E-02 -.419E-01
   -.118E+02 0.746E+01 0.222E+02   0.118E+02 -.745E+01 -.222E+02   0.176E-01 -.978E-02 -.479E-02
   -.178E+02 0.497E+01 0.267E+02   0.178E+02 -.498E+01 -.267E+02   0.192E-02 0.904E-02 -.232E-01
   -.173E+01 -.711E+00 0.154E+02   0.174E+01 0.708E+00 -.154E+02   -.503E-02 -.646E-03 0.138E-02
   0.971E+00 0.641E+01 0.167E+02   -.966E+00 -.640E+01 -.167E+02   -.957E-02 0.409E-02 0.894E-02
   -.370E+01 -.212E+02 0.292E+02   0.367E+01 0.212E+02 -.292E+02   0.332E-01 -.488E-02 0.166E-01
   -.153E+01 -.998E+01 0.188E+02   0.152E+01 0.998E+01 -.188E+02   0.538E-02 -.536E-02 -.918E-03
   0.213E+02 -.922E+01 0.339E+02   -.212E+02 0.921E+01 -.338E+02   -.117E-01 -.320E-02 -.500E-01
   0.123E+02 -.107E+02 0.253E+02   -.123E+02 0.107E+02 -.253E+02   -.157E-01 0.212E-01 -.132E-01
   -.528E+01 0.123E+02 0.898E+02   0.539E+01 -.124E+02 -.899E+02   -.963E-01 0.708E-01 0.887E-02
   -.985E+01 -.196E+02 0.838E+02   0.978E+01 0.197E+02 -.839E+02   0.663E-01 -.836E-01 0.300E-01
   0.559E+01 -.249E+01 0.177E+02   -.557E+01 0.249E+01 -.177E+02   -.135E-01 0.290E-02 -.936E-02
   0.101E+01 0.503E+01 0.180E+02   -.100E+01 -.503E+01 -.180E+02   -.139E-01 0.630E-02 -.825E-03
   -.280E+02 0.311E+01 0.462E+02   0.280E+02 -.316E+01 -.461E+02   0.134E-02 0.348E-01 -.564E-01
   -.253E+02 -.109E+02 0.406E+02   0.253E+02 0.109E+02 -.406E+02   -.434E-01 0.391E-01 0.215E-01
   0.753E+01 -.155E+02 0.267E+02   -.754E+01 0.155E+02 -.267E+02   0.945E-02 0.126E-01 -.180E-01
   0.701E+00 -.560E+01 0.191E+02   -.715E+00 0.558E+01 -.191E+02   0.361E-02 0.118E-01 -.883E-02
   -.209E+02 -.226E+02 0.519E+02   0.209E+02 0.227E+02 -.519E+02   -.539E-01 -.348E-01 0.766E-01
   -.115E+02 -.208E+02 0.316E+02   0.115E+02 0.209E+02 -.317E+02   -.106E-02 -.314E-01 0.296E-01
   0.642E+00 0.266E+01 0.160E+02   -.648E+00 -.266E+01 -.160E+02   0.123E-01 -.928E-02 0.384E-02
   0.186E+01 0.270E+01 0.175E+02   -.186E+01 -.269E+01 -.175E+02   0.860E-03 -.606E-02 -.587E-02
   -.822E+01 0.991E+00 0.196E+02   0.822E+01 -.100E+01 -.196E+02   0.126E-01 0.286E-02 -.159E-02
   -.703E+01 -.280E+01 0.189E+02   0.704E+01 0.279E+01 -.189E+02   -.116E-01 0.953E-02 -.253E-02
   -.144E+02 -.755E+01 0.233E+02   0.145E+02 0.754E+01 -.233E+02   -.168E-01 0.478E-02 0.271E-02
   -.821E+01 -.667E+01 0.186E+02   0.822E+01 0.667E+01 -.186E+02   -.115E-01 0.376E-02 0.111E-01
   -.774E+01 -.101E+02 0.203E+02   0.775E+01 0.102E+02 -.203E+02   -.118E-01 -.905E-02 0.844E-02
   -.113E+01 -.238E+01 0.166E+02   0.113E+01 0.239E+01 -.166E+02   0.169E-02 -.226E-02 0.830E-02
   0.290E+01 0.692E+01 0.176E+02   -.290E+01 -.693E+01 -.176E+02   -.385E-02 0.107E-01 0.822E-02
   0.979E+01 0.153E+02 0.244E+02   -.980E+01 -.153E+02 -.244E+02   0.127E-01 0.144E-01 0.181E-01
   0.776E+00 0.125E+02 0.200E+02   -.765E+00 -.125E+02 -.200E+02   -.887E-02 0.910E-02 -.224E-03
   0.213E+00 0.241E+02 0.330E+02   -.177E+00 -.241E+02 -.330E+02   -.415E-01 0.119E-01 0.181E-01
   -.237E+01 0.472E+01 0.191E+02   0.237E+01 -.472E+01 -.191E+02   0.932E-03 -.940E-02 -.621E-02
   -.101E+02 0.130E+02 0.253E+02   0.101E+02 -.130E+02 -.253E+02   -.677E-02 -.387E-02 -.170E-01
   -.167E+01 -.471E+01 0.173E+02   0.166E+01 0.471E+01 -.173E+02   0.156E-01 -.125E-02 0.128E-02
   -.439E+01 0.180E+01 0.165E+02   0.438E+01 -.180E+01 -.165E+02   0.107E-01 -.151E-02 -.814E-02
   0.333E+00 -.292E+01 0.162E+02   -.333E+00 0.292E+01 -.162E+02   0.832E-02 -.338E-02 0.573E-02
   0.462E+01 0.340E+01 0.165E+02   -.462E+01 -.339E+01 -.165E+02   0.515E-02 0.381E-02 0.379E-02
   0.220E+00 -.140E+00 -.386E+03   -.204E+00 0.128E+00 0.386E+03   -.190E-01 0.973E-02 -.394E-01
   -.229E+03 0.155E+03 -.591E+03   0.279E+03 -.190E+03 0.594E+03   -.510E+02 0.348E+02 -.304E+01
   0.229E+03 -.156E+03 -.570E+03   -.279E+03 0.190E+03 0.567E+03   0.510E+02 -.348E+02 0.346E+01
 -----------------------------------------------------------------------------------------------
   0.483E-01 -.222E-02 0.219E-01   0.000E+00 0.284E-13 0.682E-12   -.483E-01 0.227E-02 -.201E-01
 
 
 POSITION                                       TOTAL-FORCE (eV/Angst)
 -----------------------------------------------------------------------------------
     11.98348      0.00342      0.01417         0.001250     -0.000705      0.000630
     -0.34154      1.42665      0.01100         0.005128      0.004731      0.002588
      2.12355      0.00315      0.01249         0.003636     -0.008846      0.008750
      2.12326      1.42653      0.00641        -0.004265      0.006547     -0.007350
     10.75099      2.13819      0.01213         0.000237     -0.003815      0.003520
     -1.57382      3.56123      0.01110        -0.004910      0.007497      0.002279
      0.89078      2.13854      0.00548        -0.008244      0.007949     -0.011674
      0.89099      3.56147      0.00181        -0.007498      0.013029     -0.040895
      4.58864      0.00346      0.01135         0.008332      0.017758     -0.002028
      4.58894      1.42623      0.00646         0.007975     -0.006914     -0.054183
      9.51854      4.27281      0.01369         0.007867     -0.009568      0.000473
     -2.80632      5.69591      0.01434        -0.010566      0.006039      0.001057
      2.12300      4.27302      0.00000        -0.011083      0.019522     -0.069402
      2.12335      5.69594      0.00581        -0.004989     -0.024465     -0.000600
      7.05344      0.00333      0.01399         0.004672     -0.001728      0.003440
      7.05353      1.42635      0.01368        -0.006598      0.005757      0.001763
      8.28610      6.40752      0.01601         0.004247     -0.003509     -0.000209
     -4.03885      7.83070      0.01636        -0.004344      0.004534      0.000328
      3.35586      6.40753      0.01007         0.004398      0.001386      0.004718
      3.35599      7.83072      0.01320        -0.002867     -0.001610      0.000648
     -0.34146      4.27290      0.00723         0.018890     -0.012183      0.000863
     -0.34138      5.69591      0.00946        -0.006570      0.003424      0.005291
      3.35624      2.13791      0.00222         0.008397     -0.006929     -0.092996
      3.35573      3.56155      0.00139        -0.002629      0.010787     -0.062280
     -1.57395      6.40758      0.01311         0.011927     -0.003071     -0.000480
     -1.57385      7.83068      0.01438        -0.004894      0.004136      0.000596
      5.82093      2.13784      0.01033        -0.008999     -0.014138     -0.007413
      5.82114      3.56097      0.01156        -0.001084     -0.000879      0.006828
      0.89092      6.40755      0.00907         0.003162     -0.000624      0.004644
      0.89106      7.83068      0.01235        -0.009879     -0.001450      0.000784
      4.58871      4.27293      0.00850         0.001270     -0.008000      0.007721
      4.58852      5.69606      0.01149         0.000164      0.010621      0.004316
      9.51845      0.00337      0.01490         0.006853     -0.006727      0.000512
      9.51855      1.42644      0.01438        -0.004377      0.011025     -0.000196
      8.28593      2.13803      0.01453         0.002811     -0.006633      0.001782
      8.28613      3.56115      0.01464        -0.004579      0.001794      0.000910
      7.05356      4.27269      0.01457         0.001781     -0.001198      0.002246
      7.05362      5.69588      0.01553        -0.002875      0.000970      0.000326
      5.82112      6.40755      0.01489        -0.000775      0.000261      0.000391
      5.82102      7.83073      0.01579        -0.001451      0.003155     -0.000050
      7.05363      8.54227      0.01631        -0.000498     -0.002130      0.001427
     -5.27149      9.96549      0.01495        -0.001436     -0.001783     -0.000168
     -2.80638      8.54234      0.01558         0.002295      0.000103      0.000563
     -2.80627      9.96553      0.01362        -0.005056      0.000325      0.005157
     -0.34149      8.54239      0.01378         0.006557     -0.000668      0.001050
     -0.34138      9.96550      0.01354        -0.007685      0.003763      0.003739
      2.12343      8.54232      0.01336         0.007065     -0.000810      0.001028
      2.12354      9.96544      0.01469        -0.008478      0.003514     -0.001788
      4.58846      8.54235      0.01505         0.007556     -0.005805      0.001316
      4.58853      9.96550      0.01517        -0.002857      0.004795      0.001023
      3.04930      2.68154      2.97302        -0.002075     -0.002742      0.035137
      4.02070      2.02068      3.03744        -0.592816      0.418796      0.062221
      2.07767      3.34267      2.91356         0.607904     -0.435287      0.171647
 -----------------------------------------------------------------------------------
    total drift:                               -0.000026      0.000048      0.001764


--------------------------------------------------------------------------------------------------------



  FREE ENERGIE OF THE ION-ELECTRON SYSTEM (eV)
  ---------------------------------------------------
  free  energy   TOTEN  =      -411.80785405 eV

  energy  without entropy=     -411.80785405  energy(sigma->0) =     -411.80785405
 


--------------------------------------------------------------------------------------------------------


    POTLOK:  cpu time    6.1003: real time    6.1432


--------------------------------------------------------------------------------------------------------


 writing wavefunctions
     LOOP+:  cpu time  646.5809: real time  652.5239
    4ORBIT:  cpu time    0.0000: real time    0.0000

 total amount of memory used by VASP MPI-rank0   441788. kBytes
=======================================================================

   base      :      30000. kBytes
   nonl-proj :     184518. kBytes
   fftplans  :      31725. kBytes
   grid      :     168095. kBytes
   one-center:        162. kBytes
   wavefun   :      27288. kBytes
 
  
  
 General timing and accounting informations for this job:
 ========================================================
  
                  Total CPU time used (sec):      683.467
                            User time (sec):      645.269
                          System time (sec):       38.198
                         Elapsed time (sec):      691.257
  
                   Maximum memory used (kb):     1110664.
                   Average memory used (kb):          N/A
  
                          Minor page faults:       510991
                          Major page faults:           79
                 Voluntary context switches:         3694
