 vasp.6.2.1 16May21 (build Nov 06 2021 14:46:37) complex                        
  
 executed on             LinuxIFC date 2025.03.03  18:52:16
 running on  112 total cores
 distrk:  each k-point on   56 cores,    2 groups
 distr:  one band on NCORE=   1 cores,   56 groups


--------------------------------------------------------------------------------------------------------


 INCAR:
   ALGO = Conjugate
   KPAR = 2
   NCORE = 32
   ISMEAR = 0
   SIGMA = 0.01
   PREC = Accurate
   EDIFF = 1E-7
   ENCUT = 1000
   ISIF = 0
   GGA = BO
   PARAM1 = 0.1833333333
   PARAM2 = 0.2200000000
   LUSE_VDW = .TRUE.
   AGGAC = 0.0000
   LASPH = .TRUE.
   SYMPREC = 1E-7

 POTCAR:    PAW_PBE C_h 06Feb2004                 
 POTCAR:    PAW_PBE O_h 06Feb2004                 
 -----------------------------------------------------------------------------
|                                                                             |
|           W    W    AA    RRRRR   N    N  II  N    N   GGGG   !!!           |
|           W    W   A  A   R    R  NN   N  II  NN   N  G    G  !!!           |
|           W    W  A    A  R    R  N N  N  II  N N  N  G       !!!           |
|           W WW W  AAAAAA  RRRRR   N  N N  II  N  N N  G  GGG   !            |
|           WW  WW  A    A  R   R   N   NN  II  N   NN  G    G                |
|           W    W  A    A  R    R  N    N  II  N    N   GGGG   !!!           |
|                                                                             |
|     The value NCORE = 32 specified in the INCAR file was overwritten,       |
|     because it was not compatible with the 56 processes available:          |
|     NCORE = 1                                                               |
|     was used instead, please check that this makes sense for your           |
|     machine.                                                                |
|                                                                             |
 -----------------------------------------------------------------------------

 -----------------------------------------------------------------------------
|                                                                             |
|           W    W    AA    RRRRR   N    N  II  N    N   GGGG   !!!           |
|           W    W   A  A   R    R  NN   N  II  NN   N  G    G  !!!           |
|           W    W  A    A  R    R  N N  N  II  N N  N  G       !!!           |
|           W WW W  AAAAAA  RRRRR   N  N N  II  N  N N  G  GGG   !            |
|           WW  WW  A    A  R   R   N   NN  II  N   NN  G    G                |
|           W    W  A    A  R    R  N    N  II  N    N   GGGG   !!!           |
|                                                                             |
|     For optimal performance we recommend to set                             |
|       NCORE = 2 up to number-of-cores-per-socket                            |
|     NCORE specifies how many cores store one orbital (NPAR=cpu/NCORE).      |
|     This setting can greatly improve the performance of VASP for DFT.       |
|     The default, NCORE=1 might be grossly inefficient on modern             |
|     multi-core architectures or massively parallel machines. Do your        |
|     own testing! More info at https://www.vasp.at/wiki/index.php/NCORE      |
|     Unfortunately you need to use the default for GW and RPA                |
|     calculations (for HF NCORE is supported but not extensively tested      |
|     yet).                                                                   |
|                                                                             |
 -----------------------------------------------------------------------------

 -----------------------------------------------------------------------------
|                                                                             |
|               ----> ADVICE to this user running VASP <----                  |
|                                                                             |
|     You have switched on vdW-DFT.                                           |
|     This routine was written and supplied by Jiri Klimes. We recommend      |
|     that you carefully read and cite the following publications:            |
|       J. Klimes, D.R. Bowler, A. Michelides                                 |
|          J. Phys.: Cond Matt. 22 022201 (2010)                              |
|       J. Klimes, D.R. Bowler, A. Michelides                                 |
|          Phys. Rev. B. 83, 195131 (2011)                                    |
|     and references therein.                                                 |
|                                                                             |
 -----------------------------------------------------------------------------

 POTCAR:    PAW_PBE C_h 06Feb2004                 
   VRHFIN =C: s2p2                                                                                  
   LEXCH  = PE                                                                                      
   EATOM  =   147.1560 eV,   10.8157 Ry                                                             
                                                                                                    
   TITEL  = PAW_PBE C_h 06Feb2004                                                                   
   LULTRA =        F    use ultrasoft PP ?                                                          
   IUNSCR =        1    unscreen: 0-lin 1-nonlin 2-no                                               
   RPACOR =    0.800    partial core radius                                                         
   POMASS =   12.011; ZVAL   =    4.000    mass and valenz                                          
   RCORE  =    1.100    outmost cutoff radius                                                       
   RWIGS  =    1.630; RWIGS  =    0.863    wigner-seitz radius (au A)                               
   ENMAX  =  700.000; ENMIN  =  500.000 eV                                                          
   ICORE  =        2    local potential                                                             
   LCOR   =        T    correct aug charges                                                         
   LPAW   =        T    paw PP                                                                      
   EAUG   =  946.768                                                                                
   DEXC   =    0.000                                                                                
   RMAX   =    1.128    core radius for proj-oper                                                   
   RAUG   =    1.300    factor for augmentation sphere                                              
   RDEP   =    1.162    radius for radial grids                                                     
   RDEPT  =    1.088    core radius for aug-charge                                                  
                                                                                                    
   Atomic configuration                                                                             
    4 entries                                                                                       
     n  l   j            E        occ.                                                              
     1  0  0.50      -273.3789   2.0000                                                             
     2  0  0.50       -13.7508   2.0000                                                             
     2  1  0.50        -5.2854   2.0000                                                             
     3  2  1.50        -5.4423   0.0000                                                             
   Description                                                                                      
     l       E           TYP  RCUT    TYP  RCUT                                                     
     0    -13.7508458     23  1.100                                                                 
     0     -8.2022199     23  1.100                                                                 
     1     -5.2854383     23  1.100                                                                 
     1      1.1560700     23  1.100                                                                 
     2     -5.4423304      7  1.100                                                                 
  local pseudopotential read in
  partial core-charges read in
  partial kinetic energy density read in
  atomic valenz-charges read in
  non local Contribution for L=           0  read in
    real space projection operators read in
  non local Contribution for L=           0  read in
    real space projection operators read in
  non local Contribution for L=           1  read in
    real space projection operators read in
  non local Contribution for L=           1  read in
    real space projection operators read in
    PAW grid and wavefunctions read in
 
   number of l-projection  operators is LMAX  =           4
   number of lm-projection operators is LMMAX =           8
 
 POTCAR:    PAW_PBE O_h 06Feb2004                 
   VRHFIN =O: s2p4                                                                                  
   LEXCH  = PE                                                                                      
   EATOM  =   432.3788 eV,   31.7789 Ry                                                             
                                                                                                    
   TITEL  = PAW_PBE O_h 06Feb2004                                                                   
   LULTRA =        F    use ultrasoft PP ?                                                          
   IUNSCR =        1    unscreen: 0-lin 1-nonlin 2-no                                               
   RPACOR =    0.800    partial core radius                                                         
   POMASS =   16.000; ZVAL   =    6.000    mass and valenz                                          
   RCORE  =    1.100    outmost cutoff radius                                                       
   RWIGS  =    1.400; RWIGS  =    0.741    wigner-seitz radius (au A)                               
   ENMAX  =  700.000; ENMIN  =  500.000 eV                                                          
   ICORE  =        2    local potential                                                             
   LCOR   =        T    correct aug charges                                                         
   LPAW   =        T    paw PP                                                                      
   EAUG   =  888.804                                                                                
   DEXC   =    0.000                                                                                
   RMAX   =    1.128    core radius for proj-oper                                                   
   RAUG   =    1.300    factor for augmentation sphere                                              
   RDEP   =    1.125    radius for radial grids                                                     
   RDEPT  =    1.088    core radius for aug-charge                                                  
                                                                                                    
   Atomic configuration                                                                             
    4 entries                                                                                       
     n  l   j            E        occ.                                                              
     1  0  0.50      -514.6923   2.0000                                                             
     2  0  0.50       -23.9615   2.0000                                                             
     2  1  0.50        -9.0305   4.0000                                                             
     3  2  1.50        -9.5241   0.0000                                                             
   Description                                                                                      
     l       E           TYP  RCUT    TYP  RCUT                                                     
     0    -23.9615319     23  1.100                                                                 
     0    -25.3221145     23  1.100                                                                 
     1     -9.0304911     23  1.100                                                                 
     1     -5.4802209     23  1.100                                                                 
     2     -9.5240782      7  1.100                                                                 
  local pseudopotential read in
  partial core-charges read in
  partial kinetic energy density read in
  atomic valenz-charges read in
  non local Contribution for L=           0  read in
    real space projection operators read in
  non local Contribution for L=           0  read in
    real space projection operators read in
  non local Contribution for L=           1  read in
    real space projection operators read in
  non local Contribution for L=           1  read in
    real space projection operators read in
    PAW grid and wavefunctions read in
 
   number of l-projection  operators is LMAX  =           4
   number of lm-projection operators is LMMAX =           8
 
 -----------------------------------------------------------------------------
|                                                                             |
|               ----> ADVICE to this user running VASP <----                  |
|                                                                             |
|     You have a (more or less) 'large supercell' and for larger cells it     |
|     might be more efficient to use real-space projection operators.         |
|     Therefore, try LREAL= Auto in the INCAR file.                           |
|     Mind: For very accurate calculation, you might also keep the            |
|     reciprocal projection scheme (i.e. LREAL=.FALSE.).                      |
|                                                                             |
 -----------------------------------------------------------------------------

 -----------------------------------------------------------------------------
|                                                                             |
|               ----> ADVICE to this user running VASP <----                  |
|                                                                             |
|     You enforced a specific xc type in the INCAR file but a different       |
|     type was found in the POTCAR file.                                      |
|     I HOPE YOU KNOW WHAT YOU ARE DOING!                                     |
|                                                                             |
 -----------------------------------------------------------------------------

  PAW_PBE C_h 06Feb2004                 :
 energy of atom  1       EATOM= -147.1560
 kinetic energy error for atom=    0.0031 (will be added to EATOM!!)
  PAW_PBE O_h 06Feb2004                 :
 energy of atom  2       EATOM= -432.3788
 kinetic energy error for atom=    0.0171 (will be added to EATOM!!)
 
 
 POSCAR:  C  O
  positions in cartesian coordinates
  No initial velocities read in
 exchange correlation table for  LEXCH =       42
   RHO(1)=    0.500       N(1)  =     2000
   RHO(2)=  100.500       N(2)  =     4000
 


--------------------------------------------------------------------------------------------------------


 ion  position               nearest neighbor table
   1  0.972  0.000  0.001-  50 1.42   2 1.42  42 1.42
   2  0.039  0.134  0.001-   5 1.42   7 1.42   1 1.42
   3  0.172  0.000  0.001-  42 1.42  44 1.42   4 1.42
   4  0.239  0.134  0.000-   7 1.42   3 1.42  23 1.42
   5  0.972  0.200  0.001-   6 1.42   2 1.42  34 1.42
   6  0.039  0.334  0.001-   5 1.42  21 1.42  11 1.42
   7  0.172  0.200  0.000-   8 1.42   2 1.42   4 1.42
   8  0.239  0.334  0.000-  13 1.42   7 1.42  21 1.42
   9  0.372  0.000  0.001-  10 1.42  44 1.42  46 1.42
  10  0.439  0.134  0.000-  27 1.42   9 1.42  23 1.42
  11  0.972  0.400  0.001-  12 1.42  36 1.42   6 1.42
  12  0.039  0.534  0.001-  25 1.42  11 1.42  17 1.42
  13  0.372  0.400  0.000-   8 1.42  14 1.42  24 1.42
  14  0.439  0.534  0.000-  13 1.42  29 1.42  19 1.42
  15  0.572  0.000  0.001-  46 1.42  16 1.42  48 1.42
  16  0.639  0.134  0.001-  15 1.42  35 1.42  27 1.42
  17  0.972  0.600  0.001-  38 1.42  18 1.42  12 1.42
  18  0.039  0.734  0.001-  43 1.42  41 1.42  17 1.42
  19  0.572  0.600  0.001-  14 1.42  20 1.42  32 1.42
  20  0.639  0.734  0.001-  49 1.42  19 1.42  47 1.42
  21  0.172  0.400  0.000-  22 1.42   8 1.42   6 1.42
  22  0.239  0.534  0.000-  21 1.42  29 1.42  25 1.42
  23  0.372  0.200  0.000-  10 1.42   4 1.42  24 1.42
  24  0.439  0.334  0.000-  13 1.42  31 1.42  23 1.42
  25  0.172  0.600  0.001-  26 1.42  12 1.42  22 1.42
  26  0.239  0.734  0.001-  25 1.42  45 1.42  43 1.42
  27  0.572  0.200  0.001-  10 1.42  28 1.42  16 1.42
  28  0.639  0.334  0.001-  27 1.42  37 1.42  31 1.42
  29  0.372  0.600  0.000-  22 1.42  14 1.42  30 1.42
  30  0.439  0.734  0.001-  47 1.42  29 1.42  45 1.42
  31  0.572  0.400  0.000-  32 1.42  28 1.42  24 1.42
  32  0.639  0.534  0.001-  31 1.42  39 1.42  19 1.42
  33  0.772  0.000  0.001-  34 1.42  48 1.42  50 1.42
  34  0.839  0.134  0.001-  33 1.42   5 1.42  35 1.42
  35  0.772  0.200  0.001-  36 1.42  16 1.42  34 1.42
  36  0.839  0.334  0.001-  35 1.42  11 1.42  37 1.42
  37  0.772  0.400  0.001-  28 1.42  38 1.42  36 1.42
  38  0.839  0.534  0.001-  17 1.42  37 1.42  39 1.42
  39  0.772  0.600  0.001-  40 1.42  38 1.42  32 1.42
  40  0.839  0.734  0.001-  39 1.42  49 1.42  41 1.42
  41  0.972  0.800  0.001-  18 1.42  42 1.42  40 1.42
  42  0.039  0.934  0.001-   3 1.42  41 1.42   1 1.42
  43  0.172  0.800  0.001-  18 1.42  44 1.42  26 1.42
  44  0.239  0.934  0.001-   9 1.42  43 1.42   3 1.42
  45  0.372  0.800  0.001-  26 1.42  46 1.42  30 1.42
  46  0.439  0.934  0.001-  15 1.42  45 1.42   9 1.42
  47  0.572  0.800  0.001-  30 1.42  48 1.42  20 1.42
  48  0.639  0.934  0.001-  47 1.42  33 1.42  15 1.42
  49  0.772  0.800  0.001-  50 1.42  20 1.42  40 1.42
  50  0.839  0.934  0.001-  49 1.42   1 1.42  33 1.42
  51  0.373  0.251  0.334-  52 1.18  53 1.18
  52  0.421  0.189  0.337-  51 1.18
  53  0.325  0.313  0.331-  51 1.18
 
  LATTYP: Found a hexagonal cell.
 ALAT       =    12.3250000000
 C/A-ratio  =     1.6227180527
  
  Lattice vectors:
  
 A1 = (  12.3250000000,   0.0000000000,   0.0000000000)
 A2 = (  -6.1625000000,  10.6737631016,   0.0000000000)
 A3 = (   0.0000000000,   0.0000000000,  20.0000000000)


Analysis of symmetry for initial positions (statically):
=====================================================================
 Subroutine PRICEL returns:
 Original cell was already a primitive cell.
 

 Routine SETGRP: Setting up the symmetry group for a 
 hexagonal supercell.


 Subroutine GETGRP returns: Found  1 space group operations
 (whereof  1 operations were pure point group operations)
 out of a pool of 24 trial point group operations.


The static configuration has the point symmetry C_1 .


Analysis of symmetry for dynamics (positions and initial velocities):
=====================================================================
 Subroutine PRICEL returns:
 Original cell was already a primitive cell.
 

 Routine SETGRP: Setting up the symmetry group for a 
 hexagonal supercell.


 Subroutine GETGRP returns: Found  1 space group operations
 (whereof  1 operations were pure point group operations)
 out of a pool of 24 trial point group operations.


The dynamic configuration has the point symmetry C_1 .


 Subroutine INISYM returns: Found  1 space group operations
 (whereof  1 operations are pure point group operations),
 and found     1 'primitive' translations


----------------------------------------------------------------------------------------

                                     Primitive cell                                     

  volume of cell :    2631.0826

  direct lattice vectors                    reciprocal lattice vectors
    12.325000000  0.000000000  0.000000000     0.081135903  0.046843835  0.000000000
    -6.162500000 10.673763102  0.000000000     0.000000000  0.093687670  0.000000000
     0.000000000  0.000000000 20.000000000     0.000000000  0.000000000  0.050000000

  length of vectors
    12.325000000 12.325000000 20.000000000     0.093687670  0.093687670  0.050000000

  position of ions in fractional coordinates (direct lattice)
     0.972450841  0.000320818  0.000708389
     0.039118382  0.133659505  0.000550216
     0.172443627  0.000295449  0.000624535
     0.239096278  0.133647917  0.000320585
     0.972452058  0.200322012  0.000606523
     0.039128360  0.333643771  0.000555187
     0.172451764  0.200354552  0.000273959
     0.239124359  0.333665720  0.000090325
     0.372465565  0.000324403  0.000567391
     0.439137473  0.133619939  0.000322923
     0.972449824  0.400309362  0.000684513
     0.039124981  0.533636789  0.000716763
     0.372416176  0.400329481  0.000000000
     0.439099602  0.533638981  0.000290518
     0.572443676  0.000312125  0.000699475
     0.639110207  0.133631751  0.000684093
     0.972452703  0.600305653  0.000800361
     0.039124495  0.733640359  0.000818141
     0.572433471  0.600306242  0.000503618
     0.639111888  0.733641879  0.000659881
     0.172454630  0.400318228  0.000361306
     0.239120185  0.533636548  0.000473136
     0.372459750  0.200295993  0.000111246
     0.439107096  0.333673419  0.000069702
     0.172452155  0.600311506  0.000655425
     0.239123371  0.733638574  0.000718912
     0.572431082  0.200289171  0.000516621
     0.639112773  0.333618630  0.000577970
     0.372439808  0.600308022  0.000453556
     0.439116090  0.733637858  0.000617737
     0.572469358  0.400320504  0.000424897
     0.639119408  0.533650873  0.000574513
     0.772445723  0.000315427  0.000745201
     0.839116277  0.133640203  0.000719132
     0.772440513  0.200307432  0.000726291
     0.839120241  0.333635728  0.000731834
     0.772446320  0.400298367  0.000728722
     0.839118980  0.533633964  0.000776376
     0.772456143  0.600308173  0.000744639
     0.839115033  0.733643180  0.000789390
     0.972455313  0.800305582  0.000815291
     0.039114714  0.933643289  0.000747563
     0.172457971  0.800312211  0.000779216
     0.239134551  0.933647193  0.000681063
     0.372451396  0.800316674  0.000689249
     0.439124489  0.933644769  0.000676788
     0.572441101  0.800310054  0.000668168
     0.639115067  0.933638985  0.000734556
     0.772445098  0.800313187  0.000752577
     0.839116614  0.933644338  0.000758538
     0.373021009  0.251226878  0.333709963
     0.420879805  0.189313152  0.336931056
     0.325156981  0.313167186  0.330737220

  ion indices of the primitive-cell ions
   primitive index   ion index
                 1           1
                 2           2
                 3           3
                 4           4
                 5           5
                 6           6
                 7           7
                 8           8
                 9           9
                10          10
                11          11
                12          12
                13          13
                14          14
                15          15
                16          16
                17          17
                18          18
                19          19
                20          20
                21          21
                22          22
                23          23
                24          24
                25          25
                26          26
                27          27
                28          28
                29          29
                30          30
                31          31
                32          32
                33          33
                34          34
                35          35
                36          36
                37          37
                38          38
                39          39
                40          40
                41          41
                42          42
                43          43
                44          44
                45          45
                46          46
                47          47
                48          48
                49          49
                50          50
                51          51
                52          52
                53          53

----------------------------------------------------------------------------------------

 
 
 KPOINTS: auto                                    

Automatic generation of k-mesh.
 Grid dimensions read from file:
 generate k-points for:    1    1    1

 Generating k-lattice:

  Cartesian coordinates                     Fractional coordinates (reciprocal lattice)
     0.081135903  0.046843835  0.000000000     1.000000000 -0.000000000  0.000000000
     0.000000000  0.093687670  0.000000000     0.000000000  1.000000000  0.000000000
     0.000000000  0.000000000  0.050000000     0.000000000  0.000000000  1.000000000

  Length of vectors
     0.093687670  0.093687670  0.050000000

  Shift w.r.t. Gamma in fractional coordinates (k-lattice)
     0.000000000  0.000000000  0.000000000

 
 Subroutine IBZKPT returns following result:
 ===========================================
 
 Found      1 irreducible k-points:
 
 Following reciprocal coordinates:
            Coordinates               Weight
  0.000000  0.000000  0.000000      1.000000
 
 Following cartesian coordinates:
            Coordinates               Weight
  0.000000  0.000000  0.000000      1.000000
 


--------------------------------------------------------------------------------------------------------




 Dimension of arrays:
   k-points           NKPTS =      1   k-points in BZ     NKDIM =      1   number of bands    NBANDS=    168
   number of dos      NEDOS =    301   number of ions     NIONS =     53
   non local maximal  LDIM  =      4   non local SUM 2l+1 LMDIM =      8
   total plane-waves  NPLWV = ******
   max r-space proj   IRMAX =      1   max aug-charges    IRDMAX=   9736
   dimension x,y,z NGX =   128 NGY =  128 NGZ =  210
   dimension x,y,z NGXF=   256 NGYF=  256 NGZF=  420
   support grid    NGXF=   256 NGYF=  256 NGZF=  420
   ions per type =              51   2
   NGX,Y,Z   is equivalent  to a cutoff of  17.27, 17.27, 17.46 a.u.
   NGXF,Y,Z  is equivalent  to a cutoff of  34.53, 34.53, 34.91 a.u.

 SYSTEM =  unknown system                          
 POSCAR =   C  O                                   

 Startparameter for this run:
   NWRITE =      2    write-flag & timer
   PREC   = accura    normal or accurate (medium, high low for compatibility)
   ISTART =      0    job   : 0-new  1-cont  2-samecut
   ICHARG =      2    charge: 1-file 2-atom 10-const
   ISPIN  =      1    spin polarized calculation?
   LNONCOLLINEAR =      F non collinear calculations
   LSORBIT =      F    spin-orbit coupling
   INIWAV =      1    electr: 0-lowe 1-rand  2-diag
   LASPH  =      T    aspherical Exc in radial PAW
 Electronic Relaxation 1
   ENCUT  = 1000.0 eV  73.50 Ry    8.57 a.u.  31.78 31.78 51.57*2*pi/ulx,y,z
   ENINI  = 1000.0     initial cutoff
   ENAUG  =  946.8 eV  augmentation charge cutoff
   NELM   =     60;   NELMIN=  2; NELMDL= -5     # of ELM steps 
   EDIFF  = 0.1E-06   stopping-criterion for ELM
   LREAL  =      F    real-space projection
   NLSPLINE    = F    spline interpolate recip. space projectors
   LCOMPAT=      F    compatible to vasp.4.4
   GGA_COMPAT  = T    GGA compatible to vasp.4.4-vasp.4.6
   LMAXPAW     = -100 max onsite density
   LMAXMIX     =    2 max onsite mixed and CHGCAR
   VOSKOWN=      0    Vosko Wilk Nusair interpolation
   ROPT   =    0.00000   0.00000
 Ionic relaxation
   EDIFFG = 0.1E-05   stopping-criterion for IOM
   NSW    =      0    number of steps for IOM
   NBLOCK =      1;   KBLOCK =      1    inner block; outer block 
   IBRION =     -1    ionic relax: 0-MD 1-quasi-New 2-CG
   NFREE  =      0    steps in history (QN), initial steepest desc. (CG)
   ISIF   =      0    stress and relaxation
   IWAVPR =     10    prediction:  0-non 1-charg 2-wave 3-comb
   ISYM   =      2    0-nonsym 1-usesym 2-fastsym
   LCORR  =      T    Harris-Foulkes like correction to forces

   POTIM  = 0.5000    time-step for ionic-motion
   TEIN   =    0.0    initial temperature
   TEBEG  =    0.0;   TEEND  =   0.0 temperature during run
   SMASS  =  -3.00    Nose mass-parameter (am)
   estimated Nose-frequenzy (Omega)   =  0.10E-29 period in steps = 0.13E+47 mass=  -0.347E-26a.u.
   SCALEE = 1.0000    scale energy and forces
   NPACO  =    256;   APACO  = 16.0  distance and # of slots for P.C.
   PSTRESS=    0.0 pullay stress

  Mass of Ions in am
   POMASS =  12.01 16.00
  Ionic Valenz
   ZVAL   =   4.00  6.00
  Atomic Wigner-Seitz radii
   RWIGS  =  -1.00 -1.00
  virtual crystal weights 
   VCA    =   1.00  1.00
   NELECT =     216.0000    total number of electrons
   NUPDOWN=      -1.0000    fix difference up-down

 DOS related values:
   EMIN   =  10.00;   EMAX   =-10.00  energy-range for DOS
   EFERMI =   0.00
   ISMEAR =     0;   SIGMA  =   0.01  broadening in eV -4-tet -1-fermi 0-gaus

 Electronic relaxation 2 (details)
   IALGO  =     58    algorithm
   LDIAG  =      T    sub-space diagonalisation (order eigenvalues)
   LSUBROT=      F    optimize rotation matrix (better conditioning)
   TURBO    =      0    0=normal 1=particle mesh
   IRESTART =      0    0=no restart 2=restart with 2 vectors
   NREBOOT  =      0    no. of reboots
   NMIN     =      0    reboot dimension
   EREF     =   0.00    reference energy to select bands
   IMIX   =      4    mixing-type and parameters
     AMIX     =   0.40;   BMIX     =  1.00
     AMIX_MAG =   1.60;   BMIX_MAG =  1.00
     AMIN     =   0.10
     WC   =   100.;   INIMIX=   1;  MIXPRE=   1;  MAXMIX= -45

 Intra band minimization:
   WEIMIN = 0.0000     energy-eigenvalue tresh-hold
   EBREAK =  0.15E-09  absolut break condition
   DEPER  =   0.30     relativ break condition  

   TIME   =   0.40     timestep for ELM

  volume/ion in A,a.u.               =      49.64       335.01
  Fermi-wavevector in a.u.,A,eV,Ry     =   0.711510  1.344560  6.887909  0.506247
  Thomas-Fermi vector in A             =   1.798641
 
 Write flags
   LWAVE        =      T    write WAVECAR
   LDOWNSAMPLE  =      F    k-point downsampling of WAVECAR
   LCHARG       =      T    write CHGCAR
   LVTOT        =      F    write LOCPOT, total local potential
   LVHAR        =      F    write LOCPOT, Hartree potential only
   LELF         =      F    write electronic localiz. function (ELF)
   LORBIT       =      0    0 simple, 1 ext, 2 COOP (PROOUT), +10 PAW based schemes


 Dipole corrections
   LMONO  =      F    monopole corrections only (constant potential shift)
   LDIPOL =      F    correct potential (dipole corrections)
   IDIPOL =      0    1-x, 2-y, 3-z, 4-all directions 
   EPSILON=  1.0000000 bulk dielectric constant

 Exchange correlation treatment:
   GGA     =    BO    GGA type
   LEXCH   =    42    internal setting for exchange type
   VOSKOWN=      0    Vosko Wilk Nusair interpolation
   LHFCALC =     F    Hartree Fock is set to
   LHFONE  =     F    Hartree Fock one center treatment
   AEXX    =    0.0000 exact exchange contribution

 vdW DFT:
   LUSE_VDW   =     T    switch on vdW DFT
   Zab_VDW    =-.8491    correlation parameter
   PARAM1     =0.1833
   PARAM2     =0.2200
   PARAM3     =0.0000
   -- rVV10 --
   BPARAM     = 6.3000
   CPARAM     = 0.0093

 Linear response parameters
   LEPSILON=     F    determine dielectric tensor
   LRPA    =     F    only Hartree local field effects (RPA)
   LNABLA  =     F    use nabla operator in PAW spheres
   LVEL    =     F    velocity operator in full k-point grid
   LINTERFAST=   F  fast interpolation
   KINTER  =     0    interpolate to denser k-point grid
   CSHIFT  =0.1000    complex shift for real part using Kramers Kronig
   OMEGAMAX=  -1.0    maximum frequency
   DEG_THRESHOLD= 0.2000000E-02 threshold for treating states as degnerate
   RTIME   =   -0.100 relaxation time in fs
  (WPLASMAI=    0.000 imaginary part of plasma frequency in eV, 0.658/RTIME)
   DFIELD  = 0.0000000 0.0000000 0.0000000 field for delta impulse in time
 
 Orbital magnetization related:
   ORBITALMAG=     F  switch on orbital magnetization
   LCHIMAG   =     F  perturbation theory with respect to B field
   DQ        =  0.001000  dq finite difference perturbation B field
   LLRAUG    =     F  two centre corrections for induced B field



--------------------------------------------------------------------------------------------------------


 Static calculation
 charge density and potential will be updated during run
 non-spin polarized calculation
 Conjugate gradient for all bands (Freysoldt, et al. PRB 79, 241103 (2009))
 preconditioned conjugated gradient                                        
 perform sub-space diagonalisation
    before iterative eigenvector-optimisation
 modified Broyden-mixing scheme, WC =      100.0
 initial mixing is a Kerker type mixing with AMIX =  0.4000 and BMIX =      1.0000
 Hartree-type preconditioning will be used
 using additional bands           60
 reciprocal scheme for non local part
 use partial core corrections
 no Harris-corrections to forces 
 use gradient corrections 
 use of overlap-Matrix (Vanderbilt PP)
 Gauss-broadening in eV      SIGMA  =   0.01


--------------------------------------------------------------------------------------------------------


  energy-cutoff  :     1000.00
  volume of cell :     2631.08
      direct lattice vectors                 reciprocal lattice vectors
    12.325000000  0.000000000  0.000000000     0.081135903  0.046843835  0.000000000
    -6.162500000 10.673763102  0.000000000     0.000000000  0.093687670  0.000000000
     0.000000000  0.000000000 20.000000000     0.000000000  0.000000000  0.050000000

  length of vectors
    12.325000000 12.325000000 20.000000000     0.093687670  0.093687670  0.050000000


 
 k-points in units of 2pi/SCALE and weight: auto                                    
   0.00000000  0.00000000  0.00000000       1.000
 
 k-points in reciprocal lattice and weights: auto                                    
   0.00000000  0.00000000  0.00000000       1.000
 
 position of ions in fractional coordinates (direct lattice) 
   0.97245084  0.00032082  0.00070839
   0.03911838  0.13365950  0.00055022
   0.17244363  0.00029545  0.00062454
   0.23909628  0.13364792  0.00032058
   0.97245206  0.20032201  0.00060652
   0.03912836  0.33364377  0.00055519
   0.17245176  0.20035455  0.00027396
   0.23912436  0.33366572  0.00009033
   0.37246557  0.00032440  0.00056739
   0.43913747  0.13361994  0.00032292
   0.97244982  0.40030936  0.00068451
   0.03912498  0.53363679  0.00071676
   0.37241618  0.40032948  0.00000000
   0.43909960  0.53363898  0.00029052
   0.57244368  0.00031213  0.00069947
   0.63911021  0.13363175  0.00068409
   0.97245270  0.60030565  0.00080036
   0.03912449  0.73364036  0.00081814
   0.57243347  0.60030624  0.00050362
   0.63911189  0.73364188  0.00065988
   0.17245463  0.40031823  0.00036131
   0.23912018  0.53363655  0.00047314
   0.37245975  0.20029599  0.00011125
   0.43910710  0.33367342  0.00006970
   0.17245216  0.60031151  0.00065542
   0.23912337  0.73363857  0.00071891
   0.57243108  0.20028917  0.00051662
   0.63911277  0.33361863  0.00057797
   0.37243981  0.60030802  0.00045356
   0.43911609  0.73363786  0.00061774
   0.57246936  0.40032050  0.00042490
   0.63911941  0.53365087  0.00057451
   0.77244572  0.00031543  0.00074520
   0.83911628  0.13364020  0.00071913
   0.77244051  0.20030743  0.00072629
   0.83912024  0.33363573  0.00073183
   0.77244632  0.40029837  0.00072872
   0.83911898  0.53363396  0.00077638
   0.77245614  0.60030817  0.00074464
   0.83911503  0.73364318  0.00078939
   0.97245531  0.80030558  0.00081529
   0.03911471  0.93364329  0.00074756
   0.17245797  0.80031221  0.00077922
   0.23913455  0.93364719  0.00068106
   0.37245140  0.80031667  0.00068925
   0.43912449  0.93364477  0.00067679
   0.57244110  0.80031005  0.00066817
   0.63911507  0.93363899  0.00073456
   0.77244510  0.80031319  0.00075258
   0.83911661  0.93364434  0.00075854
   0.37302101  0.25122688  0.33370996
   0.42087980  0.18931315  0.33693106
   0.32515698  0.31316719  0.33073722
 
 position of ions in cartesian coordinates  (Angst):
  11.98347958  0.00342433  0.01416777
  -0.34154264  1.42664989  0.01100432
   2.12354700  0.00315355  0.01249070
   2.12325634  1.42652621  0.00641170
  10.75098721  2.13818970  0.01213047
  -1.57382270  3.56123457  0.01110375
   0.89078307  2.13853702  0.00547917
   0.89099273  3.56146885  0.00180651
   4.58863896  0.00346260  0.01134782
   4.58893648  1.42622757  0.00645846
   9.51853763  4.27280730  0.01369027
  -2.80632132  5.69591267  0.01433526
   2.12299894  4.27302204  0.00000000
   2.12335237  5.69593607  0.00581036
   7.05344483  0.00333155  0.01398950
   7.05352764  1.42635365  0.01368187
   8.28609598  6.40752033  0.01600723
  -4.03884931  7.83070339  0.01636283
   3.35585531  6.40752662  0.01007237
   3.35598594  7.83071962  0.01319763
  -0.34145776  4.27290193  0.00722612
  -0.34137895  5.69591010  0.00946273
   3.35624236  2.13791198  0.00222492
   3.35573251  3.56155103  0.00139405
  -1.57394684  6.40758280  0.01310850
  -1.57385216  7.83068434  0.01437823
   5.82093107  2.13783916  0.01033241
   5.82114012  3.56096622  0.01155939
   0.89092245  6.40754561  0.00907111
   0.89106251  7.83067670  0.01235474
   4.58870974  4.27292622  0.00849795
   4.58852320  5.69606300  0.01149026
   9.51844972  0.00336679  0.01490402
   9.51855036  1.42644387  0.01438264
   8.28593477  2.13803408  0.01452582
   8.28612680  3.56114872  0.01463668
   7.05356221  4.27268994  0.01457444
   7.05362213  5.69588251  0.01552751
   5.82112285  6.40754723  0.01489279
   5.82101669  7.83073350  0.01578780
   7.05362858  8.54227219  0.01630582
  -5.27148792  9.96548729  0.01495127
  -2.80637951  8.54234295  0.01558431
  -2.80626749  9.96552896  0.01362126
  -0.34148805  8.54239058  0.01378498
  -0.34137657  9.96550309  0.01353576
   2.12342586  8.54231992  0.01336337
   2.12354296  9.96544135  0.01469111
   4.58845581  8.54235337  0.01505154
   4.58852904  9.96549848  0.01517076
   3.04929830  2.68153618  6.67419927
   4.02070129  2.02068374  6.73862113
   2.07766701  3.34267235  6.61474440
 


--------------------------------------------------------------------------------------------------------


 k-point   1 :   0.0000 0.0000 0.0000  plane waves:  189031

 maximum and minimum number of plane-waves per node :    189031   189031

 maximum number of plane-waves:    189031
 maximum index in each direction: 
   IXMAX=   31   IYMAX=   31   IZMAX=   51
   IXMIN=  -31   IYMIN=  -31   IZMIN=  -51


 serial   3D FFT for wavefunctions
 parallel 3D FFT for charge:
    minimum data exchange during FFTs selected (reduces bandwidth)


 total amount of memory used by VASP MPI-rank0   441788. kBytes
=======================================================================

   base      :      30000. kBytes
   nonl-proj :     184518. kBytes
   fftplans  :      31725. kBytes
   grid      :     168095. kBytes
   one-center:        162. kBytes
   wavefun   :      27288. kBytes
 
     INWAV:  cpu time    0.0000: real time    0.0000
 Broyden mixing: mesh for mixing (old mesh)
   NGX = 63   NGY = 63   NGZ =103
  (NGX  =256   NGY  =256   NGZ  =420)
  gives a total of 408807 points

 initial charge density was supplied:
 charge density of overlapping atoms calculated
 number of electron     216.0000000 magnetization 
 keeping initial charge density in first step


--------------------------------------------------------------------------------------------------------


 Maximum index for augmentation-charges          459 (set IRDMAX)


--------------------------------------------------------------------------------------------------------


 First call to EWALD:  gamma=   0.128
 Maximum number of real-space cells 3x 3x 2
 Maximum number of reciprocal cells 3x 3x 4

    FEWALD:  cpu time    0.0024: real time    0.0024


--------------------------------------- Iteration      1(   1)  ---------------------------------------


vdW kernel read from vdw_kernel.bindat
  0.0000  0.2424  0.5071  0.7962  1.1119  1.4567  1.8333  2.2446  2.6937  3.1842
  3.7199  4.3049  4.9438  5.6415  6.4036  7.2358  8.1446  9.1372 10.2212 11.4050
 12.6979 14.1099 15.6519 17.3360 19.1751 21.1837 23.3773 25.7729 28.3892 31.2465
 34.3669 37.7748 41.4965 45.5611 50.0000
 
    POTLOK:  cpu time    6.3597: real time    6.4501
    SETDIJ:  cpu time    0.0563: real time    0.0566
    TRIAL :  cpu time   12.0001: real time   12.0906
    CORREC:  cpu time    0.0006: real time    0.0008
    --------------------------------------------
      LOOP:  cpu time   18.4292: real time   18.6130

 eigenvalue-minimisations  :   336
 total energy-change (2. order) : 0.2520741E+04  (-0.1170789E+05)
 number of electron     216.0000000 magnetization 
 augmentation part      216.0000000 magnetization 

 Free energy of the ion-electron system (eV)
  ---------------------------------------------------
  alpha Z        PSCENC =        59.93625244
  Ewald energy   TEWEN  =     30433.92553120
  -Hartree energ DENC   =    -36609.37782081
  -exchange      EXHF   =         0.00000000
  -V(xc)+E(xc)   XCENC  =       398.24016385
  PAW double counting   =      6564.79108649    -6260.84737255
  entropy T*S    EENTRO =        -0.00000038
  eigenvalues    EBANDS =      -527.01124885
  atomic energy  EATOM  =      8461.08393172
  ---------------------------------------------------
  free energy    TOTEN  =      2520.74052311 eV

  energy without entropy =     2520.74052349  energy(sigma->0) =     2520.74052330


--------------------------------------------------------------------------------------------------------




--------------------------------------- Iteration      1(   2)  ---------------------------------------


    TRIAL :  cpu time   18.0379: real time   18.1825
    CORREC:  cpu time    0.0001: real time    0.0001
    --------------------------------------------
      LOOP:  cpu time   18.1060: real time   18.2511

 eigenvalue-minimisations  :   560
 total energy-change (2. order) :-0.2357013E+04  (-0.2214440E+04)
 number of electron     216.0000000 magnetization 
 augmentation part      216.0000000 magnetization 

 Free energy of the ion-electron system (eV)
  ---------------------------------------------------
  alpha Z        PSCENC =        59.93625244
  Ewald energy   TEWEN  =     30433.92553120
  -Hartree energ DENC   =    -36609.37782081
  -exchange      EXHF   =         0.00000000
  -V(xc)+E(xc)   XCENC  =       398.24016385
  PAW double counting   =      6564.79108649    -6260.84737255
  entropy T*S    EENTRO =        -0.00000000
  eigenvalues    EBANDS =     -2884.02443336
  atomic energy  EATOM  =      8461.08393172
  ---------------------------------------------------
  free energy    TOTEN  =       163.72733898 eV

  energy without entropy =      163.72733898  energy(sigma->0) =      163.72733898


--------------------------------------------------------------------------------------------------------




--------------------------------------- Iteration      1(   3)  ---------------------------------------


    TRIAL :  cpu time   13.4778: real time   13.5858
    CORREC:  cpu time    0.0001: real time    0.0001
    --------------------------------------------
      LOOP:  cpu time   13.5396: real time   13.6544

 eigenvalue-minimisations  :   392
 total energy-change (2. order) :-0.5795250E+03  (-0.5765769E+03)
 number of electron     216.0000000 magnetization 
 augmentation part      216.0000000 magnetization 

 Free energy of the ion-electron system (eV)
  ---------------------------------------------------
  alpha Z        PSCENC =        59.93625244
  Ewald energy   TEWEN  =     30433.92553120
  -Hartree energ DENC   =    -36609.37782081
  -exchange      EXHF   =         0.00000000
  -V(xc)+E(xc)   XCENC  =       398.24016385
  PAW double counting   =      6564.79108649    -6260.84737255
  entropy T*S    EENTRO =        -0.00000000
  eigenvalues    EBANDS =     -3463.54945862
  atomic energy  EATOM  =      8461.08393172
  ---------------------------------------------------
  free energy    TOTEN  =      -415.79768628 eV

  energy without entropy =     -415.79768628  energy(sigma->0) =     -415.79768628


--------------------------------------------------------------------------------------------------------




--------------------------------------- Iteration      1(   4)  ---------------------------------------


    TRIAL :  cpu time   15.0099: real time   15.1337
    CORREC:  cpu time    0.0001: real time    0.0001
    --------------------------------------------
      LOOP:  cpu time   15.0735: real time   15.2021

 eigenvalue-minimisations  :   448
 total energy-change (2. order) :-0.2928373E+02  (-0.2907557E+02)
 number of electron     216.0000000 magnetization 
 augmentation part      216.0000000 magnetization 

 Free energy of the ion-electron system (eV)
  ---------------------------------------------------
  alpha Z        PSCENC =        59.93625244
  Ewald energy   TEWEN  =     30433.92553120
  -Hartree energ DENC   =    -36609.37782081
  -exchange      EXHF   =         0.00000000
  -V(xc)+E(xc)   XCENC  =       398.24016385
  PAW double counting   =      6564.79108649    -6260.84737255
  entropy T*S    EENTRO =        -0.00000000
  eigenvalues    EBANDS =     -3492.83318905
  atomic energy  EATOM  =      8461.08393172
  ---------------------------------------------------
  free energy    TOTEN  =      -445.08141671 eV

  energy without entropy =     -445.08141671  energy(sigma->0) =     -445.08141671


--------------------------------------------------------------------------------------------------------




--------------------------------------- Iteration      1(   5)  ---------------------------------------


    TRIAL :  cpu time   15.0046: real time   15.1221
    CORREC:  cpu time    0.0001: real time    0.0001
    CHARGE:  cpu time    0.6137: real time    0.6182
    --------------------------------------------
      LOOP:  cpu time   15.6502: real time   15.7727

 eigenvalue-minimisations  :   448
 total energy-change (2. order) :-0.1091292E+01  (-0.1086305E+01)
 number of electron     216.0000000 magnetization 
 augmentation part       -0.2200211 magnetization 

 Free energy of the ion-electron system (eV)
  ---------------------------------------------------
  alpha Z        PSCENC =        59.93625244
  Ewald energy   TEWEN  =     30433.92553120
  -Hartree energ DENC   =    -36609.37782081
  -exchange      EXHF   =         0.00000000
  -V(xc)+E(xc)   XCENC  =       398.24016385
  PAW double counting   =      6564.79108649    -6260.84737255
  entropy T*S    EENTRO =        -0.00000000
  eigenvalues    EBANDS =     -3493.92448081
  atomic energy  EATOM  =      8461.08393172
  ---------------------------------------------------
  free energy    TOTEN  =      -446.17270847 eV

  energy without entropy =     -446.17270847  energy(sigma->0) =     -446.17270847


--------------------------------------------------------------------------------------------------------




--------------------------------------- Iteration      1(   6)  ---------------------------------------


    POTLOK:  cpu time    6.0513: real time    6.0951
    SETDIJ:  cpu time    0.0587: real time    0.0589
    TRIAL :  cpu time    5.3883: real time    5.4325
    CORREC:  cpu time    7.3175: real time    7.3720
    CHARGE:  cpu time    0.6038: real time    0.6081
    --------------------------------------------
      LOOP:  cpu time   19.4475: real time   19.5983

 eigenvalue-minimisations  :     0
 total energy-change (2. order) : 0.5520768E+02  (-0.1768033E+02)
 number of electron     216.0000000 magnetization 
 augmentation part       -0.3320385 magnetization 

 Free energy of the ion-electron system (eV)
  ---------------------------------------------------
  alpha Z        PSCENC =        59.93625244
  Ewald energy   TEWEN  =     30433.92553120
  -Hartree energ DENC   =    -38058.04841890
  -exchange      EXHF   =         0.00000000
  -V(xc)+E(xc)   XCENC  =       448.15164739
  PAW double counting   =     71521.10410202   -71225.32477837
  entropy T*S    EENTRO =        -0.00000000
  eigenvalues    EBANDS =     -2031.79329183
  atomic energy  EATOM  =      8461.08393172
  ---------------------------------------------------
  free energy    TOTEN  =      -390.96502433 eV

  energy without entropy =     -390.96502433  energy(sigma->0) =     -390.96502433


--------------------------------------------------------------------------------------------------------




--------------------------------------- Iteration      1(   7)  ---------------------------------------


    POTLOK:  cpu time    6.1003: real time    6.1498
    SETDIJ:  cpu time    0.0054: real time    0.0054
    TRIAL :  cpu time    5.3749: real time    5.4228
    CORREC:  cpu time    7.2660: real time    7.3248
    CHARGE:  cpu time    0.6070: real time    0.6117
    --------------------------------------------
      LOOP:  cpu time   19.3974: real time   19.5611

 eigenvalue-minimisations  :     0
 total energy-change (2. order) :-0.1772745E+02  (-0.2006527E+01)
 number of electron     216.0000000 magnetization 
 augmentation part       -0.3804298 magnetization 

 Free energy of the ion-electron system (eV)
  ---------------------------------------------------
  alpha Z        PSCENC =        59.93625244
  Ewald energy   TEWEN  =     30433.92553120
  -Hartree energ DENC   =    -37535.02141489
  -exchange      EXHF   =         0.00000000
  -V(xc)+E(xc)   XCENC  =       430.15976418
  PAW double counting   =     86528.36343237   -86229.34304609
  entropy T*S    EENTRO =        -0.00000000
  eigenvalues    EBANDS =     -2557.79692565
  atomic energy  EATOM  =      8461.08393172
  ---------------------------------------------------
  free energy    TOTEN  =      -408.69247471 eV

  energy without entropy =     -408.69247471  energy(sigma->0) =     -408.69247471


--------------------------------------------------------------------------------------------------------




--------------------------------------- Iteration      1(   8)  ---------------------------------------


    POTLOK:  cpu time    6.0428: real time    6.0876
    SETDIJ:  cpu time    0.0840: real time    0.0842
    TRIAL :  cpu time    5.3855: real time    5.4334
    CORREC:  cpu time    7.2677: real time    7.3223
    CHARGE:  cpu time    0.6048: real time    0.6089
    --------------------------------------------
      LOOP:  cpu time   19.4360: real time   19.6020

 eigenvalue-minimisations  :     0
 total energy-change (2. order) :-0.2005506E+01  (-0.5709802E+00)
 number of electron     216.0000000 magnetization 
 augmentation part       -0.3953658 magnetization 

 Free energy of the ion-electron system (eV)
  ---------------------------------------------------
  alpha Z        PSCENC =        59.93625244
  Ewald energy   TEWEN  =     30433.92553120
  -Hartree energ DENC   =    -37505.95808215
  -exchange      EXHF   =         0.00000000
  -V(xc)+E(xc)   XCENC  =       429.53639955
  PAW double counting   =     90853.66147727   -90554.20526147
  entropy T*S    EENTRO =        -0.00000000
  eigenvalues    EBANDS =     -2588.67822900
  atomic energy  EATOM  =      8461.08393172
  ---------------------------------------------------
  free energy    TOTEN  =      -410.69798043 eV

  energy without entropy =     -410.69798043  energy(sigma->0) =     -410.69798043


--------------------------------------------------------------------------------------------------------




--------------------------------------- Iteration      1(   9)  ---------------------------------------


    POTLOK:  cpu time    6.0679: real time    6.1125
    SETDIJ:  cpu time    0.0131: real time    0.0131
    TRIAL :  cpu time    5.3738: real time    5.4243
    CORREC:  cpu time    7.2988: real time    7.3547
    CHARGE:  cpu time    0.6036: real time    0.6078
    --------------------------------------------
      LOOP:  cpu time   19.4590: real time   19.6149

 eigenvalue-minimisations  :     0
 total energy-change (2. order) :-0.5709186E+00  (-0.2131129E+00)
 number of electron     216.0000000 magnetization 
 augmentation part       -0.4001332 magnetization 

 Free energy of the ion-electron system (eV)
  ---------------------------------------------------
  alpha Z        PSCENC =        59.93625244
  Ewald energy   TEWEN  =     30433.92553120
  -Hartree energ DENC   =    -37518.75663543
  -exchange      EXHF   =         0.00000000
  -V(xc)+E(xc)   XCENC  =       429.64706371
  PAW double counting   =     94022.11477147   -93722.46634460
  entropy T*S    EENTRO =        -0.00000000
  eigenvalues    EBANDS =     -2576.75346960
  atomic energy  EATOM  =      8461.08393172
  ---------------------------------------------------
  free energy    TOTEN  =      -411.26889908 eV

  energy without entropy =     -411.26889908  energy(sigma->0) =     -411.26889908


--------------------------------------------------------------------------------------------------------




--------------------------------------- Iteration      1(  10)  ---------------------------------------


    POTLOK:  cpu time    6.1010: real time    6.1463
    SETDIJ:  cpu time    0.0208: real time    0.0208
    TRIAL :  cpu time    5.3798: real time    5.4265
    CORREC:  cpu time    7.2456: real time    7.3070
    CHARGE:  cpu time    0.6061: real time    0.6101
    --------------------------------------------
      LOOP:  cpu time   19.3581: real time   19.5627

 eigenvalue-minimisations  :     0
 total energy-change (2. order) :-0.2125368E+00  (-0.9387054E-01)
 number of electron     216.0000000 magnetization 
 augmentation part       -0.3972544 magnetization 

 Free energy of the ion-electron system (eV)
  ---------------------------------------------------
  alpha Z        PSCENC =        59.93625244
  Ewald energy   TEWEN  =     30433.92553120
  -Hartree energ DENC   =    -37516.19286324
  -exchange      EXHF   =         0.00000000
  -V(xc)+E(xc)   XCENC  =       429.49427289
  PAW double counting   =     94838.72478874   -94538.96171041
  entropy T*S    EENTRO =        -0.00000000
  eigenvalues    EBANDS =     -2579.49163920
  atomic energy  EATOM  =      8461.08393172
  ---------------------------------------------------
  free energy    TOTEN  =      -411.48143585 eV

  energy without entropy =     -411.48143585  energy(sigma->0) =     -411.48143585


--------------------------------------------------------------------------------------------------------




--------------------------------------- Iteration      1(  11)  ---------------------------------------


    POTLOK:  cpu time    6.0789: real time    6.1226
    SETDIJ:  cpu time    0.0338: real time    0.0340
    TRIAL :  cpu time    5.3743: real time    5.4198
    CORREC:  cpu time    7.3579: real time    7.4140
    CHARGE:  cpu time    0.6053: real time    0.6094
    --------------------------------------------
      LOOP:  cpu time   19.5137: real time   19.6676

 eigenvalue-minimisations  :     0
 total energy-change (2. order) :-0.9342728E-01  (-0.3577528E-01)
 number of electron     216.0000000 magnetization 
 augmentation part       -0.3946621 magnetization 

 Free energy of the ion-electron system (eV)
  ---------------------------------------------------
  alpha Z        PSCENC =        59.93625244
  Ewald energy   TEWEN  =     30433.92553120
  -Hartree energ DENC   =    -37508.29449181
  -exchange      EXHF   =         0.00000000
  -V(xc)+E(xc)   XCENC  =       429.37174386
  PAW double counting   =     94450.39832531   -94150.63685518
  entropy T*S    EENTRO =        -0.00000000
  eigenvalues    EBANDS =     -2587.35930068
  atomic energy  EATOM  =      8461.08393172
  ---------------------------------------------------
  free energy    TOTEN  =      -411.57486313 eV

  energy without entropy =     -411.57486313  energy(sigma->0) =     -411.57486313


--------------------------------------------------------------------------------------------------------




--------------------------------------- Iteration      1(  12)  ---------------------------------------


    POTLOK:  cpu time    6.0578: real time    6.1011
    SETDIJ:  cpu time    0.0382: real time    0.0383
    TRIAL :  cpu time    5.3852: real time    5.4282
    CORREC:  cpu time    7.2926: real time    7.3471
    CHARGE:  cpu time    0.6049: real time    0.6090
    --------------------------------------------
      LOOP:  cpu time   19.4823: real time   19.6280

 eigenvalue-minimisations  :     0
 total energy-change (2. order) :-0.3575399E-01  (-0.1071063E-01)
 number of electron     216.0000000 magnetization 
 augmentation part       -0.3942289 magnetization 

 Free energy of the ion-electron system (eV)
  ---------------------------------------------------
  alpha Z        PSCENC =        59.93625244
  Ewald energy   TEWEN  =     30433.92553120
  -Hartree energ DENC   =    -37504.33725188
  -exchange      EXHF   =         0.00000000
  -V(xc)+E(xc)   XCENC  =       429.29626124
  PAW double counting   =     94007.19253651   -93707.46165053
  entropy T*S    EENTRO =        -0.00000000
  eigenvalues    EBANDS =     -2591.24622783
  atomic energy  EATOM  =      8461.08393172
  ---------------------------------------------------
  free energy    TOTEN  =      -411.61061712 eV

  energy without entropy =     -411.61061712  energy(sigma->0) =     -411.61061712


--------------------------------------------------------------------------------------------------------




--------------------------------------- Iteration      1(  13)  ---------------------------------------


    POTLOK:  cpu time    6.0980: real time    6.1429
    SETDIJ:  cpu time    0.0054: real time    0.0054
    TRIAL :  cpu time    5.3686: real time    5.4122
    CORREC:  cpu time    7.2836: real time    7.3379
    CHARGE:  cpu time    0.6083: real time    0.6124
    --------------------------------------------
      LOOP:  cpu time   19.4223: real time   19.5706

 eigenvalue-minimisations  :     0
 total energy-change (2. order) :-0.1073699E-01  (-0.2764945E-02)
 number of electron     216.0000000 magnetization 
 augmentation part       -0.3940054 magnetization 

 Free energy of the ion-electron system (eV)
  ---------------------------------------------------
  alpha Z        PSCENC =        59.93625244
  Ewald energy   TEWEN  =     30433.92553120
  -Hartree energ DENC   =    -37503.47978792
  -exchange      EXHF   =         0.00000000
  -V(xc)+E(xc)   XCENC  =       429.26213749
  PAW double counting   =     93784.27788829   -93484.56130291
  entropy T*S    EENTRO =        -0.00000000
  eigenvalues    EBANDS =     -2592.06600443
  atomic energy  EATOM  =      8461.08393172
  ---------------------------------------------------
  free energy    TOTEN  =      -411.62135411 eV

  energy without entropy =     -411.62135411  energy(sigma->0) =     -411.62135411


--------------------------------------------------------------------------------------------------------




--------------------------------------- Iteration      1(  14)  ---------------------------------------


    POTLOK:  cpu time    6.0963: real time    6.1403
    SETDIJ:  cpu time    0.0052: real time    0.0052
    TRIAL :  cpu time    5.3680: real time    5.4231
    CORREC:  cpu time    7.2586: real time    7.3131
    CHARGE:  cpu time    0.6080: real time    0.6120
    --------------------------------------------
      LOOP:  cpu time   19.3533: real time   19.5154

 eigenvalue-minimisations  :     0
 total energy-change (2. order) :-0.2779535E-02  (-0.7119320E-03)
 number of electron     216.0000000 magnetization 
 augmentation part       -0.3939661 magnetization 

 Free energy of the ion-electron system (eV)
  ---------------------------------------------------
  alpha Z        PSCENC =        59.93625244
  Ewald energy   TEWEN  =     30433.92553120
  -Hartree energ DENC   =    -37503.34452273
  -exchange      EXHF   =         0.00000000
  -V(xc)+E(xc)   XCENC  =       429.25476568
  PAW double counting   =     93740.49572218   -93440.78514723
  entropy T*S    EENTRO =        -0.00000000
  eigenvalues    EBANDS =     -2592.19066691
  atomic energy  EATOM  =      8461.08393172
  ---------------------------------------------------
  free energy    TOTEN  =      -411.62413365 eV

  energy without entropy =     -411.62413365  energy(sigma->0) =     -411.62413365


--------------------------------------------------------------------------------------------------------




--------------------------------------- Iteration      1(  15)  ---------------------------------------


    POTLOK:  cpu time    6.0602: real time    6.1055
    SETDIJ:  cpu time    0.0354: real time    0.0355
    TRIAL :  cpu time    5.3744: real time    5.4171
    CORREC:  cpu time    7.2624: real time    7.3161
    CHARGE:  cpu time    0.6052: real time    0.6101
    --------------------------------------------
      LOOP:  cpu time   19.3960: real time   19.5527

 eigenvalue-minimisations  :     0
 total energy-change (2. order) :-0.7180843E-03  (-0.2132528E-03)
 number of electron     216.0000000 magnetization 
 augmentation part       -0.3938979 magnetization 

 Free energy of the ion-electron system (eV)
  ---------------------------------------------------
  alpha Z        PSCENC =        59.93625244
  Ewald energy   TEWEN  =     30433.92553120
  -Hartree energ DENC   =    -37503.14997128
  -exchange      EXHF   =         0.00000000
  -V(xc)+E(xc)   XCENC  =       429.24504881
  PAW double counting   =     93738.64798624   -93438.93778824
  entropy T*S    EENTRO =        -0.00000000
  eigenvalues    EBANDS =     -2592.37584262
  atomic energy  EATOM  =      8461.08393172
  ---------------------------------------------------
  free energy    TOTEN  =      -411.62485173 eV

  energy without entropy =     -411.62485173  energy(sigma->0) =     -411.62485173


--------------------------------------------------------------------------------------------------------




--------------------------------------- Iteration      1(  16)  ---------------------------------------


    POTLOK:  cpu time    6.0678: real time    6.1120
    SETDIJ:  cpu time    0.0581: real time    0.0583
    TRIAL :  cpu time    5.3819: real time    5.4256
    CORREC:  cpu time    7.2530: real time    7.3070
    CHARGE:  cpu time    0.6036: real time    0.6084
    --------------------------------------------
      LOOP:  cpu time   19.4017: real time   19.5489

 eigenvalue-minimisations  :     0
 total energy-change (2. order) :-0.2171395E-03  (-0.7525957E-04)
 number of electron     216.0000000 magnetization 
 augmentation part       -0.3938185 magnetization 

 Free energy of the ion-electron system (eV)
  ---------------------------------------------------
  alpha Z        PSCENC =        59.93625244
  Ewald energy   TEWEN  =     30433.92553120
  -Hartree energ DENC   =    -37503.23772245
  -exchange      EXHF   =         0.00000000
  -V(xc)+E(xc)   XCENC  =       429.24668282
  PAW double counting   =     93720.49701586   -93420.78721075
  entropy T*S    EENTRO =        -0.00000000
  eigenvalues    EBANDS =     -2592.28954972
  atomic energy  EATOM  =      8461.08393172
  ---------------------------------------------------
  free energy    TOTEN  =      -411.62506887 eV

  energy without entropy =     -411.62506887  energy(sigma->0) =     -411.62506887


--------------------------------------------------------------------------------------------------------




--------------------------------------- Iteration      1(  17)  ---------------------------------------


    POTLOK:  cpu time    6.0767: real time    6.1269
    SETDIJ:  cpu time    0.0140: real time    0.0141
    TRIAL :  cpu time    5.3717: real time    5.4210
    CORREC:  cpu time    7.2779: real time    7.3327
    CHARGE:  cpu time    0.6071: real time    0.6113
    --------------------------------------------
      LOOP:  cpu time   19.4070: real time   19.6006

 eigenvalue-minimisations  :     0
 total energy-change (2. order) :-0.7778556E-04  (-0.2852056E-04)
 number of electron     216.0000000 magnetization 
 augmentation part       -0.3938342 magnetization 

 Free energy of the ion-electron system (eV)
  ---------------------------------------------------
  alpha Z        PSCENC =        59.93625244
  Ewald energy   TEWEN  =     30433.92553120
  -Hartree energ DENC   =    -37503.38600691
  -exchange      EXHF   =         0.00000000
  -V(xc)+E(xc)   XCENC  =       429.25175877
  PAW double counting   =     93703.26583130   -93403.55643877
  entropy T*S    EENTRO =        -0.00000000
  eigenvalues    EBANDS =     -2592.14600641
  atomic energy  EATOM  =      8461.08393172
  ---------------------------------------------------
  free energy    TOTEN  =      -411.62514666 eV

  energy without entropy =     -411.62514666  energy(sigma->0) =     -411.62514666


--------------------------------------------------------------------------------------------------------




--------------------------------------- Iteration      1(  18)  ---------------------------------------


    POTLOK:  cpu time    6.0448: real time    6.0909
    SETDIJ:  cpu time    0.0629: real time    0.0632
    TRIAL :  cpu time    5.3792: real time    5.4231
    CORREC:  cpu time    7.2864: real time    7.3440
    CHARGE:  cpu time    0.6066: real time    0.6108
    --------------------------------------------
      LOOP:  cpu time   19.4694: real time   19.6219

 eigenvalue-minimisations  :     0
 total energy-change (2. order) :-0.3020008E-04  (-0.1115053E-04)
 number of electron     216.0000000 magnetization 
 augmentation part       -0.3938530 magnetization 

 Free energy of the ion-electron system (eV)
  ---------------------------------------------------
  alpha Z        PSCENC =        59.93625244
  Ewald energy   TEWEN  =     30433.92553120
  -Hartree energ DENC   =    -37503.39811989
  -exchange      EXHF   =         0.00000000
  -V(xc)+E(xc)   XCENC  =       429.25158753
  PAW double counting   =     93700.34477869   -93400.63475833
  entropy T*S    EENTRO =        -0.00000000
  eigenvalues    EBANDS =     -2592.13438023
  atomic energy  EATOM  =      8461.08393172
  ---------------------------------------------------
  free energy    TOTEN  =      -411.62517686 eV

  energy without entropy =     -411.62517686  energy(sigma->0) =     -411.62517686


--------------------------------------------------------------------------------------------------------




--------------------------------------- Iteration      1(  19)  ---------------------------------------


    POTLOK:  cpu time    6.0831: real time    6.1267
    SETDIJ:  cpu time    0.0347: real time    0.0348
    TRIAL :  cpu time    5.3718: real time    5.4143
    CORREC:  cpu time    7.2437: real time    7.2965
    CHARGE:  cpu time    0.6073: real time    0.6113
    --------------------------------------------
      LOOP:  cpu time   19.4148: real time   19.5631

 eigenvalue-minimisations  :     0
 total energy-change (2. order) :-0.1181362E-04  (-0.4864485E-05)
 number of electron     216.0000000 magnetization 
 augmentation part       -0.3938814 magnetization 

 Free energy of the ion-electron system (eV)
  ---------------------------------------------------
  alpha Z        PSCENC =        59.93625244
  Ewald energy   TEWEN  =     30433.92553120
  -Hartree energ DENC   =    -37503.43143048
  -exchange      EXHF   =         0.00000000
  -V(xc)+E(xc)   XCENC  =       429.25289919
  PAW double counting   =     93705.53877386   -93405.82854663
  entropy T*S    EENTRO =        -0.00000000
  eigenvalues    EBANDS =     -2592.10259997
  atomic energy  EATOM  =      8461.08393172
  ---------------------------------------------------
  free energy    TOTEN  =      -411.62518867 eV

  energy without entropy =     -411.62518867  energy(sigma->0) =     -411.62518867


--------------------------------------------------------------------------------------------------------




--------------------------------------- Iteration      1(  20)  ---------------------------------------


    POTLOK:  cpu time    6.0674: real time    6.1110
    SETDIJ:  cpu time    0.0114: real time    0.0114
    TRIAL :  cpu time    5.3797: real time    5.4219
    CORREC:  cpu time    7.2562: real time    7.3100
    CHARGE:  cpu time    0.6055: real time    0.6097
    --------------------------------------------
      LOOP:  cpu time   19.4160: real time   19.5620

 eigenvalue-minimisations  :     0
 total energy-change (2. order) :-0.5124646E-05  (-0.1737851E-05)
 number of electron     216.0000000 magnetization 
 augmentation part       -0.3938909 magnetization 

 Free energy of the ion-electron system (eV)
  ---------------------------------------------------
  alpha Z        PSCENC =        59.93625244
  Ewald energy   TEWEN  =     30433.92553120
  -Hartree energ DENC   =    -37503.45199591
  -exchange      EXHF   =         0.00000000
  -V(xc)+E(xc)   XCENC  =       429.25341874
  PAW double counting   =     93711.82907731   -93412.11866332
  entropy T*S    EENTRO =        -0.00000000
  eigenvalues    EBANDS =     -2592.08274600
  atomic energy  EATOM  =      8461.08393172
  ---------------------------------------------------
  free energy    TOTEN  =      -411.62519380 eV

  energy without entropy =     -411.62519380  energy(sigma->0) =     -411.62519380


--------------------------------------------------------------------------------------------------------




--------------------------------------- Iteration      1(  21)  ---------------------------------------


    POTLOK:  cpu time    6.0501: real time    6.0918
    SETDIJ:  cpu time    0.0392: real time    0.0393
    TRIAL :  cpu time    5.3780: real time    5.4219
    CORREC:  cpu time    7.2439: real time    7.2998
    CHARGE:  cpu time    0.6208: real time    0.6249
    --------------------------------------------
      LOOP:  cpu time   19.4050: real time   19.5781

 eigenvalue-minimisations  :     0
 total energy-change (2. order) :-0.1786873E-05  (-0.8693591E-06)
 number of electron     216.0000000 magnetization 
 augmentation part       -0.3938828 magnetization 

 Free energy of the ion-electron system (eV)
  ---------------------------------------------------
  alpha Z        PSCENC =        59.93625244
  Ewald energy   TEWEN  =     30433.92553120
  -Hartree energ DENC   =    -37503.45180860
  -exchange      EXHF   =         0.00000000
  -V(xc)+E(xc)   XCENC  =       429.25325488
  PAW double counting   =     93714.42377343   -93414.71330524
  entropy T*S    EENTRO =        -0.00000000
  eigenvalues    EBANDS =     -2592.08282542
  atomic energy  EATOM  =      8461.08393172
  ---------------------------------------------------
  free energy    TOTEN  =      -411.62519558 eV

  energy without entropy =     -411.62519558  energy(sigma->0) =     -411.62519558


--------------------------------------------------------------------------------------------------------




--------------------------------------- Iteration      1(  22)  ---------------------------------------


    POTLOK:  cpu time    6.0764: real time    6.1233
    SETDIJ:  cpu time    0.0714: real time    0.0717
    TRIAL :  cpu time    5.3692: real time    5.4196
    CORREC:  cpu time    7.2530: real time    7.3125
    CHARGE:  cpu time    0.6047: real time    0.6089
    --------------------------------------------
      LOOP:  cpu time   19.4308: real time   19.5928

 eigenvalue-minimisations  :     0
 total energy-change (2. order) :-0.7755152E-06  (-0.3573703E-06)
 number of electron     216.0000000 magnetization 
 augmentation part       -0.3938827 magnetization 

 Free energy of the ion-electron system (eV)
  ---------------------------------------------------
  alpha Z        PSCENC =        59.93625244
  Ewald energy   TEWEN  =     30433.92553120
  -Hartree energ DENC   =    -37503.45269489
  -exchange      EXHF   =         0.00000000
  -V(xc)+E(xc)   XCENC  =       429.25323948
  PAW double counting   =     93714.19096768   -93414.48059625
  entropy T*S    EENTRO =        -0.00000000
  eigenvalues    EBANDS =     -2592.08182774
  atomic energy  EATOM  =      8461.08393172
  ---------------------------------------------------
  free energy    TOTEN  =      -411.62519636 eV

  energy without entropy =     -411.62519636  energy(sigma->0) =     -411.62519636


--------------------------------------------------------------------------------------------------------




--------------------------------------- Iteration      1(  23)  ---------------------------------------


    POTLOK:  cpu time    6.0840: real time    6.1295
    SETDIJ:  cpu time    0.0093: real time    0.0094
    TRIAL :  cpu time    5.3779: real time    5.4205
    CORREC:  cpu time    7.2428: real time    7.3041
    CHARGE:  cpu time    0.6054: real time    0.6096
    --------------------------------------------
      LOOP:  cpu time   19.3579: real time   19.5132

 eigenvalue-minimisations  :     0
 total energy-change (2. order) :-0.2761808E-06  (-0.4988457E-06)
 number of electron     216.0000000 magnetization 
 augmentation part       -0.3938832 magnetization 

 Free energy of the ion-electron system (eV)
  ---------------------------------------------------
  alpha Z        PSCENC =        59.93625244
  Ewald energy   TEWEN  =     30433.92553120
  -Hartree energ DENC   =    -37503.44665998
  -exchange      EXHF   =         0.00000000
  -V(xc)+E(xc)   XCENC  =       429.25295777
  PAW double counting   =     93713.14853769   -93413.43817961
  entropy T*S    EENTRO =        -0.00000000
  eigenvalues    EBANDS =     -2592.08756786
  atomic energy  EATOM  =      8461.08393172
  ---------------------------------------------------
  free energy    TOTEN  =      -411.62519663 eV

  energy without entropy =     -411.62519663  energy(sigma->0) =     -411.62519663


--------------------------------------------------------------------------------------------------------




--------------------------------------- Iteration      1(  24)  ---------------------------------------


    POTLOK:  cpu time    6.0543: real time    6.0980
    SETDIJ:  cpu time    0.0566: real time    0.0568
    TRIAL :  cpu time    5.3726: real time    5.4155
    CORREC:  cpu time    7.2568: real time    7.3145
    CHARGE:  cpu time    0.6053: real time    0.6101
    --------------------------------------------
      LOOP:  cpu time   19.4082: real time   19.5619

 eigenvalue-minimisations  :     0
 total energy-change (2. order) : 0.9200157E-06  (-0.9431541E-06)
 number of electron     216.0000000 magnetization 
 augmentation part       -0.3938923 magnetization 

 Free energy of the ion-electron system (eV)
  ---------------------------------------------------
  alpha Z        PSCENC =        59.93625244
  Ewald energy   TEWEN  =     30433.92553120
  -Hartree energ DENC   =    -37503.44224941
  -exchange      EXHF   =         0.00000000
  -V(xc)+E(xc)   XCENC  =       429.25324885
  PAW double counting   =     93711.18840882   -93411.47816234
  entropy T*S    EENTRO =        -0.00000000
  eigenvalues    EBANDS =     -2592.09215700
  atomic energy  EATOM  =      8461.08393172
  ---------------------------------------------------
  free energy    TOTEN  =      -411.62519571 eV

  energy without entropy =     -411.62519571  energy(sigma->0) =     -411.62519571


--------------------------------------------------------------------------------------------------------




--------------------------------------- Iteration      1(  25)  ---------------------------------------


    POTLOK:  cpu time    6.0801: real time    6.1304
    SETDIJ:  cpu time    0.0386: real time    0.0388
    TRIAL :  cpu time    5.3718: real time    5.4204
    CORREC:  cpu time    7.2599: real time    7.3206
    CHARGE:  cpu time    0.6045: real time    0.6097
    --------------------------------------------
      LOOP:  cpu time   19.3727: real time   19.5379

 eigenvalue-minimisations  :     0
 total energy-change (2. order) :-0.8832867E-06  (-0.2062943E-06)
 number of electron     216.0000000 magnetization 
 augmentation part       -0.3938899 magnetization 

 Free energy of the ion-electron system (eV)
  ---------------------------------------------------
  alpha Z        PSCENC =        59.93625244
  Ewald energy   TEWEN  =     30433.92553120
  -Hartree energ DENC   =    -37503.43418368
  -exchange      EXHF   =         0.00000000
  -V(xc)+E(xc)   XCENC  =       429.25267530
  PAW double counting   =     93711.44093792   -93411.73055754
  entropy T*S    EENTRO =        -0.00000000
  eigenvalues    EBANDS =     -2592.09978396
  atomic energy  EATOM  =      8461.08393172
  ---------------------------------------------------
  free energy    TOTEN  =      -411.62519660 eV

  energy without entropy =     -411.62519660  energy(sigma->0) =     -411.62519660


--------------------------------------------------------------------------------------------------------




--------------------------------------- Iteration      1(  26)  ---------------------------------------


    POTLOK:  cpu time    6.0547: real time    6.0997
    SETDIJ:  cpu time    0.0731: real time    0.0733
    TRIAL :  cpu time    5.3810: real time    5.4240
    CORREC:  cpu time    7.2380: real time    7.3028
    CHARGE:  cpu time    0.6082: real time    0.6126
    --------------------------------------------
      LOOP:  cpu time   19.3592: real time   19.5453

 eigenvalue-minimisations  :     0
 total energy-change (2. order) :-0.1928129E-06  (-0.1195473E-06)
 number of electron     216.0000000 magnetization 
 augmentation part       -0.3938892 magnetization 

 Free energy of the ion-electron system (eV)
  ---------------------------------------------------
  alpha Z        PSCENC =        59.93625244
  Ewald energy   TEWEN  =     30433.92553120
  -Hartree energ DENC   =    -37503.43977307
  -exchange      EXHF   =         0.00000000
  -V(xc)+E(xc)   XCENC  =       429.25289885
  PAW double counting   =     93711.80619743   -93412.09584296
  entropy T*S    EENTRO =        -0.00000000
  eigenvalues    EBANDS =     -2592.09439240
  atomic energy  EATOM  =      8461.08393172
  ---------------------------------------------------
  free energy    TOTEN  =      -411.62519679 eV

  energy without entropy =     -411.62519679  energy(sigma->0) =     -411.62519679


--------------------------------------------------------------------------------------------------------




--------------------------------------- Iteration      1(  27)  ---------------------------------------


    POTLOK:  cpu time    6.1050: real time    6.1472
    SETDIJ:  cpu time    0.0053: real time    0.0053
    TRIAL :  cpu time    5.3813: real time    5.4230
    CORREC:  cpu time    7.2656: real time    7.3195
    EDDIAG:  cpu time    0.8501: real time    0.8571
    CHARGE:  cpu time    0.6059: real time    0.6099
    --------------------------------------------
      LOOP:  cpu time   20.2384: real time   20.4219

 eigenvalue-minimisations  :     0
 total energy-change (2. order) :-0.9393261E-07  (-0.4678525E-07)
 number of electron     216.0000000 magnetization 
[...]
      9     -21.1891      2.00000
     10     -19.3589      2.00000
     11     -19.3589      2.00000
     12     -19.3586      2.00000
     13     -19.3580      2.00000
     14     -19.3576      2.00000
     15     -19.3574      2.00000
     16     -18.4681      2.00000
     17     -18.4679      2.00000
     18     -18.4676      2.00000
     19     -18.4672      2.00000
     20     -18.4666      2.00000
     21     -18.4664      2.00000
     22     -16.3252      2.00000
     23     -16.3249      2.00000
     24     -16.3240      2.00000
     25     -16.3238      2.00000
     26     -16.3234      2.00000
     27     -16.3234      2.00000
     28     -15.3315      2.00000
     29     -15.3315      2.00000
     30     -15.3306      2.00000
     31     -15.3305      2.00000
     32     -15.3300      2.00000
     33     -15.3299      2.00000
     34     -13.9932      2.00000
     35     -13.9931      2.00000
     36     -13.9924      2.00000
     37     -13.9923      2.00000
     38     -13.9922      2.00000
     39     -13.9920      2.00000
     40     -12.2682      2.00000
     41     -11.6401      2.00000
     42     -11.6398      2.00000
     43     -11.6394      2.00000
     44     -11.6393      2.00000
     45     -11.6382      2.00000
     46     -11.6380      2.00000
     47     -11.5289      2.00000
     48     -11.5289      2.00000
     49     -11.5282      2.00000
     50     -11.5282      2.00000
     51     -11.5279      2.00000
     52     -11.5277      2.00000
     53     -11.1260      2.00000
     54     -11.0332      2.00000
     55     -11.0330      2.00000
     56     -10.2874      2.00000
     57     -10.1651      2.00000
     58     -10.1649      2.00000
     59     -10.1634      2.00000
     60     -10.1630      2.00000
     61     -10.1629      2.00000
     62     -10.1628      2.00000
     63      -9.1728      2.00000
     64      -9.1726      2.00000
     65      -9.1724      2.00000
     66      -9.1714      2.00000
     67      -9.1708      2.00000
     68      -9.1708      2.00000
     69      -8.9243      2.00000
     70      -8.9238      2.00000
     71      -8.9233      2.00000
     72      -8.9231      2.00000
     73      -8.9227      2.00000
     74      -8.9226      2.00000
     75      -8.8650      2.00000
     76      -8.8648      2.00000
     77      -8.8642      2.00000
     78      -8.8641      2.00000
     79      -8.8639      2.00000
     80      -8.8630      2.00000
     81      -7.5092      2.00000
     82      -7.5090      2.00000
     83      -7.2881      2.00000
     84      -7.2865      2.00000
     85      -7.2863      2.00000
     86      -7.2859      2.00000
     87      -7.2848      2.00000
     88      -7.2848      2.00000
     89      -7.0466      2.00000
     90      -7.0462      2.00000
     91      -7.0460      2.00000
     92      -7.0457      2.00000
     93      -7.0456      2.00000
     94      -7.0453      2.00000
     95      -6.1521      2.00000
     96      -6.1517      2.00000
     97      -6.1514      2.00000
     98      -6.1511      2.00000
     99      -6.1508      2.00000
    100      -6.1506      2.00000
    101      -5.8261      2.00000
    102      -5.8239      2.00000
    103      -4.1740      2.00000
    104      -4.1737      2.00000
    105      -4.1732      2.00000
    106      -4.1731      2.00000
    107      -4.1723      2.00000
    108      -4.1721      2.00000
    109      -1.3782      0.00000
    110      -1.3780      0.00000
    111      -1.3775      0.00000
    112      -1.3772      0.00000
    113      -1.3767      0.00000
    114      -1.3765      0.00000
    115      -0.2805      0.00000
    116       0.2512      0.00000
    117       0.4790      0.00000
    118       0.4794      0.00000
    119       0.4799      0.00000
    120       0.4801      0.00000
    121       0.4802      0.00000
    122       0.4819      0.00000
    123       0.5293      0.00000
    124       0.7632      0.00000
    125       0.8966      0.00000
    126       0.9360      0.00000
    127       0.9383      0.00000
    128       1.0443      0.00000
    129       1.2452      0.00000
    130       1.3269      0.00000
    131       1.4036      0.00000
    132       1.4952      0.00000
    133       1.5502      0.00000
    134       1.6253      0.00000
    135       1.6277      0.00000
    136       1.6475      0.00000
    137       1.7260      0.00000
    138       1.8139      0.00000
    139       1.8508      0.00000
    140       2.1714      0.00000
    141       2.1839      0.00000
    142       2.2052      0.00000
    143       2.2098      0.00000
    144       2.2100      0.00000
    145       2.2104      0.00000
    146       2.2108      0.00000
    147       2.2109      0.00000
    148       2.2114      0.00000
    149       2.2247      0.00000
    150       2.2564      0.00000
    151       2.2754      0.00000
    152       2.7510      0.00000
    153       2.9513      0.00000
    154       3.0493      0.00000
    155       3.1398      0.00000
    156       3.3599      0.00000
    157       3.4967      0.00000
    158       3.5555      0.00000
    159       3.6575      0.00000
    160       3.7390      0.00000
    161       4.0184      0.00000
    162       4.2395      0.00000
    163       4.7798      0.00000
    164       4.8579      0.00000
    165       4.8996      0.00000
    166       4.9050      0.00000
    167       4.9087      0.00000
    168       4.9125      0.00000


--------------------------------------------------------------------------------------------------------


 soft charge-density along one line, spin component           1
         0         1         2         3         4         5         6         7         8         9
 total charge-density along one line
 
 pseudopotential strength for first ion, spin component:           1
 12.674  21.329   0.000   0.000   0.000   0.000   0.000   0.000
 21.329  35.891   0.000   0.000   0.000   0.000   0.000   0.000
  0.000   0.000  -3.238  -0.000   0.000  -5.804  -0.000   0.000
  0.000   0.000  -0.000  -3.246  -0.000  -0.000  -5.818  -0.000
  0.000   0.000   0.000  -0.000  -3.238   0.000  -0.000  -5.804
  0.000   0.000  -5.804  -0.000   0.000 -10.380  -0.000   0.000
  0.000   0.000  -0.000  -5.818  -0.000  -0.000 -10.405  -0.000
  0.000   0.000   0.000  -0.000  -5.804   0.000  -0.000 -10.380
 total augmentation occupancy for first ion, spin component:           1
  6.917  -2.317  -0.000  -0.002  -0.000   0.000   0.001   0.000
 -2.317   0.818   0.000   0.001   0.000  -0.000  -0.000  -0.000
 -0.000   0.000   6.628  -0.007   0.000  -2.167   0.003  -0.000
 -0.002   0.001  -0.007   2.819  -0.000   0.003  -0.689   0.000
 -0.000   0.000   0.000  -0.000   6.627  -0.000   0.000  -2.167
  0.000  -0.000  -2.167   0.003  -0.000   0.725  -0.001   0.000
  0.001  -0.000   0.003  -0.689   0.000  -0.001   0.176  -0.000
  0.000  -0.000  -0.000   0.000  -2.167   0.000  -0.000   0.724


------------------------ aborting loop because EDIFF is reached ----------------------------------------


    FORLOC:  cpu time    0.1041: real time    0.1049
    FORNL :  cpu time    2.9196: real time    2.9443
    FORCOR:  cpu time    6.0802: real time    6.1480
    OFIELD:  cpu time    0.0023: real time    0.0025

 VOLUME and BASIS-vectors are now :
 -----------------------------------------------------------------------------
  energy-cutoff  :     1000.00
  volume of cell :     2631.08
      direct lattice vectors                 reciprocal lattice vectors
    12.325000000  0.000000000  0.000000000     0.081135903  0.046843835  0.000000000
    -6.162500000 10.673763102  0.000000000     0.000000000  0.093687670  0.000000000
     0.000000000  0.000000000 20.000000000     0.000000000  0.000000000  0.050000000

  length of vectors
    12.325000000 12.325000000 20.000000000     0.093687670  0.093687670  0.050000000


 FORCES acting on ions:
    Electron-Ion                     Ewald-Force                    Non-Local-Force
 -----------------------------------------------------------------------------------------------
   0.177E+01 0.154E+01 0.135E+02   -.178E+01 -.154E+01 -.135E+02   0.560E-02 -.761E-03 0.668E-02
   0.248E+01 0.124E+01 0.152E+02   -.249E+01 -.124E+01 -.152E+02   0.475E-02 -.344E-02 -.541E-02
   0.102E+01 0.277E+01 0.159E+02   -.102E+01 -.277E+01 -.159E+02   -.346E-03 0.130E-01 0.837E-03
   0.129E+01 0.187E+01 0.194E+02   -.129E+01 -.187E+01 -.194E+02   0.128E-01 0.124E-02 -.121E-01
   0.190E+01 0.465E+00 0.139E+02   -.190E+01 -.464E+00 -.139E+02   0.531E-03 -.603E-02 0.290E-02
   0.194E+01 -.411E+00 0.140E+02   -.195E+01 0.413E+00 -.140E+02   -.610E-02 0.292E-02 -.375E-02
   0.250E+01 0.941E+00 0.189E+02   -.250E+01 -.941E+00 -.189E+02   0.137E-01 -.198E-01 -.495E-02
   0.245E+01 -.858E+00 0.200E+02   -.246E+01 0.863E+00 -.200E+02   -.485E-02 -.659E-02 -.549E-02
   -.124E+01 0.255E+01 0.162E+02   0.124E+01 -.255E+01 -.162E+02   -.159E-02 -.112E-01 -.483E-02
   -.174E+01 0.147E+01 0.194E+02   0.174E+01 -.148E+01 -.194E+02   -.275E-01 0.161E-01 0.381E-02
   0.502E+00 -.519E+00 0.126E+02   -.498E+00 0.519E+00 -.126E+02   0.327E-02 -.269E-02 -.631E-03
   0.458E+00 -.387E+00 0.122E+02   -.458E+00 0.387E+00 -.122E+02   -.746E-02 0.358E-02 0.553E-02
   0.903E+00 -.201E+01 0.213E+02   -.906E+00 0.202E+01 -.212E+02   0.283E-01 -.909E-02 -.103E-02
   0.545E+00 -.283E+01 0.173E+02   -.550E+00 0.283E+01 -.173E+02   0.508E-02 0.521E-02 -.162E-01
   -.175E+01 0.106E+01 0.134E+02   0.175E+01 -.106E+01 -.134E+02   0.705E-02 -.356E-02 0.656E-02
   -.230E+01 0.677E+00 0.140E+02   0.230E+01 -.678E+00 -.140E+02   -.275E-02 0.592E-02 -.563E-02
   -.323E+00 -.127E+00 0.117E+02   0.328E+00 0.125E+00 -.117E+02   -.119E-02 0.716E-03 0.188E-02
   0.142E+00 0.110E+01 0.120E+02   -.141E+00 -.110E+01 -.120E+02   -.354E-02 0.206E-02 0.940E-02
   -.448E+00 -.272E+01 0.152E+02   0.446E+00 0.273E+01 -.152E+02   0.693E-02 -.259E-02 0.844E-03
   -.255E+00 -.163E+01 0.129E+02   0.251E+00 0.163E+01 -.129E+02   0.831E-03 -.175E-02 -.794E-03
   0.250E+01 -.110E+01 0.161E+02   -.250E+01 0.110E+01 -.161E+02   -.511E-03 -.308E-02 -.177E-01
   0.174E+01 -.142E+01 0.146E+02   -.175E+01 0.142E+01 -.146E+02   -.639E-02 0.507E-02 -.323E-02
   -.453E+00 0.828E+00 0.219E+02   0.450E+00 -.827E+00 -.219E+02   -.109E-01 0.110E-01 0.431E-02
   -.611E+00 -.130E+01 0.217E+02   0.613E+00 0.130E+01 -.217E+02   0.126E-01 -.157E-01 -.756E-02
   0.949E+00 -.356E+00 0.127E+02   -.947E+00 0.355E+00 -.127E+02   0.318E-02 -.243E-02 -.404E-02
   0.243E+00 0.823E+00 0.126E+02   -.242E+00 -.823E+00 -.126E+02   -.584E-02 0.386E-02 0.506E-02
   -.281E+01 0.364E+00 0.169E+02   0.281E+01 -.367E+00 -.169E+02   0.980E-02 0.862E-02 -.192E-02
   -.268E+01 -.107E+01 0.161E+02   0.268E+01 0.107E+01 -.162E+02   -.102E-01 0.948E-02 0.192E-02
   0.100E+01 -.202E+01 0.149E+02   -.100E+01 0.202E+01 -.149E+02   0.541E-02 0.164E-02 -.763E-02
   0.852E-01 -.884E+00 0.131E+02   -.879E-01 0.886E+00 -.131E+02   -.434E-02 0.223E-02 -.303E-02
   -.192E+01 -.197E+01 0.178E+02   0.192E+01 0.198E+01 -.178E+02   -.128E-01 -.850E-02 -.107E-01
   -.138E+01 -.258E+01 0.153E+02   0.138E+01 0.258E+01 -.153E+02   0.701E-03 -.238E-02 0.330E-02
   0.121E+00 0.519E+00 0.121E+02   -.122E+00 -.519E+00 -.121E+02   0.569E-02 -.489E-02 0.681E-02
   0.319E+00 0.490E+00 0.125E+02   -.322E+00 -.489E+00 -.125E+02   -.198E-02 0.439E-02 -.165E-02
   -.121E+01 0.212E+00 0.129E+02   0.121E+01 -.213E+00 -.129E+02   0.377E-02 -.220E-02 0.545E-02
   -.107E+01 -.475E+00 0.128E+02   0.107E+01 0.474E+00 -.128E+02   -.485E-02 0.269E-02 0.343E-02
   -.204E+01 -.108E+01 0.135E+02   0.205E+01 0.108E+01 -.135E+02   -.235E-02 0.111E-02 0.359E-02
   -.134E+01 -.107E+01 0.126E+02   0.134E+01 0.107E+01 -.126E+02   -.474E-02 0.129E-02 0.933E-02
   -.122E+01 -.155E+01 0.130E+02   0.122E+01 0.155E+01 -.130E+02   -.357E-02 -.113E-03 0.533E-02
   -.184E+00 -.417E+00 0.121E+02   0.185E+00 0.417E+00 -.122E+02   0.208E-02 0.318E-03 0.768E-02
   0.458E+00 0.115E+01 0.122E+02   -.459E+00 -.115E+01 -.123E+02   -.413E-02 0.224E-02 0.729E-02
   0.139E+01 0.214E+01 0.137E+02   -.139E+01 -.215E+01 -.137E+02   0.123E-03 -.314E-03 0.856E-02
   0.140E+00 0.191E+01 0.127E+02   -.136E+00 -.191E+01 -.127E+02   -.107E-02 0.171E-02 0.214E-02
   -.295E-01 0.283E+01 0.150E+02   0.318E-01 -.284E+01 -.150E+02   -.904E-02 0.297E-02 0.588E-02
   -.363E+00 0.684E+00 0.129E+02   0.365E+00 -.686E+00 -.129E+02   0.375E-02 -.271E-02 0.699E-03
   -.136E+01 0.168E+01 0.139E+02   0.136E+01 -.168E+01 -.139E+02   -.697E-02 0.933E-03 -.213E-02
   -.346E+00 -.831E+00 0.126E+02   0.345E+00 0.831E+00 -.126E+02   0.691E-02 -.161E-02 0.549E-02
   -.749E+00 0.271E+00 0.121E+02   0.747E+00 -.270E+00 -.121E+02   -.320E-02 0.316E-02 -.365E-02
   0.805E-01 -.516E+00 0.121E+02   -.815E-01 0.516E+00 -.121E+02   0.471E-02 -.337E-02 0.588E-02
   0.819E+00 0.583E+00 0.121E+02   -.822E+00 -.581E+00 -.121E+02   0.683E-03 0.144E-02 0.327E-02
   0.531E-02 0.188E-01 -.182E+03   -.883E-02 -.155E-01 0.183E+03   -.291E-02 0.197E-02 -.191E-02
   -.229E+03 0.156E+03 -.285E+03   0.279E+03 -.190E+03 0.289E+03   -.513E+02 0.349E+02 -.345E+01
   0.229E+03 -.156E+03 -.266E+03   -.279E+03 0.190E+03 0.263E+03   0.513E+02 -.349E+02 0.309E+01
 -----------------------------------------------------------------------------------------------
   -.678E-02 0.135E-01 0.350E+00   0.000E+00 0.568E-13 0.114E-12   0.676E-02 -.135E-01 -.348E+00
 
 
 POSITION                                       TOTAL-FORCE (eV/Angst)
 -----------------------------------------------------------------------------------
     11.98348      0.00342      0.01417         0.003065     -0.001633     -0.000959
     -0.34154      1.42665      0.01100        -0.001082      0.000052     -0.003317
      2.12355      0.00315      0.01249        -0.001785      0.010437     -0.006232
      2.12326      1.42653      0.00641         0.013230      0.001131     -0.007805
     10.75099      2.13819      0.01213         0.000325     -0.005506      0.000047
     -1.57382      3.56123      0.01110        -0.008843      0.004733     -0.001371
      0.89078      2.13854      0.00548         0.009263     -0.018854      0.002699
      0.89099      3.56147      0.00181        -0.012127     -0.002191      0.012191
      4.58864      0.00346      0.01135         0.003848     -0.015974     -0.003437
      4.58894      1.42623      0.00646        -0.023020      0.012952      0.014082
      9.51854      4.27281      0.01369         0.006600     -0.003063      0.000116
     -2.80632      5.69591      0.01434        -0.006392      0.003309      0.000701
      2.12300      4.27302      0.00000         0.024596     -0.004753      0.020832
      2.12335      5.69594      0.00581        -0.000881      0.009369     -0.002470
      7.05344      0.00333      0.01399         0.009202     -0.005205     -0.000320
      7.05353      1.42635      0.01368        -0.001476      0.004717     -0.003598
      8.28610      6.40752      0.01601         0.003073     -0.001516     -0.000694
     -4.03885      7.83070      0.01636        -0.002152      0.000835      0.000017
      3.35586      6.40753      0.01007         0.005358      0.000676     -0.001200
      3.35599      7.83072      0.01320        -0.003314      0.000178     -0.000675
     -0.34146      4.27290      0.00723        -0.002047     -0.001238     -0.004393
     -0.34138      5.69591      0.00946        -0.009018      0.006450     -0.001031
      3.35624      2.13791      0.00222        -0.013553      0.011812      0.016580
      3.35573      3.56155      0.00139         0.013575     -0.015701      0.009093
     -1.57395      6.40758      0.01311         0.005437     -0.003976     -0.000636
     -1.57385      7.83068      0.01438        -0.004697      0.003690      0.000028
      5.82093      2.13784      0.01033         0.016285      0.004972     -0.002801
      5.82114      3.56097      0.01156        -0.006048      0.008452     -0.003603
      0.89092      6.40755      0.00907         0.004355      0.002274     -0.002237
      0.89106      7.83068      0.01235        -0.006833      0.003820      0.000369
      4.58871      4.27293      0.00850        -0.012712     -0.006195     -0.010507
      4.58852      5.69606      0.01149         0.002001     -0.001006     -0.003748
      9.51845      0.00337      0.01490         0.004619     -0.004589      0.000203
      9.51855      1.42644      0.01438        -0.005156      0.005440     -0.000357
      8.28593      2.13803      0.01453         0.006644     -0.003369      0.000546
      8.28613      3.56115      0.01464        -0.004232      0.002127     -0.000047
      7.05356      4.27269      0.01457         0.002927     -0.001122     -0.000457
      7.05362      5.69588      0.01553        -0.002399      0.001505     -0.000027
      5.82112      6.40755      0.01489        -0.002853      0.001649     -0.000010
      5.82102      7.83073      0.01579         0.002698      0.000295     -0.000175
      7.05363      8.54227      0.01631        -0.004615      0.001142      0.001179
     -5.27149      9.96549      0.01495         0.000077     -0.002135     -0.001963
     -2.80638      8.54234      0.01558         0.003313     -0.001585     -0.001040
     -2.80627      9.96553      0.01362        -0.006591     -0.000228     -0.003806
     -0.34149      8.54239      0.01378         0.005759     -0.004865      0.000141
     -0.34138      9.96550      0.01354        -0.005605     -0.000154     -0.001127
      2.12343      8.54232      0.01336         0.005743     -0.001498      0.000704
      2.12354      9.96544      0.01469        -0.005205      0.003824     -0.001849
      4.58846      8.54235      0.01505         0.003596     -0.002775      0.001053
      4.58853      9.96550      0.01517        -0.002945      0.003338      0.000235
      3.04930      2.68154      6.67420        -0.006398      0.005226      0.029801
      4.02070      2.02068      6.73862        -0.659298      0.448180     -0.061337
      2.07767      3.34267      6.61474         0.665687     -0.453454      0.022612
 -----------------------------------------------------------------------------------
    total drift:                               -0.000019     -0.000039      0.001714


--------------------------------------------------------------------------------------------------------



  FREE ENERGIE OF THE ION-ELECTRON SYSTEM (eV)
  ---------------------------------------------------
  free  energy   TOTEN  =      -411.62519688 eV

  energy  without entropy=     -411.62519688  energy(sigma->0) =     -411.62519688
 


--------------------------------------------------------------------------------------------------------


    POTLOK:  cpu time    6.0949: real time    6.1672


--------------------------------------------------------------------------------------------------------


 writing wavefunctions
     LOOP+:  cpu time  547.7450: real time  553.0363
    4ORBIT:  cpu time    0.0000: real time    0.0000

 total amount of memory used by VASP MPI-rank0   441788. kBytes
=======================================================================

   base      :      30000. kBytes
   nonl-proj :     184518. kBytes
   fftplans  :      31725. kBytes
   grid      :     168095. kBytes
   one-center:        162. kBytes
   wavefun   :      27288. kBytes
 
  
  
 General timing and accounting informations for this job:
 ========================================================
  
                  Total CPU time used (sec):      583.589
                            User time (sec):      552.594
                          System time (sec):       30.994
                         Elapsed time (sec):      590.514
  
                   Maximum memory used (kb):     1108140.
                   Average memory used (kb):          N/A
  
                          Minor page faults:       499255
                          Major page faults:           75
                 Voluntary context switches:         3536
