 vasp.6.2.1 16May21 (build Nov 06 2021 14:46:37) complex                        
  
 executed on             LinuxIFC date 2025.04.16  20:28:21
 running on  112 total cores
 distrk:  each k-point on   56 cores,    2 groups
 distr:  one band on NCORE=   1 cores,   56 groups


--------------------------------------------------------------------------------------------------------


 INCAR:
   ALGO = Conjugate
   KPAR = 2
   NCORE = 32
   ISMEAR = 0
   SIGMA = 0.01
   PREC = Accurate
   EDIFF = 1E-7
   ENCUT = 1000
   ISIF = 0
   GGA = BO
   PARAM1 = 0.1833333333
   PARAM2 = 0.2200000000
   LUSE_VDW = .TRUE.
   AGGAC = 0.0000
   LASPH = .TRUE.
   SYMPREC = 1E-7

 POTCAR:    PAW_PBE C_h 06Feb2004                 
 POTCAR:    PAW_PBE O_h 06Feb2004                 
 -----------------------------------------------------------------------------
|                                                                             |
|           W    W    AA    RRRRR   N    N  II  N    N   GGGG   !!!           |
|           W    W   A  A   R    R  NN   N  II  NN   N  G    G  !!!           |
|           W    W  A    A  R    R  N N  N  II  N N  N  G       !!!           |
|           W WW W  AAAAAA  RRRRR   N  N N  II  N  N N  G  GGG   !            |
|           WW  WW  A    A  R   R   N   NN  II  N   NN  G    G                |
|           W    W  A    A  R    R  N    N  II  N    N   GGGG   !!!           |
|                                                                             |
|     The value NCORE = 32 specified in the INCAR file was overwritten,       |
|     because it was not compatible with the 56 processes available:          |
|     NCORE = 1                                                               |
|     was used instead, please check that this makes sense for your           |
|     machine.                                                                |
|                                                                             |
 -----------------------------------------------------------------------------

 -----------------------------------------------------------------------------
|                                                                             |
|           W    W    AA    RRRRR   N    N  II  N    N   GGGG   !!!           |
|           W    W   A  A   R    R  NN   N  II  NN   N  G    G  !!!           |
|           W    W  A    A  R    R  N N  N  II  N N  N  G       !!!           |
|           W WW W  AAAAAA  RRRRR   N  N N  II  N  N N  G  GGG   !            |
|           WW  WW  A    A  R   R   N   NN  II  N   NN  G    G                |
|           W    W  A    A  R    R  N    N  II  N    N   GGGG   !!!           |
|                                                                             |
|     For optimal performance we recommend to set                             |
|       NCORE = 2 up to number-of-cores-per-socket                            |
|     NCORE specifies how many cores store one orbital (NPAR=cpu/NCORE).      |
|     This setting can greatly improve the performance of VASP for DFT.       |
|     The default, NCORE=1 might be grossly inefficient on modern             |
|     multi-core architectures or massively parallel machines. Do your        |
|     own testing! More info at https://www.vasp.at/wiki/index.php/NCORE      |
|     Unfortunately you need to use the default for GW and RPA                |
|     calculations (for HF NCORE is supported but not extensively tested      |
|     yet).                                                                   |
|                                                                             |
 -----------------------------------------------------------------------------

 -----------------------------------------------------------------------------
|                                                                             |
|               ----> ADVICE to this user running VASP <----                  |
|                                                                             |
|     You have switched on vdW-DFT.                                           |
|     This routine was written and supplied by Jiri Klimes. We recommend      |
|     that you carefully read and cite the following publications:            |
|       J. Klimes, D.R. Bowler, A. Michelides                                 |
|          J. Phys.: Cond Matt. 22 022201 (2010)                              |
|       J. Klimes, D.R. Bowler, A. Michelides                                 |
|          Phys. Rev. B. 83, 195131 (2011)                                    |
|     and references therein.                                                 |
|                                                                             |
 -----------------------------------------------------------------------------

 POTCAR:    PAW_PBE C_h 06Feb2004                 
   VRHFIN =C: s2p2                                                                                  
   LEXCH  = PE                                                                                      
   EATOM  =   147.1560 eV,   10.8157 Ry                                                             
                                                                                                    
   TITEL  = PAW_PBE C_h 06Feb2004                                                                   
   LULTRA =        F    use ultrasoft PP ?                                                          
   IUNSCR =        1    unscreen: 0-lin 1-nonlin 2-no                                               
   RPACOR =    0.800    partial core radius                                                         
   POMASS =   12.011; ZVAL   =    4.000    mass and valenz                                          
   RCORE  =    1.100    outmost cutoff radius                                                       
   RWIGS  =    1.630; RWIGS  =    0.863    wigner-seitz radius (au A)                               
   ENMAX  =  700.000; ENMIN  =  500.000 eV                                                          
   ICORE  =        2    local potential                                                             
   LCOR   =        T    correct aug charges                                                         
   LPAW   =        T    paw PP                                                                      
   EAUG   =  946.768                                                                                
   DEXC   =    0.000                                                                                
   RMAX   =    1.128    core radius for proj-oper                                                   
   RAUG   =    1.300    factor for augmentation sphere                                              
   RDEP   =    1.162    radius for radial grids                                                     
   RDEPT  =    1.088    core radius for aug-charge                                                  
                                                                                                    
   Atomic configuration                                                                             
    4 entries                                                                                       
     n  l   j            E        occ.                                                              
     1  0  0.50      -273.3789   2.0000                                                             
     2  0  0.50       -13.7508   2.0000                                                             
     2  1  0.50        -5.2854   2.0000                                                             
     3  2  1.50        -5.4423   0.0000                                                             
   Description                                                                                      
     l       E           TYP  RCUT    TYP  RCUT                                                     
     0    -13.7508458     23  1.100                                                                 
     0     -8.2022199     23  1.100                                                                 
     1     -5.2854383     23  1.100                                                                 
     1      1.1560700     23  1.100                                                                 
     2     -5.4423304      7  1.100                                                                 
  local pseudopotential read in
  partial core-charges read in
  partial kinetic energy density read in
  atomic valenz-charges read in
  non local Contribution for L=           0  read in
    real space projection operators read in
  non local Contribution for L=           0  read in
    real space projection operators read in
  non local Contribution for L=           1  read in
    real space projection operators read in
  non local Contribution for L=           1  read in
    real space projection operators read in
    PAW grid and wavefunctions read in
 
   number of l-projection  operators is LMAX  =           4
   number of lm-projection operators is LMMAX =           8
 
 POTCAR:    PAW_PBE O_h 06Feb2004                 
   VRHFIN =O: s2p4                                                                                  
   LEXCH  = PE                                                                                      
   EATOM  =   432.3788 eV,   31.7789 Ry                                                             
                                                                                                    
   TITEL  = PAW_PBE O_h 06Feb2004                                                                   
   LULTRA =        F    use ultrasoft PP ?                                                          
   IUNSCR =        1    unscreen: 0-lin 1-nonlin 2-no                                               
   RPACOR =    0.800    partial core radius                                                         
   POMASS =   16.000; ZVAL   =    6.000    mass and valenz                                          
   RCORE  =    1.100    outmost cutoff radius                                                       
   RWIGS  =    1.400; RWIGS  =    0.741    wigner-seitz radius (au A)                               
   ENMAX  =  700.000; ENMIN  =  500.000 eV                                                          
   ICORE  =        2    local potential                                                             
   LCOR   =        T    correct aug charges                                                         
   LPAW   =        T    paw PP                                                                      
   EAUG   =  888.804                                                                                
   DEXC   =    0.000                                                                                
   RMAX   =    1.128    core radius for proj-oper                                                   
   RAUG   =    1.300    factor for augmentation sphere                                              
   RDEP   =    1.125    radius for radial grids                                                     
   RDEPT  =    1.088    core radius for aug-charge                                                  
                                                                                                    
   Atomic configuration                                                                             
    4 entries                                                                                       
     n  l   j            E        occ.                                                              
     1  0  0.50      -514.6923   2.0000                                                             
     2  0  0.50       -23.9615   2.0000                                                             
     2  1  0.50        -9.0305   4.0000                                                             
     3  2  1.50        -9.5241   0.0000                                                             
   Description                                                                                      
     l       E           TYP  RCUT    TYP  RCUT                                                     
     0    -23.9615319     23  1.100                                                                 
     0    -25.3221145     23  1.100                                                                 
     1     -9.0304911     23  1.100                                                                 
     1     -5.4802209     23  1.100                                                                 
     2     -9.5240782      7  1.100                                                                 
  local pseudopotential read in
  partial core-charges read in
  partial kinetic energy density read in
  atomic valenz-charges read in
  non local Contribution for L=           0  read in
    real space projection operators read in
  non local Contribution for L=           0  read in
    real space projection operators read in
  non local Contribution for L=           1  read in
    real space projection operators read in
  non local Contribution for L=           1  read in
    real space projection operators read in
    PAW grid and wavefunctions read in
 
   number of l-projection  operators is LMAX  =           4
   number of lm-projection operators is LMMAX =           8
 
 -----------------------------------------------------------------------------
|                                                                             |
|               ----> ADVICE to this user running VASP <----                  |
|                                                                             |
|     You have a (more or less) 'large supercell' and for larger cells it     |
|     might be more efficient to use real-space projection operators.         |
|     Therefore, try LREAL= Auto in the INCAR file.                           |
|     Mind: For very accurate calculation, you might also keep the            |
|     reciprocal projection scheme (i.e. LREAL=.FALSE.).                      |
|                                                                             |
 -----------------------------------------------------------------------------

 -----------------------------------------------------------------------------
|                                                                             |
|               ----> ADVICE to this user running VASP <----                  |
|                                                                             |
|     You enforced a specific xc type in the INCAR file but a different       |
|     type was found in the POTCAR file.                                      |
|     I HOPE YOU KNOW WHAT YOU ARE DOING!                                     |
|                                                                             |
 -----------------------------------------------------------------------------

  PAW_PBE C_h 06Feb2004                 :
 energy of atom  1       EATOM= -147.1560
 kinetic energy error for atom=    0.0031 (will be added to EATOM!!)
  PAW_PBE O_h 06Feb2004                 :
 energy of atom  2       EATOM= -432.3788
 kinetic energy error for atom=    0.0171 (will be added to EATOM!!)
 
 
 POSCAR:  C  O
  positions in cartesian coordinates
  No initial velocities read in
 exchange correlation table for  LEXCH =       42
   RHO(1)=    0.500       N(1)  =     2000
   RHO(2)=  100.500       N(2)  =     4000
 


--------------------------------------------------------------------------------------------------------


 ion  position               nearest neighbor table
   1  0.972  0.000  0.001-  50 1.42   2 1.42  42 1.42
   2  0.039  0.134  0.000-   5 1.42   7 1.42   1 1.42
   3  0.172  0.000  0.000-  42 1.42  44 1.42   4 1.42
   4  0.239  0.134  0.000-   7 1.42   3 1.42  23 1.42
   5  0.972  0.200  0.000-   6 1.42   2 1.42  34 1.42
   6  0.039  0.334  0.000-   5 1.42  21 1.42  11 1.42
   7  0.172  0.200  0.000-   8 1.42   2 1.42   4 1.42
   8  0.239  0.334  0.000-  13 1.42   7 1.42  21 1.42
   9  0.372  0.000  0.000-  10 1.42  44 1.42  46 1.42
  10  0.439  0.134  0.000-  27 1.42   9 1.42  23 1.42
  11  0.972  0.400  0.001-  12 1.42  36 1.42   6 1.42
  12  0.039  0.534  0.001-  25 1.42  11 1.42  17 1.42
  13  0.372  0.400  0.000-   8 1.42  14 1.42  24 1.42
  14  0.439  0.534  0.000-  13 1.42  29 1.42  19 1.42
  15  0.572  0.000  0.001-  46 1.42  16 1.42  48 1.42
  16  0.639  0.134  0.001-  15 1.42  35 1.42  27 1.42
  17  0.972  0.600  0.001-  38 1.42  18 1.42  12 1.42
  18  0.039  0.734  0.001-  43 1.42  41 1.42  17 1.42
  19  0.572  0.600  0.000-  14 1.42  20 1.42  32 1.42
  20  0.639  0.734  0.001-  49 1.42  19 1.42  47 1.42
  21  0.172  0.400  0.000-  22 1.42   8 1.42   6 1.42
  22  0.239  0.534  0.000-  21 1.42  29 1.42  25 1.42
  23  0.372  0.200  0.000-  10 1.42   4 1.42  24 1.42
  24  0.439  0.334  0.000-  13 1.42  31 1.42  23 1.42
  25  0.172  0.600  0.001-  26 1.42  12 1.42  22 1.42
  26  0.239  0.734  0.001-  25 1.42  45 1.42  43 1.42
  27  0.572  0.200  0.000-  10 1.42  28 1.42  16 1.42
  28  0.639  0.334  0.000-  27 1.42  37 1.42  31 1.42
  29  0.372  0.600  0.000-  22 1.42  14 1.42  30 1.42
  30  0.439  0.734  0.000-  47 1.42  29 1.42  45 1.42
  31  0.572  0.400  0.000-  32 1.42  28 1.42  24 1.42
  32  0.639  0.534  0.000-  31 1.42  39 1.42  19 1.42
  33  0.772  0.000  0.001-  34 1.42  48 1.42  50 1.42
  34  0.839  0.134  0.001-  33 1.42   5 1.42  35 1.42
  35  0.772  0.200  0.001-  36 1.42  16 1.42  34 1.42
  36  0.839  0.334  0.001-  35 1.42  11 1.42  37 1.42
  37  0.772  0.400  0.001-  28 1.42  38 1.42  36 1.42
  38  0.839  0.534  0.001-  17 1.42  37 1.42  39 1.42
  39  0.772  0.600  0.001-  40 1.42  38 1.42  32 1.42
  40  0.839  0.734  0.001-  39 1.42  49 1.42  41 1.42
  41  0.972  0.800  0.001-  18 1.42  42 1.42  40 1.42
  42  0.039  0.934  0.001-   3 1.42  41 1.42   1 1.42
  43  0.172  0.800  0.001-  18 1.42  44 1.42  26 1.42
  44  0.239  0.934  0.001-   9 1.42  43 1.42   3 1.42
  45  0.372  0.800  0.001-  26 1.42  46 1.42  30 1.42
  46  0.439  0.934  0.001-  15 1.42  45 1.42   9 1.42
  47  0.572  0.800  0.001-  30 1.42  48 1.42  20 1.42
  48  0.639  0.934  0.001-  47 1.42  33 1.42  15 1.42
  49  0.772  0.800  0.001-  50 1.42  20 1.42  40 1.42
  50  0.839  0.934  0.001-  49 1.42   1 1.42  33 1.42
  51  0.373  0.251  0.267-  52 1.18  53 1.18
  52  0.421  0.189  0.270-  51 1.18
  53  0.325  0.313  0.265-  51 1.18
 
  LATTYP: Found a hexagonal cell.
 ALAT       =    12.3250000000
 C/A-ratio  =     2.0283975659
  
  Lattice vectors:
  
 A1 = (  12.3250000000,   0.0000000000,   0.0000000000)
 A2 = (  -6.1625000000,  10.6737631016,   0.0000000000)
 A3 = (   0.0000000000,   0.0000000000,  25.0000000000)


Analysis of symmetry for initial positions (statically):
=====================================================================
 Subroutine PRICEL returns:
 Original cell was already a primitive cell.
 

 Routine SETGRP: Setting up the symmetry group for a 
 hexagonal supercell.


 Subroutine GETGRP returns: Found  1 space group operations
 (whereof  1 operations were pure point group operations)
 out of a pool of 24 trial point group operations.


The static configuration has the point symmetry C_1 .


Analysis of symmetry for dynamics (positions and initial velocities):
=====================================================================
 Subroutine PRICEL returns:
 Original cell was already a primitive cell.
 

 Routine SETGRP: Setting up the symmetry group for a 
 hexagonal supercell.


 Subroutine GETGRP returns: Found  1 space group operations
 (whereof  1 operations were pure point group operations)
 out of a pool of 24 trial point group operations.


The dynamic configuration has the point symmetry C_1 .


 Subroutine INISYM returns: Found  1 space group operations
 (whereof  1 operations are pure point group operations),
 and found     1 'primitive' translations


----------------------------------------------------------------------------------------

                                     Primitive cell                                     

  volume of cell :    3288.8533

  direct lattice vectors                    reciprocal lattice vectors
    12.325000000  0.000000000  0.000000000     0.081135903  0.046843835  0.000000000
    -6.162500000 10.673763102  0.000000000     0.000000000  0.093687670  0.000000000
     0.000000000  0.000000000 25.000000000     0.000000000  0.000000000  0.040000000

  length of vectors
    12.325000000 12.325000000 25.000000000     0.093687670  0.093687670  0.040000000

  position of ions in fractional coordinates (direct lattice)
     0.972450841  0.000320818  0.000566711
     0.039118382  0.133659505  0.000440173
     0.172443627  0.000295449  0.000499628
     0.239096278  0.133647917  0.000256468
     0.972452058  0.200322012  0.000485219
     0.039128360  0.333643771  0.000444150
     0.172451764  0.200354552  0.000219167
     0.239124359  0.333665720  0.000072260
     0.372465565  0.000324403  0.000453913
     0.439137473  0.133619939  0.000258338
     0.972449824  0.400309362  0.000547611
     0.039124981  0.533636789  0.000573410
     0.372416176  0.400329481  0.000000000
     0.439099602  0.533638981  0.000232414
     0.572443676  0.000312125  0.000559580
     0.639110207  0.133631751  0.000547275
     0.972452703  0.600305653  0.000640289
     0.039124495  0.733640359  0.000654513
     0.572433471  0.600306242  0.000402895
     0.639111888  0.733641879  0.000527905
     0.172454630  0.400318228  0.000289045
     0.239120185  0.533636548  0.000378509
     0.372459750  0.200295993  0.000088997
     0.439107096  0.333673419  0.000055762
     0.172452155  0.600311506  0.000524340
     0.239123371  0.733638574  0.000575129
     0.572431082  0.200289171  0.000413296
     0.639112773  0.333618630  0.000462376
     0.372439808  0.600308022  0.000362844
     0.439116090  0.733637858  0.000494190
     0.572469358  0.400320504  0.000339918
     0.639119408  0.533650873  0.000459610
     0.772445723  0.000315427  0.000596161
     0.839116277  0.133640203  0.000575306
     0.772440513  0.200307432  0.000581033
     0.839120241  0.333635728  0.000585467
     0.772446320  0.400298367  0.000582978
     0.839118980  0.533633964  0.000621100
     0.772456143  0.600308173  0.000595712
     0.839115033  0.733643180  0.000631512
     0.972455313  0.800305582  0.000652233
     0.039114714  0.933643289  0.000598051
     0.172457971  0.800312211  0.000623372
     0.239134551  0.933647193  0.000544850
     0.372451396  0.800316674  0.000551399
     0.439124489  0.933644769  0.000541430
     0.572441101  0.800310054  0.000534535
     0.639115067  0.933638985  0.000587644
     0.772445098  0.800313187  0.000602062
     0.839116614  0.933644338  0.000606830
     0.373021009  0.251226878  0.266967971
     0.420879805  0.189313152  0.269544845
     0.325156981  0.313167186  0.264589776

  ion indices of the primitive-cell ions
   primitive index   ion index
                 1           1
                 2           2
                 3           3
                 4           4
                 5           5
                 6           6
                 7           7
                 8           8
                 9           9
                10          10
                11          11
                12          12
                13          13
                14          14
                15          15
                16          16
                17          17
                18          18
                19          19
                20          20
                21          21
                22          22
                23          23
                24          24
                25          25
                26          26
                27          27
                28          28
                29          29
                30          30
                31          31
                32          32
                33          33
                34          34
                35          35
                36          36
                37          37
                38          38
                39          39
                40          40
                41          41
                42          42
                43          43
                44          44
                45          45
                46          46
                47          47
                48          48
                49          49
                50          50
                51          51
                52          52
                53          53

----------------------------------------------------------------------------------------

 
 
 KPOINTS: auto                                    

Automatic generation of k-mesh.
 Grid dimensions read from file:
 generate k-points for:    1    1    1

 Generating k-lattice:

  Cartesian coordinates                     Fractional coordinates (reciprocal lattice)
     0.081135903  0.046843835  0.000000000     1.000000000 -0.000000000  0.000000000
     0.000000000  0.093687670  0.000000000     0.000000000  1.000000000  0.000000000
     0.000000000  0.000000000  0.040000000     0.000000000  0.000000000  1.000000000

  Length of vectors
     0.093687670  0.093687670  0.040000000

  Shift w.r.t. Gamma in fractional coordinates (k-lattice)
     0.000000000  0.000000000  0.000000000

 
 Subroutine IBZKPT returns following result:
 ===========================================
 
 Found      1 irreducible k-points:
 
 Following reciprocal coordinates:
            Coordinates               Weight
  0.000000  0.000000  0.000000      1.000000
 
 Following cartesian coordinates:
            Coordinates               Weight
  0.000000  0.000000  0.000000      1.000000
 


--------------------------------------------------------------------------------------------------------




 Dimension of arrays:
   k-points           NKPTS =      1   k-points in BZ     NKDIM =      1   number of bands    NBANDS=    168
   number of dos      NEDOS =    301   number of ions     NIONS =     53
   non local maximal  LDIM  =      4   non local SUM 2l+1 LMDIM =      8
   total plane-waves  NPLWV = ******
   max r-space proj   IRMAX =      1   max aug-charges    IRDMAX=  10008
   dimension x,y,z NGX =   128 NGY =  128 NGZ =  270
   dimension x,y,z NGXF=   256 NGYF=  256 NGZF=  540
   support grid    NGXF=   256 NGYF=  256 NGZF=  540
   ions per type =              51   2
   NGX,Y,Z   is equivalent  to a cutoff of  17.27, 17.27, 17.95 a.u.
   NGXF,Y,Z  is equivalent  to a cutoff of  34.53, 34.53, 35.91 a.u.

 SYSTEM =  unknown system                          
 POSCAR =   C  O                                   

 Startparameter for this run:
   NWRITE =      2    write-flag & timer
   PREC   = accura    normal or accurate (medium, high low for compatibility)
   ISTART =      0    job   : 0-new  1-cont  2-samecut
   ICHARG =      2    charge: 1-file 2-atom 10-const
   ISPIN  =      1    spin polarized calculation?
   LNONCOLLINEAR =      F non collinear calculations
   LSORBIT =      F    spin-orbit coupling
   INIWAV =      1    electr: 0-lowe 1-rand  2-diag
   LASPH  =      T    aspherical Exc in radial PAW
 Electronic Relaxation 1
   ENCUT  = 1000.0 eV  73.50 Ry    8.57 a.u.  31.78 31.78 64.46*2*pi/ulx,y,z
   ENINI  = 1000.0     initial cutoff
   ENAUG  =  946.8 eV  augmentation charge cutoff
   NELM   =     60;   NELMIN=  2; NELMDL= -5     # of ELM steps 
   EDIFF  = 0.1E-06   stopping-criterion for ELM
   LREAL  =      F    real-space projection
   NLSPLINE    = F    spline interpolate recip. space projectors
   LCOMPAT=      F    compatible to vasp.4.4
   GGA_COMPAT  = T    GGA compatible to vasp.4.4-vasp.4.6
   LMAXPAW     = -100 max onsite density
   LMAXMIX     =    2 max onsite mixed and CHGCAR
   VOSKOWN=      0    Vosko Wilk Nusair interpolation
   ROPT   =    0.00000   0.00000
 Ionic relaxation
   EDIFFG = 0.1E-05   stopping-criterion for IOM
   NSW    =      0    number of steps for IOM
   NBLOCK =      1;   KBLOCK =      1    inner block; outer block 
   IBRION =     -1    ionic relax: 0-MD 1-quasi-New 2-CG
   NFREE  =      0    steps in history (QN), initial steepest desc. (CG)
   ISIF   =      0    stress and relaxation
   IWAVPR =     10    prediction:  0-non 1-charg 2-wave 3-comb
   ISYM   =      2    0-nonsym 1-usesym 2-fastsym
   LCORR  =      T    Harris-Foulkes like correction to forces

   POTIM  = 0.5000    time-step for ionic-motion
   TEIN   =    0.0    initial temperature
   TEBEG  =    0.0;   TEEND  =   0.0 temperature during run
   SMASS  =  -3.00    Nose mass-parameter (am)
   estimated Nose-frequenzy (Omega)   =  0.10E-29 period in steps = 0.13E+47 mass=  -0.347E-26a.u.
   SCALEE = 1.0000    scale energy and forces
   NPACO  =    256;   APACO  = 16.0  distance and # of slots for P.C.
   PSTRESS=    0.0 pullay stress

  Mass of Ions in am
   POMASS =  12.01 16.00
  Ionic Valenz
   ZVAL   =   4.00  6.00
  Atomic Wigner-Seitz radii
   RWIGS  =  -1.00 -1.00
  virtual crystal weights 
   VCA    =   1.00  1.00
   NELECT =     216.0000    total number of electrons
   NUPDOWN=      -1.0000    fix difference up-down

 DOS related values:
   EMIN   =  10.00;   EMAX   =-10.00  energy-range for DOS
   EFERMI =   0.00
   ISMEAR =     0;   SIGMA  =   0.01  broadening in eV -4-tet -1-fermi 0-gaus

 Electronic relaxation 2 (details)
   IALGO  =     58    algorithm
   LDIAG  =      T    sub-space diagonalisation (order eigenvalues)
   LSUBROT=      F    optimize rotation matrix (better conditioning)
   TURBO    =      0    0=normal 1=particle mesh
   IRESTART =      0    0=no restart 2=restart with 2 vectors
   NREBOOT  =      0    no. of reboots
   NMIN     =      0    reboot dimension
   EREF     =   0.00    reference energy to select bands
   IMIX   =      4    mixing-type and parameters
     AMIX     =   0.40;   BMIX     =  1.00
     AMIX_MAG =   1.60;   BMIX_MAG =  1.00
     AMIN     =   0.10
     WC   =   100.;   INIMIX=   1;  MIXPRE=   1;  MAXMIX= -45

 Intra band minimization:
   WEIMIN = 0.0000     energy-eigenvalue tresh-hold
   EBREAK =  0.15E-09  absolut break condition
   DEPER  =   0.30     relativ break condition  

   TIME   =   0.40     timestep for ELM

  volume/ion in A,a.u.               =      62.05       418.76
  Fermi-wavevector in a.u.,A,eV,Ry     =   0.660508  1.248179  5.935820  0.436270
  Thomas-Fermi vector in A             =   1.732977
 
 Write flags
   LWAVE        =      T    write WAVECAR
   LDOWNSAMPLE  =      F    k-point downsampling of WAVECAR
   LCHARG       =      T    write CHGCAR
   LVTOT        =      F    write LOCPOT, total local potential
   LVHAR        =      F    write LOCPOT, Hartree potential only
   LELF         =      F    write electronic localiz. function (ELF)
   LORBIT       =      0    0 simple, 1 ext, 2 COOP (PROOUT), +10 PAW based schemes


 Dipole corrections
   LMONO  =      F    monopole corrections only (constant potential shift)
   LDIPOL =      F    correct potential (dipole corrections)
   IDIPOL =      0    1-x, 2-y, 3-z, 4-all directions 
   EPSILON=  1.0000000 bulk dielectric constant

 Exchange correlation treatment:
   GGA     =    BO    GGA type
   LEXCH   =    42    internal setting for exchange type
   VOSKOWN=      0    Vosko Wilk Nusair interpolation
   LHFCALC =     F    Hartree Fock is set to
   LHFONE  =     F    Hartree Fock one center treatment
   AEXX    =    0.0000 exact exchange contribution

 vdW DFT:
   LUSE_VDW   =     T    switch on vdW DFT
   Zab_VDW    =-.8491    correlation parameter
   PARAM1     =0.1833
   PARAM2     =0.2200
   PARAM3     =0.0000
   -- rVV10 --
   BPARAM     = 6.3000
   CPARAM     = 0.0093

 Linear response parameters
   LEPSILON=     F    determine dielectric tensor
   LRPA    =     F    only Hartree local field effects (RPA)
   LNABLA  =     F    use nabla operator in PAW spheres
   LVEL    =     F    velocity operator in full k-point grid
   LINTERFAST=   F  fast interpolation
   KINTER  =     0    interpolate to denser k-point grid
   CSHIFT  =0.1000    complex shift for real part using Kramers Kronig
   OMEGAMAX=  -1.0    maximum frequency
   DEG_THRESHOLD= 0.2000000E-02 threshold for treating states as degnerate
   RTIME   =   -0.100 relaxation time in fs
  (WPLASMAI=    0.000 imaginary part of plasma frequency in eV, 0.658/RTIME)
   DFIELD  = 0.0000000 0.0000000 0.0000000 field for delta impulse in time
 
 Orbital magnetization related:
   ORBITALMAG=     F  switch on orbital magnetization
   LCHIMAG   =     F  perturbation theory with respect to B field
   DQ        =  0.001000  dq finite difference perturbation B field
   LLRAUG    =     F  two centre corrections for induced B field



--------------------------------------------------------------------------------------------------------


 Static calculation
 charge density and potential will be updated during run
 non-spin polarized calculation
 Conjugate gradient for all bands (Freysoldt, et al. PRB 79, 241103 (2009))
 preconditioned conjugated gradient                                        
 perform sub-space diagonalisation
    before iterative eigenvector-optimisation
 modified Broyden-mixing scheme, WC =      100.0
 initial mixing is a Kerker type mixing with AMIX =  0.4000 and BMIX =      1.0000
 Hartree-type preconditioning will be used
 using additional bands           60
 reciprocal scheme for non local part
 use partial core corrections
 no Harris-corrections to forces 
 use gradient corrections 
 use of overlap-Matrix (Vanderbilt PP)
 Gauss-broadening in eV      SIGMA  =   0.01


--------------------------------------------------------------------------------------------------------


  energy-cutoff  :     1000.00
  volume of cell :     3288.85
      direct lattice vectors                 reciprocal lattice vectors
    12.325000000  0.000000000  0.000000000     0.081135903  0.046843835  0.000000000
    -6.162500000 10.673763102  0.000000000     0.000000000  0.093687670  0.000000000
     0.000000000  0.000000000 25.000000000     0.000000000  0.000000000  0.040000000

  length of vectors
    12.325000000 12.325000000 25.000000000     0.093687670  0.093687670  0.040000000


 
 k-points in units of 2pi/SCALE and weight: auto                                    
   0.00000000  0.00000000  0.00000000       1.000
 
 k-points in reciprocal lattice and weights: auto                                    
   0.00000000  0.00000000  0.00000000       1.000
 
 position of ions in fractional coordinates (direct lattice) 
   0.97245084  0.00032082  0.00056671
   0.03911838  0.13365950  0.00044017
   0.17244363  0.00029545  0.00049963
   0.23909628  0.13364792  0.00025647
   0.97245206  0.20032201  0.00048522
   0.03912836  0.33364377  0.00044415
   0.17245176  0.20035455  0.00021917
   0.23912436  0.33366572  0.00007226
   0.37246557  0.00032440  0.00045391
   0.43913747  0.13361994  0.00025834
   0.97244982  0.40030936  0.00054761
   0.03912498  0.53363679  0.00057341
   0.37241618  0.40032948  0.00000000
   0.43909960  0.53363898  0.00023241
   0.57244368  0.00031213  0.00055958
   0.63911021  0.13363175  0.00054727
   0.97245270  0.60030565  0.00064029
   0.03912449  0.73364036  0.00065451
   0.57243347  0.60030624  0.00040289
   0.63911189  0.73364188  0.00052791
   0.17245463  0.40031823  0.00028904
   0.23912018  0.53363655  0.00037851
   0.37245975  0.20029599  0.00008900
   0.43910710  0.33367342  0.00005576
   0.17245216  0.60031151  0.00052434
   0.23912337  0.73363857  0.00057513
   0.57243108  0.20028917  0.00041330
   0.63911277  0.33361863  0.00046238
   0.37243981  0.60030802  0.00036284
   0.43911609  0.73363786  0.00049419
   0.57246936  0.40032050  0.00033992
   0.63911941  0.53365087  0.00045961
   0.77244572  0.00031543  0.00059616
   0.83911628  0.13364020  0.00057531
   0.77244051  0.20030743  0.00058103
   0.83912024  0.33363573  0.00058547
   0.77244632  0.40029837  0.00058298
   0.83911898  0.53363396  0.00062110
   0.77245614  0.60030817  0.00059571
   0.83911503  0.73364318  0.00063151
   0.97245531  0.80030558  0.00065223
   0.03911471  0.93364329  0.00059805
   0.17245797  0.80031221  0.00062337
   0.23913455  0.93364719  0.00054485
   0.37245140  0.80031667  0.00055140
   0.43912449  0.93364477  0.00054143
   0.57244110  0.80031005  0.00053453
   0.63911507  0.93363899  0.00058764
   0.77244510  0.80031319  0.00060206
   0.83911661  0.93364434  0.00060683
   0.37302101  0.25122688  0.26696797
   0.42087980  0.18931315  0.26954485
   0.32515698  0.31316719  0.26458978
 
 position of ions in cartesian coordinates  (Angst):
  11.98347958  0.00342433  0.01416777
  -0.34154264  1.42664989  0.01100432
   2.12354700  0.00315355  0.01249070
   2.12325634  1.42652621  0.00641170
  10.75098721  2.13818970  0.01213047
  -1.57382270  3.56123457  0.01110375
   0.89078307  2.13853702  0.00547917
   0.89099273  3.56146885  0.00180651
   4.58863896  0.00346260  0.01134782
   4.58893648  1.42622757  0.00645846
   9.51853763  4.27280730  0.01369027
  -2.80632132  5.69591267  0.01433526
   2.12299894  4.27302204  0.00000000
   2.12335237  5.69593607  0.00581036
   7.05344483  0.00333155  0.01398950
   7.05352764  1.42635365  0.01368187
   8.28609598  6.40752033  0.01600723
  -4.03884931  7.83070339  0.01636283
   3.35585531  6.40752662  0.01007237
   3.35598594  7.83071962  0.01319763
  -0.34145776  4.27290193  0.00722612
  -0.34137895  5.69591010  0.00946273
   3.35624236  2.13791198  0.00222492
   3.35573251  3.56155103  0.00139405
  -1.57394684  6.40758280  0.01310850
  -1.57385216  7.83068434  0.01437823
   5.82093107  2.13783916  0.01033241
   5.82114012  3.56096622  0.01155939
   0.89092245  6.40754561  0.00907111
   0.89106251  7.83067670  0.01235474
   4.58870974  4.27292622  0.00849795
   4.58852320  5.69606300  0.01149026
   9.51844972  0.00336679  0.01490402
   9.51855036  1.42644387  0.01438264
   8.28593477  2.13803408  0.01452582
   8.28612680  3.56114872  0.01463668
   7.05356221  4.27268994  0.01457444
   7.05362213  5.69588251  0.01552751
   5.82112285  6.40754723  0.01489279
   5.82101669  7.83073350  0.01578780
   7.05362858  8.54227219  0.01630582
  -5.27148792  9.96548729  0.01495127
  -2.80637951  8.54234295  0.01558431
  -2.80626749  9.96552896  0.01362126
  -0.34148805  8.54239058  0.01378498
  -0.34137657  9.96550309  0.01353576
   2.12342586  8.54231992  0.01336337
   2.12354296  9.96544135  0.01469111
   4.58845581  8.54235337  0.01505154
   4.58852904  9.96549848  0.01517076
   3.04929830  2.68153618  6.67419927
   4.02070129  2.02068374  6.73862113
   2.07766701  3.34267235  6.61474440
 


--------------------------------------------------------------------------------------------------------


 k-point   1 :   0.0000 0.0000 0.0000  plane waves:  236157

 maximum and minimum number of plane-waves per node :    236157   236157

 maximum number of plane-waves:    236157
 maximum index in each direction: 
   IXMAX=   31   IYMAX=   31   IZMAX=   64
   IXMIN=  -31   IYMIN=  -31   IZMIN=  -64


 serial   3D FFT for wavefunctions
 parallel 3D FFT for charge:
    minimum data exchange during FFTs selected (reduces bandwidth)


 total amount of memory used by VASP MPI-rank0   551512. kBytes
=======================================================================

   base      :      30000. kBytes
   nonl-proj :     230539. kBytes
   fftplans  :      40716. kBytes
   grid      :     216018. kBytes
   one-center:        162. kBytes
   wavefun   :      34077. kBytes
 
     INWAV:  cpu time    0.0000: real time    0.0000
 Broyden mixing: mesh for mixing (old mesh)
   NGX = 63   NGY = 63   NGZ =129
  (NGX  =256   NGY  =256   NGZ  =540)
  gives a total of 512001 points

 initial charge density was supplied:
 charge density of overlapping atoms calculated
 number of electron     216.0000000 magnetization 
 keeping initial charge density in first step


--------------------------------------------------------------------------------------------------------


 Maximum index for augmentation-charges          471 (set IRDMAX)


--------------------------------------------------------------------------------------------------------


 First call to EWALD:  gamma=   0.119
 Maximum number of real-space cells 4x 4x 2
 Maximum number of reciprocal cells 2x 2x 4

    FEWALD:  cpu time    0.0029: real time    0.0029


--------------------------------------- Iteration      1(   1)  ---------------------------------------


vdW kernel read from vdw_kernel.bindat
  0.0000  0.2424  0.5071  0.7962  1.1119  1.4567  1.8333  2.2446  2.6937  3.1842
  3.7199  4.3049  4.9438  5.6415  6.4036  7.2358  8.1446  9.1372 10.2212 11.4050
 12.6979 14.1099 15.6519 17.3360 19.1751 21.1837 23.3773 25.7729 28.3892 31.2465
 34.3669 37.7748 41.4965 45.5611 50.0000
 
    POTLOK:  cpu time    8.2516: real time    8.3657
    SETDIJ:  cpu time    0.2756: real time    0.2769
    TRIAL :  cpu time   15.3056: real time   15.4276
    CORREC:  cpu time    0.0006: real time    0.0006
    --------------------------------------------
      LOOP:  cpu time   23.8498: real time   24.0897

 eigenvalue-minimisations  :   336
 total energy-change (2. order) : 0.2637969E+04  (-0.1071825E+05)
 number of electron     216.0000000 magnetization 
 augmentation part      216.0000000 magnetization 

 Free energy of the ion-electron system (eV)
  ---------------------------------------------------
  alpha Z        PSCENC =        47.94900195
  Ewald energy   TEWEN  =     42826.26722571
  -Hartree energ DENC   =    -48895.46372349
  -exchange      EXHF   =         0.00000000
  -V(xc)+E(xc)   XCENC  =       398.24048518
  PAW double counting   =      6564.79108649    -6260.84737255
  entropy T*S    EENTRO =        -0.00000760
  eigenvalues    EBANDS =      -504.05187973
  atomic energy  EATOM  =      8461.08393172
  ---------------------------------------------------
  free energy    TOTEN  =      2637.96874767 eV

  energy without entropy =     2637.96875527  energy(sigma->0) =     2637.96875147


--------------------------------------------------------------------------------------------------------




--------------------------------------- Iteration      1(   2)  ---------------------------------------


    TRIAL :  cpu time   23.0066: real time   23.1721
    CORREC:  cpu time    0.0001: real time    0.0001
    --------------------------------------------
      LOOP:  cpu time   23.0453: real time   23.2153

 eigenvalue-minimisations  :   560
 total energy-change (2. order) :-0.2388423E+04  (-0.2221167E+04)
 number of electron     216.0000000 magnetization 
 augmentation part      216.0000000 magnetization 

 Free energy of the ion-electron system (eV)
  ---------------------------------------------------
  alpha Z        PSCENC =        47.94900195
  Ewald energy   TEWEN  =     42826.26722571
  -Hartree energ DENC   =    -48895.46372349
  -exchange      EXHF   =         0.00000000
  -V(xc)+E(xc)   XCENC  =       398.24048518
  PAW double counting   =      6564.79108649    -6260.84737255
  entropy T*S    EENTRO =        -0.00000000
  eigenvalues    EBANDS =     -2892.47478573
  atomic energy  EATOM  =      8461.08393172
  ---------------------------------------------------
  free energy    TOTEN  =       249.54584927 eV

  energy without entropy =      249.54584927  energy(sigma->0) =      249.54584927


--------------------------------------------------------------------------------------------------------




--------------------------------------- Iteration      1(   3)  ---------------------------------------


    TRIAL :  cpu time   19.1136: real time   19.2495
    CORREC:  cpu time    0.0001: real time    0.0001
    --------------------------------------------
      LOOP:  cpu time   19.1636: real time   19.3131

 eigenvalue-minimisations  :   448
 total energy-change (2. order) :-0.6701849E+03  (-0.6676564E+03)
 number of electron     216.0000000 magnetization 
 augmentation part      216.0000000 magnetization 

 Free energy of the ion-electron system (eV)
  ---------------------------------------------------
  alpha Z        PSCENC =        47.94900195
  Ewald energy   TEWEN  =     42826.26722571
  -Hartree energ DENC   =    -48895.46372349
  -exchange      EXHF   =         0.00000000
  -V(xc)+E(xc)   XCENC  =       398.24048518
  PAW double counting   =      6564.79108649    -6260.84737255
  entropy T*S    EENTRO =        -0.00000000
  eigenvalues    EBANDS =     -3562.65970127
  atomic energy  EATOM  =      8461.08393172
  ---------------------------------------------------
  free energy    TOTEN  =      -420.63906627 eV

  energy without entropy =     -420.63906627  energy(sigma->0) =     -420.63906627


--------------------------------------------------------------------------------------------------------




--------------------------------------- Iteration      1(   4)  ---------------------------------------


    TRIAL :  cpu time   19.1219: real time   19.2833
    CORREC:  cpu time    0.0001: real time    0.0001
    --------------------------------------------
      LOOP:  cpu time   19.1552: real time   19.3170

 eigenvalue-minimisations  :   448
 total energy-change (2. order) :-0.2469877E+02  (-0.2456480E+02)
 number of electron     216.0000000 magnetization 
 augmentation part      216.0000000 magnetization 

 Free energy of the ion-electron system (eV)
  ---------------------------------------------------
  alpha Z        PSCENC =        47.94900195
  Ewald energy   TEWEN  =     42826.26722571
  -Hartree energ DENC   =    -48895.46372349
  -exchange      EXHF   =         0.00000000
  -V(xc)+E(xc)   XCENC  =       398.24048518
  PAW double counting   =      6564.79108649    -6260.84737255
  entropy T*S    EENTRO =        -0.00000000
  eigenvalues    EBANDS =     -3587.35847339
  atomic energy  EATOM  =      8461.08393172
  ---------------------------------------------------
  free energy    TOTEN  =      -445.33783839 eV

  energy without entropy =     -445.33783839  energy(sigma->0) =     -445.33783839


--------------------------------------------------------------------------------------------------------




--------------------------------------- Iteration      1(   5)  ---------------------------------------


    TRIAL :  cpu time   17.1891: real time   17.3177
    CORREC:  cpu time    0.0001: real time    0.0001
    CHARGE:  cpu time    0.8078: real time    0.8139
    --------------------------------------------
      LOOP:  cpu time   18.0668: real time   18.2035

 eigenvalue-minimisations  :   392
 total energy-change (2. order) :-0.8467325E+00  (-0.8451405E+00)
 number of electron     216.0000000 magnetization 
 augmentation part       -0.2186499 magnetization 

 Free energy of the ion-electron system (eV)
  ---------------------------------------------------
  alpha Z        PSCENC =        47.94900195
  Ewald energy   TEWEN  =     42826.26722571
  -Hartree energ DENC   =    -48895.46372349
  -exchange      EXHF   =         0.00000000
  -V(xc)+E(xc)   XCENC  =       398.24048518
  PAW double counting   =      6564.79108649    -6260.84737255
  entropy T*S    EENTRO =        -0.00000000
  eigenvalues    EBANDS =     -3588.20520591
  atomic energy  EATOM  =      8461.08393172
  ---------------------------------------------------
  free energy    TOTEN  =      -446.18457091 eV

  energy without entropy =     -446.18457091  energy(sigma->0) =     -446.18457091


--------------------------------------------------------------------------------------------------------




--------------------------------------- Iteration      1(   6)  ---------------------------------------


    POTLOK:  cpu time    7.8814: real time    7.9355
    SETDIJ:  cpu time    0.3300: real time    0.3311
    TRIAL :  cpu time    6.8693: real time    6.9220
    CORREC:  cpu time    9.7381: real time    9.8073
    CHARGE:  cpu time    0.8016: real time    0.8074
    --------------------------------------------
      LOOP:  cpu time   25.6313: real time   25.8309

 eigenvalue-minimisations  :     0
 total energy-change (2. order) : 0.5518275E+02  (-0.1761332E+02)
 number of electron     216.0000000 magnetization 
 augmentation part       -0.3308455 magnetization 

 Free energy of the ion-electron system (eV)
  ---------------------------------------------------
  alpha Z        PSCENC =        47.94900195
  Ewald energy   TEWEN  =     42826.26722571
  -Hartree energ DENC   =    -50374.20433677
  -exchange      EXHF   =         0.00000000
  -V(xc)+E(xc)   XCENC  =       448.12367873
  PAW double counting   =     71560.00562124   -71264.23557704
  entropy T*S    EENTRO =        -0.00000000
  eigenvalues    EBANDS =     -2095.99136290
  atomic energy  EATOM  =      8461.08393172
  ---------------------------------------------------
  free energy    TOTEN  =      -391.00181736 eV

  energy without entropy =     -391.00181736  energy(sigma->0) =     -391.00181736


--------------------------------------------------------------------------------------------------------




--------------------------------------- Iteration      1(   7)  ---------------------------------------


    POTLOK:  cpu time    7.8889: real time    7.9478
    SETDIJ:  cpu time    0.3153: real time    0.3165
    TRIAL :  cpu time    6.8676: real time    6.9230
    CORREC:  cpu time    9.6976: real time    9.7670
    CHARGE:  cpu time    0.7999: real time    0.8055
    --------------------------------------------
      LOOP:  cpu time   25.6323: real time   25.8373

 eigenvalue-minimisations  :     0
 total energy-change (2. order) :-0.1766100E+02  (-0.2012741E+01)
 number of electron     216.0000000 magnetization 
 augmentation part       -0.3796110 magnetization 

 Free energy of the ion-electron system (eV)
  ---------------------------------------------------
  alpha Z        PSCENC =        47.94900195
  Ewald energy   TEWEN  =     42826.26722571
  -Hartree energ DENC   =    -49842.42518323
  -exchange      EXHF   =         0.00000000
  -V(xc)+E(xc)   XCENC  =       430.20767547
  PAW double counting   =     86507.96792889   -86208.95872362
  entropy T*S    EENTRO =        -0.00000000
  eigenvalues    EBANDS =     -2630.75467874
  atomic energy  EATOM  =      8461.08393172
  ---------------------------------------------------
  free energy    TOTEN  =      -408.66282185 eV

  energy without entropy =     -408.66282185  energy(sigma->0) =     -408.66282185


--------------------------------------------------------------------------------------------------------




--------------------------------------- Iteration      1(   8)  ---------------------------------------


    POTLOK:  cpu time    7.8999: real time    7.9535
    SETDIJ:  cpu time    0.2918: real time    0.2928
    TRIAL :  cpu time    6.8648: real time    6.9204
    CORREC:  cpu time    9.8161: real time    9.9027
    CHARGE:  cpu time    0.8015: real time    0.8066
    --------------------------------------------
      LOOP:  cpu time   25.7201: real time   25.9564

 eigenvalue-minimisations  :     0
 total energy-change (2. order) :-0.2011964E+01  (-0.5820941E+00)
 number of electron     216.0000000 magnetization 
 augmentation part       -0.3948981 magnetization 

 Free energy of the ion-electron system (eV)
  ---------------------------------------------------
  alpha Z        PSCENC =        47.94900195
  Ewald energy   TEWEN  =     42826.26722571
  -Hartree energ DENC   =    -49812.81586812
  -exchange      EXHF   =         0.00000000
  -V(xc)+E(xc)   XCENC  =       429.56788036
  PAW double counting   =     90888.67552774   -90589.22315499
  entropy T*S    EENTRO =        -0.00000000
  eigenvalues    EBANDS =     -2662.17933044
  atomic energy  EATOM  =      8461.08393172
  ---------------------------------------------------
  free energy    TOTEN  =      -410.67478608 eV

  energy without entropy =     -410.67478608  energy(sigma->0) =     -410.67478608


--------------------------------------------------------------------------------------------------------




--------------------------------------- Iteration      1(   9)  ---------------------------------------


    POTLOK:  cpu time    7.8949: real time    7.9479
    SETDIJ:  cpu time    0.3559: real time    0.3572
    TRIAL :  cpu time    6.8619: real time    6.9145
    CORREC:  cpu time    9.6950: real time    9.7642
    CHARGE:  cpu time    0.7967: real time    0.8029
    --------------------------------------------
      LOOP:  cpu time   25.6735: real time   25.8597

 eigenvalue-minimisations  :     0
 total energy-change (2. order) :-0.5819601E+00  (-0.2213678E+00)
 number of electron     216.0000000 magnetization 
 augmentation part       -0.3999773 magnetization 

 Free energy of the ion-electron system (eV)
  ---------------------------------------------------
  alpha Z        PSCENC =        47.94900195
  Ewald energy   TEWEN  =     42826.26722571
  -Hartree energ DENC   =    -49825.84980522
  -exchange      EXHF   =         0.00000000
  -V(xc)+E(xc)   XCENC  =       429.66822629
  PAW double counting   =     94110.12826198   -93810.47897905
  entropy T*S    EENTRO =        -0.00000000
  eigenvalues    EBANDS =     -2650.02460959
  atomic energy  EATOM  =      8461.08393172
  ---------------------------------------------------
  free energy    TOTEN  =      -411.25674622 eV

  energy without entropy =     -411.25674622  energy(sigma->0) =     -411.25674622


--------------------------------------------------------------------------------------------------------




--------------------------------------- Iteration      1(  10)  ---------------------------------------


    POTLOK:  cpu time    7.8877: real time    7.9438
    SETDIJ:  cpu time    0.3145: real time    0.3157
    TRIAL :  cpu time    6.8703: real time    6.9222
    CORREC:  cpu time    9.7015: real time    9.7688
    CHARGE:  cpu time    0.8011: real time    0.8060
    --------------------------------------------
      LOOP:  cpu time   25.6316: real time   25.8155

 eigenvalue-minimisations  :     0
 total energy-change (2. order) :-0.2206674E+00  (-0.9697027E-01)
 number of electron     216.0000000 magnetization 
 augmentation part       -0.3973515 magnetization 

 Free energy of the ion-electron system (eV)
  ---------------------------------------------------
  alpha Z        PSCENC =        47.94900195
  Ewald energy   TEWEN  =     42826.26722571
  -Hartree energ DENC   =    -49822.80760967
  -exchange      EXHF   =         0.00000000
  -V(xc)+E(xc)   XCENC  =       429.50647140
  PAW double counting   =     94920.10387410   -94620.33718840
  entropy T*S    EENTRO =        -0.00000000
  eigenvalues    EBANDS =     -2653.24312043
  atomic energy  EATOM  =      8461.08393172
  ---------------------------------------------------
  free energy    TOTEN  =      -411.47741362 eV

  energy without entropy =     -411.47741362  energy(sigma->0) =     -411.47741362


--------------------------------------------------------------------------------------------------------




--------------------------------------- Iteration      1(  11)  ---------------------------------------


    POTLOK:  cpu time    7.8875: real time    7.9419
    SETDIJ:  cpu time    0.3230: real time    0.3242
    TRIAL :  cpu time    6.8661: real time    6.9213
    CORREC:  cpu time    9.7400: real time    9.8126
    CHARGE:  cpu time    0.8010: real time    0.8062
    --------------------------------------------
      LOOP:  cpu time   25.6907: real time   25.8809

 eigenvalue-minimisations  :     0
 total energy-change (2. order) :-0.9653596E-01  (-0.3639781E-01)
 number of electron     216.0000000 magnetization 
 augmentation part       -0.3948184 magnetization 

 Free energy of the ion-electron system (eV)
  ---------------------------------------------------
  alpha Z        PSCENC =        47.94900195
  Ewald energy   TEWEN  =     42826.26722571
  -Hartree energ DENC   =    -49814.25615821
  -exchange      EXHF   =         0.00000000
  -V(xc)+E(xc)   XCENC  =       429.37807801
  PAW double counting   =     94488.14181290   -94188.37791905
  entropy T*S    EENTRO =        -0.00000000
  eigenvalues    EBANDS =     -2661.75992261
  atomic energy  EATOM  =      8461.08393172
  ---------------------------------------------------
  free energy    TOTEN  =      -411.57394958 eV

  energy without entropy =     -411.57394958  energy(sigma->0) =     -411.57394958


--------------------------------------------------------------------------------------------------------




--------------------------------------- Iteration      1(  12)  ---------------------------------------


    POTLOK:  cpu time    7.8874: real time    7.9428
    SETDIJ:  cpu time    0.3361: real time    0.3373
    TRIAL :  cpu time    6.8625: real time    6.9144
    CORREC:  cpu time    9.7115: real time    9.7780
    CHARGE:  cpu time    0.8016: real time    0.8069
    --------------------------------------------
      LOOP:  cpu time   25.6997: real time   25.8830

 eigenvalue-minimisations  :     0
 total energy-change (2. order) :-0.3637434E-01  (-0.1085633E-01)
 number of electron     216.0000000 magnetization 
 augmentation part       -0.3943256 magnetization 

 Free energy of the ion-electron system (eV)
  ---------------------------------------------------
  alpha Z        PSCENC =        47.94900195
  Ewald energy   TEWEN  =     42826.26722571
  -Hartree energ DENC   =    -49809.98221580
  -exchange      EXHF   =         0.00000000
  -V(xc)+E(xc)   XCENC  =       429.29944093
  PAW double counting   =     94022.96996003   -93723.23836382
  entropy T*S    EENTRO =        -0.00000000
  eigenvalues    EBANDS =     -2665.95930463
  atomic energy  EATOM  =      8461.08393172
  ---------------------------------------------------
  free energy    TOTEN  =      -411.61032392 eV

  energy without entropy =     -411.61032392  energy(sigma->0) =     -411.61032392


--------------------------------------------------------------------------------------------------------




--------------------------------------- Iteration      1(  13)  ---------------------------------------


    POTLOK:  cpu time    7.9058: real time    7.9623
    SETDIJ:  cpu time    0.2908: real time    0.2919
    TRIAL :  cpu time    6.8905: real time    6.9430
    CORREC:  cpu time    9.7184: real time    9.7871
    CHARGE:  cpu time    0.8033: real time    0.8086
    --------------------------------------------
      LOOP:  cpu time   25.6653: real time   25.8705

 eigenvalue-minimisations  :     0
 total energy-change (2. order) :-0.1089048E-01  (-0.2820357E-02)
 number of electron     216.0000000 magnetization 
 augmentation part       -0.3940704 magnetization 

 Free energy of the ion-electron system (eV)
  ---------------------------------------------------
  alpha Z        PSCENC =        47.94900195
  Ewald energy   TEWEN  =     42826.26722571
  -Hartree energ DENC   =    -49809.03411992
  -exchange      EXHF   =         0.00000000
  -V(xc)+E(xc)   XCENC  =       429.26456643
  PAW double counting   =     93787.65794106   -93487.94154641
  entropy T*S    EENTRO =        -0.00000000
  eigenvalues    EBANDS =     -2666.86821494
  atomic energy  EATOM  =      8461.08393172
  ---------------------------------------------------
  free energy    TOTEN  =      -411.62121440 eV

  energy without entropy =     -411.62121440  energy(sigma->0) =     -411.62121440


--------------------------------------------------------------------------------------------------------




--------------------------------------- Iteration      1(  14)  ---------------------------------------


    POTLOK:  cpu time    7.8861: real time    7.9509
    SETDIJ:  cpu time    0.3149: real time    0.3161
    TRIAL :  cpu time    6.8718: real time    6.9241
    CORREC:  cpu time    9.7073: real time    9.7740
    CHARGE:  cpu time    0.8026: real time    0.8078
    --------------------------------------------
      LOOP:  cpu time   25.6236: real time   25.8199

 eigenvalue-minimisations  :     0
 total energy-change (2. order) :-0.2841278E-02  (-0.7253999E-03)
 number of electron     216.0000000 magnetization 
 augmentation part       -0.3939983 magnetization 

 Free energy of the ion-electron system (eV)
  ---------------------------------------------------
  alpha Z        PSCENC =        47.94900195
  Ewald energy   TEWEN  =     42826.26722571
  -Hartree energ DENC   =    -49808.87949000
  -exchange      EXHF   =         0.00000000
  -V(xc)+E(xc)   XCENC  =       429.25562356
  PAW double counting   =     93739.76009273   -93440.04953099
  entropy T*S    EENTRO =        -0.00000000
  eigenvalues    EBANDS =     -2667.01091036
  atomic energy  EATOM  =      8461.08393172
  ---------------------------------------------------
  free energy    TOTEN  =      -411.62405568 eV

  energy without entropy =     -411.62405568  energy(sigma->0) =     -411.62405568


--------------------------------------------------------------------------------------------------------




--------------------------------------- Iteration      1(  15)  ---------------------------------------


    POTLOK:  cpu time    7.8860: real time    7.9418
    SETDIJ:  cpu time    0.3073: real time    0.3084
    TRIAL :  cpu time    6.8657: real time    6.9230
    CORREC:  cpu time    9.7176: real time    9.7872
    CHARGE:  cpu time    0.8017: real time    0.8074
    --------------------------------------------
      LOOP:  cpu time   25.6291: real time   25.8230

 eigenvalue-minimisations  :     0
 total energy-change (2. order) :-0.7339295E-03  (-0.2087902E-03)
 number of electron     216.0000000 magnetization 
 augmentation part       -0.3939226 magnetization 

 Free energy of the ion-electron system (eV)
  ---------------------------------------------------
  alpha Z        PSCENC =        47.94900195
  Ewald energy   TEWEN  =     42826.26722571
  -Hartree energ DENC   =    -49808.68742674
  -exchange      EXHF   =         0.00000000
  -V(xc)+E(xc)   XCENC  =       429.24629947
  PAW double counting   =     93738.39041351   -93438.68030472
  entropy T*S    EENTRO =        -0.00000000
  eigenvalues    EBANDS =     -2667.19393050
  atomic energy  EATOM  =      8461.08393172
  ---------------------------------------------------
  free energy    TOTEN  =      -411.62478961 eV

  energy without entropy =     -411.62478961  energy(sigma->0) =     -411.62478961


--------------------------------------------------------------------------------------------------------




--------------------------------------- Iteration      1(  16)  ---------------------------------------


    POTLOK:  cpu time    7.8906: real time    7.9451
    SETDIJ:  cpu time    0.3338: real time    0.3350
    TRIAL :  cpu time    6.8611: real time    6.9197
    CORREC:  cpu time    9.6931: real time    9.7591
    CHARGE:  cpu time    0.8011: real time    0.8065
    --------------------------------------------
      LOOP:  cpu time   25.6042: real time   25.7902

 eigenvalue-minimisations  :     0
 total energy-change (2. order) :-0.2138400E-03  (-0.7534807E-04)
 number of electron     216.0000000 magnetization 
 augmentation part       -0.3938337 magnetization 

 Free energy of the ion-electron system (eV)
  ---------------------------------------------------
  alpha Z        PSCENC =        47.94900195
  Ewald energy   TEWEN  =     42826.26722571
  -Hartree energ DENC   =    -49808.76480676
  -exchange      EXHF   =         0.00000000
  -V(xc)+E(xc)   XCENC  =       429.24753491
  PAW double counting   =     93721.56475860   -93421.85494853
  entropy T*S    EENTRO =        -0.00000000
  eigenvalues    EBANDS =     -2667.11770105
  atomic energy  EATOM  =      8461.08393172
  ---------------------------------------------------
  free energy    TOTEN  =      -411.62500345 eV

  energy without entropy =     -411.62500345  energy(sigma->0) =     -411.62500345


--------------------------------------------------------------------------------------------------------




--------------------------------------- Iteration      1(  17)  ---------------------------------------


    POTLOK:  cpu time    7.8822: real time    7.9486
    SETDIJ:  cpu time    0.3488: real time    0.3500
    TRIAL :  cpu time    6.8594: real time    6.9140
    CORREC:  cpu time    9.6861: real time    9.7655
    CHARGE:  cpu time    0.8124: real time    0.8184
    --------------------------------------------
      LOOP:  cpu time   25.5948: real time   25.8392

 eigenvalue-minimisations  :     0
 total energy-change (2. order) :-0.7799813E-04  (-0.2881525E-04)
 number of electron     216.0000000 magnetization 
 augmentation part       -0.3938352 magnetization 

 Free energy of the ion-electron system (eV)
  ---------------------------------------------------
  alpha Z        PSCENC =        47.94900195
  Ewald energy   TEWEN  =     42826.26722571
  -Hartree energ DENC   =    -49808.92506779
  -exchange      EXHF   =         0.00000000
  -V(xc)+E(xc)   XCENC  =       429.25267674
  PAW double counting   =     93704.32619613   -93404.61677096
  entropy T*S    EENTRO =        -0.00000000
  eigenvalues    EBANDS =     -2666.96227494
  atomic energy  EATOM  =      8461.08393172
  ---------------------------------------------------
  free energy    TOTEN  =      -411.62508145 eV

  energy without entropy =     -411.62508145  energy(sigma->0) =     -411.62508145


--------------------------------------------------------------------------------------------------------




--------------------------------------- Iteration      1(  18)  ---------------------------------------


    POTLOK:  cpu time    7.9551: real time    8.0089
    SETDIJ:  cpu time    0.2337: real time    0.2345
    TRIAL :  cpu time    6.8700: real time    6.9226
    CORREC:  cpu time    9.6981: real time    9.7681
    CHARGE:  cpu time    0.7982: real time    0.8037
    --------------------------------------------
      LOOP:  cpu time   25.5921: real time   25.7765

 eigenvalue-minimisations  :     0
 total energy-change (2. order) :-0.3039176E-04  (-0.1173207E-04)
 number of electron     216.0000000 magnetization 
 augmentation part       -0.3938535 magnetization 

 Free energy of the ion-electron system (eV)
  ---------------------------------------------------
  alpha Z        PSCENC =        47.94900195
  Ewald energy   TEWEN  =     42826.26722571
  -Hartree energ DENC   =    -49808.95010631
  -exchange      EXHF   =         0.00000000
  -V(xc)+E(xc)   XCENC  =       429.25284402
  PAW double counting   =     93701.12646782   -93401.41646272
  entropy T*S    EENTRO =        -0.00000000
  eigenvalues    EBANDS =     -2666.93801402
  atomic energy  EATOM  =      8461.08393172
  ---------------------------------------------------
  free energy    TOTEN  =      -411.62511184 eV

  energy without entropy =     -411.62511184  energy(sigma->0) =     -411.62511184


--------------------------------------------------------------------------------------------------------




--------------------------------------- Iteration      1(  19)  ---------------------------------------


    POTLOK:  cpu time    7.8810: real time    7.9409
    SETDIJ:  cpu time    0.2893: real time    0.2904
    TRIAL :  cpu time    6.8580: real time    6.9140
    CORREC:  cpu time    9.6964: real time    9.7620
    CHARGE:  cpu time    0.7985: real time    0.8037
    --------------------------------------------
      LOOP:  cpu time   25.5820: real time   25.7725

 eigenvalue-minimisations  :     0
 total energy-change (2. order) :-0.1247076E-04  (-0.5173251E-05)
 number of electron     216.0000000 magnetization 
 augmentation part       -0.3938802 magnetization 

 Free energy of the ion-electron system (eV)
  ---------------------------------------------------
  alpha Z        PSCENC =        47.94900195
  Ewald energy   TEWEN  =     42826.26722571
  -Hartree energ DENC   =    -49808.98428009
  -exchange      EXHF   =         0.00000000
  -V(xc)+E(xc)   XCENC  =       429.25399652
  PAW double counting   =     93706.22897433   -93406.51870954
  entropy T*S    EENTRO =        -0.00000000
  eigenvalues    EBANDS =     -2666.90526491
  atomic energy  EATOM  =      8461.08393172
  ---------------------------------------------------
  free energy    TOTEN  =      -411.62512431 eV

  energy without entropy =     -411.62512431  energy(sigma->0) =     -411.62512431


--------------------------------------------------------------------------------------------------------




--------------------------------------- Iteration      1(  20)  ---------------------------------------


    POTLOK:  cpu time    7.8859: real time    7.9477
    SETDIJ:  cpu time    0.3068: real time    0.3082
    TRIAL :  cpu time    6.8795: real time    6.9371
    CORREC:  cpu time    9.7109: real time    9.7811
    CHARGE:  cpu time    0.7990: real time    0.8055
    --------------------------------------------
      LOOP:  cpu time   25.6381: real time   25.8373

 eigenvalue-minimisations  :     0
 total energy-change (2. order) :-0.5428286E-05  (-0.2206752E-05)
 number of electron     216.0000000 magnetization 
 augmentation part       -0.3938939 magnetization 

 Free energy of the ion-electron system (eV)
  ---------------------------------------------------
  alpha Z        PSCENC =        47.94900195
  Ewald energy   TEWEN  =     42826.26722571
  -Hartree energ DENC   =    -49809.00963164
  -exchange      EXHF   =         0.00000000
  -V(xc)+E(xc)   XCENC  =       429.25464781
  PAW double counting   =     93712.29010324   -93412.57968393
  entropy T*S    EENTRO =        -0.00000000
  eigenvalues    EBANDS =     -2666.88072460
  atomic energy  EATOM  =      8461.08393172
  ---------------------------------------------------
  free energy    TOTEN  =      -411.62512974 eV

  energy without entropy =     -411.62512974  energy(sigma->0) =     -411.62512974


--------------------------------------------------------------------------------------------------------




--------------------------------------- Iteration      1(  21)  ---------------------------------------


    POTLOK:  cpu time    7.9214: real time    7.9875
    SETDIJ:  cpu time    0.3056: real time    0.3067
    TRIAL :  cpu time    6.8728: real time    6.9250
    CORREC:  cpu time    9.7224: real time    9.7901
    CHARGE:  cpu time    0.8005: real time    0.8056
    --------------------------------------------
      LOOP:  cpu time   25.6485: real time   25.8679

 eigenvalue-minimisations  :     0
 total energy-change (2. order) :-0.2218512E-05  (-0.8704113E-06)
 number of electron     216.0000000 magnetization 
 augmentation part       -0.3938865 magnetization 

 Free energy of the ion-electron system (eV)
  ---------------------------------------------------
  alpha Z        PSCENC =        47.94900195
  Ewald energy   TEWEN  =     42826.26722571
  -Hartree energ DENC   =    -49809.00732686
  -exchange      EXHF   =         0.00000000
  -V(xc)+E(xc)   XCENC  =       429.25437423
  PAW double counting   =     93715.17037800   -93415.45989282
  entropy T*S    EENTRO =        -0.00000000
  eigenvalues    EBANDS =     -2666.88282388
  atomic energy  EATOM  =      8461.08393172
  ---------------------------------------------------
  free energy    TOTEN  =      -411.62513196 eV

  energy without entropy =     -411.62513196  energy(sigma->0) =     -411.62513196


--------------------------------------------------------------------------------------------------------




--------------------------------------- Iteration      1(  22)  ---------------------------------------


    POTLOK:  cpu time    7.8606: real time    7.9303
    SETDIJ:  cpu time    0.3226: real time    0.3238
    TRIAL :  cpu time    6.8654: real time    6.9225
    CORREC:  cpu time    9.7183: real time    9.7852
    CHARGE:  cpu time    0.7995: real time    0.8046
    --------------------------------------------
      LOOP:  cpu time   25.6348: real time   25.8396

 eigenvalue-minimisations  :     0
 total energy-change (2. order) :-0.8447969E-06  (-0.4040251E-06)
 number of electron     216.0000000 magnetization 
 augmentation part       -0.3938852 magnetization 

 Free energy of the ion-electron system (eV)
  ---------------------------------------------------
  alpha Z        PSCENC =        47.94900195
  Ewald energy   TEWEN  =     42826.26722571
  -Hartree energ DENC   =    -49809.00862335
  -exchange      EXHF   =         0.00000000
  -V(xc)+E(xc)   XCENC  =       429.25442707
  PAW double counting   =     93714.66599979   -93414.95562023
  entropy T*S    EENTRO =        -0.00000000
  eigenvalues    EBANDS =     -2666.88147546
  atomic energy  EATOM  =      8461.08393172
  ---------------------------------------------------
  free energy    TOTEN  =      -411.62513280 eV

  energy without entropy =     -411.62513280  energy(sigma->0) =     -411.62513280


--------------------------------------------------------------------------------------------------------




--------------------------------------- Iteration      1(  23)  ---------------------------------------


    POTLOK:  cpu time    7.8952: real time    7.9489
    SETDIJ:  cpu time    0.3194: real time    0.3205
    TRIAL :  cpu time    6.8646: real time    6.9184
    CORREC:  cpu time    9.6885: real time    9.7585
    CHARGE:  cpu time    0.8007: real time    0.8061
    --------------------------------------------
      LOOP:  cpu time   25.6262: real time   25.8125

 eigenvalue-minimisations  :     0
 total energy-change (2. order) :-0.3455934E-06  (-0.3506274E-06)
 number of electron     216.0000000 magnetization 
 augmentation part       -0.3938819 magnetization 

 Free energy of the ion-electron system (eV)
  ---------------------------------------------------
  alpha Z        PSCENC =        47.94900195
  Ewald energy   TEWEN  =     42826.26722571
  -Hartree energ DENC   =    -49808.99839447
  -exchange      EXHF   =         0.00000000
  -V(xc)+E(xc)   XCENC  =       429.25406797
  PAW double counting   =     93713.07831907   -93413.36795637
  entropy T*S    EENTRO =        -0.00000000
  eigenvalues    EBANDS =     -2666.89132871
  atomic energy  EATOM  =      8461.08393172
  ---------------------------------------------------
  free energy    TOTEN  =      -411.62513315 eV

  energy without entropy =     -411.62513315  energy(sigma->0) =     -411.62513315


--------------------------------------------------------------------------------------------------------




--------------------------------------- Iteration      1(  24)  ---------------------------------------


    POTLOK:  cpu time    7.8754: real time    7.9280
    SETDIJ:  cpu time    0.3189: real time    0.3200
    TRIAL :  cpu time    6.8611: real time    6.9129
    CORREC:  cpu time    9.6999: real time    9.7661
    CHARGE:  cpu time    0.7948: real time    0.8037
    --------------------------------------------
      LOOP:  cpu time   25.6114: real time   25.7940

 eigenvalue-minimisations  :     0
 total energy-change (2. order) : 0.1396256E-06  (-0.3390097E-06)
 number of electron     216.0000000 magnetization 
 augmentation part       -0.3938889 magnetization 

 Free energy of the ion-electron system (eV)
  ---------------------------------------------------
  alpha Z        PSCENC =        47.94900195
  Ewald energy   TEWEN  =     42826.26722571
  -Hartree energ DENC   =    -49808.99382143
  -exchange      EXHF   =         0.00000000
  -V(xc)+E(xc)   XCENC  =       429.25427005
  PAW double counting   =     93711.10852405   -93411.39827200
  entropy T*S    EENTRO =        -0.00000000
  eigenvalues    EBANDS =     -2666.89599305
  atomic energy  EATOM  =      8461.08393172
  ---------------------------------------------------
  free energy    TOTEN  =      -411.62513301 eV

  energy without entropy =     -411.62513301  energy(sigma->0) =     -411.62513301


--------------------------------------------------------------------------------------------------------




--------------------------------------- Iteration      1(  25)  ---------------------------------------


    POTLOK:  cpu time    7.9007: real time    7.9519
    SETDIJ:  cpu time    0.2919: real time    0.2928
    TRIAL :  cpu time    6.8633: real time    6.9188
    CORREC:  cpu time    9.7025: real time    9.7763
    CHARGE:  cpu time    0.7988: real time    0.8058
    --------------------------------------------
      LOOP:  cpu time   25.6107: real time   25.8080

 eigenvalue-minimisations  :     0
 total energy-change (2. order) :-0.2990273E-06  (-0.1008994E-06)
 number of electron     216.0000000 magnetization 
 augmentation part       -0.3938899 magnetization 

 Free energy of the ion-electron system (eV)
  ---------------------------------------------------
  alpha Z        PSCENC =        47.94900195
  Ewald energy   TEWEN  =     42826.26722571
  -Hartree energ DENC   =    -49808.98860368
  -exchange      EXHF   =         0.00000000
  -V(xc)+E(xc)   XCENC  =       429.25390035
  PAW double counting   =     93711.44112747   -93411.73078141
  entropy T*S    EENTRO =        -0.00000000
  eigenvalues    EBANDS =     -2666.90093541
  atomic energy  EATOM  =      8461.08393172
  ---------------------------------------------------
  free energy    TOTEN  =      -411.62513331 eV

  energy without entropy =     -411.62513331  energy(sigma->0) =     -411.62513331


--------------------------------------------------------------------------------------------------------




--------------------------------------- Iteration      1(  26)  ---------------------------------------


    POTLOK:  cpu time    7.8902: real time    7.9422
    SETDIJ:  cpu time    0.3135: real time    0.3145
    TRIAL :  cpu time    6.8530: real time    6.9124
    CORREC:  cpu time    9.6078: real time    9.6802
    CHARGE:  cpu time    0.8006: real time    0.8057
    --------------------------------------------
      LOOP:  cpu time   25.5019: real time   25.6928

 eigenvalue-minimisations  :     0
 total energy-change (2. order) :-0.9515497E-07  ( 0.4933532E-05)
 number of electron     216.0000000 magnetization 
 augmentation part       -0.3938904 magnetization 

 Free energy of the ion-electron system (eV)
  ---------------------------------------------------
  alpha Z        PSCENC =        47.94900195
  Ewald energy   TEWEN  =     42826.26722571
  -Hartree energ DENC   =    -49808.99181518
  -exchange      EXHF   =         0.00000000
  -V(xc)+E(xc)   XCENC  =       429.25400122
  PAW double counting   =     93711.98203388   -93412.27168048
  entropy T*S    EENTRO =        -0.00000000
  eigenvalues    EBANDS =     -2666.89783222
  atomic energy  EATOM  =      8461.08393172
  ---------------------------------------------------
  free energy    TOTEN  =      -411.62513340 eV

  energy without entropy =     -411.62513340  energy(sigma->0) =     -411.62513340


--------------------------------------------------------------------------------------------------------




--------------------------------------- Iteration      1(  27)  ---------------------------------------


    POTLOK:  cpu time    7.8879: real time    7.9474
    SETDIJ:  cpu time    0.3202: real time    0.3213
    TRIAL :  cpu time    6.8598: real time    6.9141
    CORREC:  cpu time    9.6934: real time    9.7666
    EDDIAG:  cpu time    1.1092: real time    1.1176
    CHARGE:  cpu time    0.7989: real time    0.8041
    --------------------------------------------
      LOOP:  cpu time   26.7220: real time   26.9277

 eigenvalue-minimisations  :     0
 total energy-change (2. order) :-0.7188646E-07  (-0.2247926E-07)
 number of electron     216.0000000 magnetization 
[...]
      9     -21.5354      2.00000
     10     -19.7052      2.00000
     11     -19.7052      2.00000
     12     -19.7049      2.00000
     13     -19.7043      2.00000
     14     -19.7039      2.00000
     15     -19.7037      2.00000
     16     -18.8144      2.00000
     17     -18.8143      2.00000
     18     -18.8139      2.00000
     19     -18.8136      2.00000
     20     -18.8130      2.00000
     21     -18.8127      2.00000
     22     -16.6715      2.00000
     23     -16.6712      2.00000
     24     -16.6704      2.00000
     25     -16.6702      2.00000
     26     -16.6698      2.00000
     27     -16.6697      2.00000
     28     -15.6779      2.00000
     29     -15.6778      2.00000
     30     -15.6769      2.00000
     31     -15.6768      2.00000
     32     -15.6764      2.00000
     33     -15.6763      2.00000
     34     -14.3395      2.00000
     35     -14.3394      2.00000
     36     -14.3388      2.00000
     37     -14.3386      2.00000
     38     -14.3386      2.00000
     39     -14.3384      2.00000
     40     -12.6144      2.00000
     41     -11.9864      2.00000
     42     -11.9861      2.00000
     43     -11.9857      2.00000
     44     -11.9856      2.00000
     45     -11.9846      2.00000
     46     -11.9843      2.00000
     47     -11.8753      2.00000
     48     -11.8752      2.00000
     49     -11.8745      2.00000
     50     -11.8745      2.00000
     51     -11.8742      2.00000
     52     -11.8741      2.00000
     53     -11.4722      2.00000
     54     -11.3794      2.00000
     55     -11.3791      2.00000
     56     -10.6337      2.00000
     57     -10.5114      2.00000
     58     -10.5113      2.00000
     59     -10.5097      2.00000
     60     -10.5094      2.00000
     61     -10.5092      2.00000
     62     -10.5091      2.00000
     63      -9.5191      2.00000
     64      -9.5189      2.00000
     65      -9.5187      2.00000
     66      -9.5177      2.00000
     67      -9.5172      2.00000
     68      -9.5171      2.00000
     69      -9.2707      2.00000
     70      -9.2701      2.00000
     71      -9.2696      2.00000
     72      -9.2695      2.00000
     73      -9.2691      2.00000
     74      -9.2689      2.00000
     75      -9.2113      2.00000
     76      -9.2111      2.00000
     77      -9.2105      2.00000
     78      -9.2104      2.00000
     79      -9.2102      2.00000
     80      -9.2093      2.00000
     81      -7.8554      2.00000
     82      -7.8551      2.00000
     83      -7.6344      2.00000
     84      -7.6328      2.00000
     85      -7.6326      2.00000
     86      -7.6322      2.00000
     87      -7.6312      2.00000
     88      -7.6311      2.00000
     89      -7.3929      2.00000
     90      -7.3925      2.00000
     91      -7.3924      2.00000
     92      -7.3920      2.00000
     93      -7.3919      2.00000
     94      -7.3917      2.00000
     95      -6.4984      2.00000
     96      -6.4981      2.00000
     97      -6.4977      2.00000
     98      -6.4974      2.00000
     99      -6.4972      2.00000
    100      -6.4970      2.00000
    101      -6.1724      2.00000
    102      -6.1703      2.00000
    103      -4.5203      2.00000
    104      -4.5200      2.00000
    105      -4.5195      2.00000
    106      -4.5195      2.00000
    107      -4.5186      2.00000
    108      -4.5184      2.00000
    109      -1.7246      0.00000
    110      -1.7243      0.00000
    111      -1.7238      0.00000
    112      -1.7235      0.00000
    113      -1.7231      0.00000
    114      -1.7228      0.00000
    115      -0.8906      0.00000
    116      -0.1512      0.00000
    117       0.1227      0.00000
    118       0.1327      0.00000
    119       0.1331      0.00000
    120       0.1336      0.00000
    121       0.1338      0.00000
    122       0.1339      0.00000
    123       0.1356      0.00000
    124       0.2004      0.00000
    125       0.2723      0.00000
    126       0.3021      0.00000
    127       0.5792      0.00000
    128       0.5862      0.00000
    129       0.5924      0.00000
    130       0.6337      0.00000
    131       0.6821      0.00000
    132       0.7893      0.00000
    133       1.0351      0.00000
    134       1.1598      0.00000
    135       1.2040      0.00000
    136       1.2156      0.00000
    137       1.2206      0.00000
    138       1.2353      0.00000
    139       1.2456      0.00000
    140       1.3456      0.00000
    141       1.6739      0.00000
    142       1.6817      0.00000
    143       1.6982      0.00000
    144       1.7132      0.00000
    145       1.7384      0.00000
    146       1.8634      0.00000
    147       1.8637      0.00000
    148       1.8641      0.00000
    149       1.8645      0.00000
    150       1.8646      0.00000
    151       1.8650      0.00000
    152       1.9066      0.00000
    153       2.0358      0.00000
    154       2.1531      0.00000
    155       2.1658      0.00000
    156       2.1767      0.00000
    157       2.1863      0.00000
    158       2.1973      0.00000
    159       2.2903      0.00000
    160       2.3581      0.00000
    161       2.3835      0.00000
    162       2.5959      0.00000
    163       3.2108      0.00000
    164       3.9606      0.00000
    165       4.5248      0.00000
    166       4.5366      0.00000
    167       4.5509      0.00000
    168       4.5591      0.00000


--------------------------------------------------------------------------------------------------------


 soft charge-density along one line, spin component           1
         0         1         2         3         4         5         6         7         8         9
 total charge-density along one line
 
 pseudopotential strength for first ion, spin component:           1
 12.687  21.351   0.000   0.000   0.000   0.000   0.000   0.000
 21.351  35.929   0.000   0.000   0.000   0.000   0.000   0.000
  0.000   0.000  -3.244  -0.000   0.000  -5.814  -0.000   0.000
  0.000   0.000  -0.000  -3.251  -0.000  -0.000  -5.828  -0.000
  0.000   0.000   0.000  -0.000  -3.244   0.000  -0.000  -5.814
  0.000   0.000  -5.814  -0.000   0.000 -10.398  -0.000   0.000
  0.000   0.000  -0.000  -5.828  -0.000  -0.000 -10.422  -0.000
  0.000   0.000   0.000  -0.000  -5.814   0.000  -0.000 -10.398
 total augmentation occupancy for first ion, spin component:           1
  6.917  -2.317  -0.000  -0.002  -0.000   0.000   0.001   0.000
 -2.317   0.818   0.000   0.001   0.000  -0.000  -0.000  -0.000
 -0.000   0.000   6.628  -0.007   0.000  -2.167   0.003  -0.000
 -0.002   0.001  -0.007   2.819  -0.000   0.003  -0.689   0.000
 -0.000   0.000   0.000  -0.000   6.627  -0.000   0.000  -2.167
  0.000  -0.000  -2.167   0.003  -0.000   0.725  -0.001   0.000
  0.001  -0.000   0.003  -0.689   0.000  -0.001   0.176  -0.000
  0.000  -0.000  -0.000   0.000  -2.167   0.000  -0.000   0.724


------------------------ aborting loop because EDIFF is reached ----------------------------------------


    FORLOC:  cpu time    0.1329: real time    0.1338
    FORNL :  cpu time    3.5927: real time    3.6227
    FORCOR:  cpu time    7.8904: real time    7.9447
    OFIELD:  cpu time    0.0031: real time    0.0031

 VOLUME and BASIS-vectors are now :
 -----------------------------------------------------------------------------
  energy-cutoff  :     1000.00
  volume of cell :     3288.85
      direct lattice vectors                 reciprocal lattice vectors
    12.325000000  0.000000000  0.000000000     0.081135903  0.046843835  0.000000000
    -6.162500000 10.673763102  0.000000000     0.000000000  0.093687670  0.000000000
     0.000000000  0.000000000 25.000000000     0.000000000  0.000000000  0.040000000

  length of vectors
    12.325000000 12.325000000 25.000000000     0.093687670  0.093687670  0.040000000


 FORCES acting on ions:
    Electron-Ion                     Ewald-Force                    Non-Local-Force
 -----------------------------------------------------------------------------------------------
   0.174E+01 0.151E+01 0.193E+02   -.174E+01 -.151E+01 -.193E+02   0.558E-02 -.778E-03 0.669E-02
   0.244E+01 0.122E+01 0.211E+02   -.244E+01 -.122E+01 -.211E+02   0.470E-02 -.343E-02 -.541E-02
   0.999E+00 0.272E+01 0.218E+02   -.100E+01 -.272E+01 -.218E+02   -.353E-03 0.130E-01 0.858E-03
   0.127E+01 0.184E+01 0.254E+02   -.127E+01 -.184E+01 -.254E+02   0.128E-01 0.122E-02 -.120E-01
   0.187E+01 0.457E+00 0.197E+02   -.187E+01 -.457E+00 -.197E+02   0.460E-03 -.603E-02 0.286E-02
   0.191E+01 -.403E+00 0.199E+02   -.191E+01 0.404E+00 -.199E+02   -.612E-02 0.294E-02 -.378E-02
   0.245E+01 0.928E+00 0.249E+02   -.245E+01 -.927E+00 -.249E+02   0.137E-01 -.198E-01 -.489E-02
   0.241E+01 -.841E+00 0.261E+02   -.242E+01 0.846E+00 -.261E+02   -.491E-02 -.655E-02 -.545E-02
   -.121E+01 0.250E+01 0.221E+02   0.122E+01 -.251E+01 -.221E+02   -.152E-02 -.113E-01 -.485E-02
   -.171E+01 0.145E+01 0.254E+02   0.171E+01 -.145E+01 -.254E+02   -.275E-01 0.161E-01 0.385E-02
   0.493E+00 -.508E+00 0.184E+02   -.490E+00 0.508E+00 -.184E+02   0.326E-02 -.267E-02 -.695E-03
   0.451E+00 -.380E+00 0.180E+02   -.450E+00 0.379E+00 -.180E+02   -.745E-02 0.359E-02 0.546E-02
   0.884E+00 -.198E+01 0.273E+02   -.886E+00 0.198E+01 -.273E+02   0.282E-01 -.905E-02 -.955E-03
   0.533E+00 -.278E+01 0.233E+02   -.538E+00 0.278E+01 -.232E+02   0.508E-02 0.523E-02 -.162E-01
   -.171E+01 0.104E+01 0.192E+02   0.172E+01 -.104E+01 -.192E+02   0.706E-02 -.358E-02 0.649E-02
   -.225E+01 0.663E+00 0.199E+02   0.225E+01 -.664E+00 -.199E+02   -.272E-02 0.591E-02 -.569E-02
   -.316E+00 -.125E+00 0.175E+02   0.320E+00 0.123E+00 -.175E+02   -.114E-02 0.682E-03 0.183E-02
   0.140E+00 0.108E+01 0.178E+02   -.138E+00 -.108E+01 -.178E+02   -.350E-02 0.204E-02 0.937E-02
   -.441E+00 -.267E+01 0.211E+02   0.440E+00 0.267E+01 -.211E+02   0.690E-02 -.261E-02 0.871E-03
   -.251E+00 -.160E+01 0.187E+02   0.247E+00 0.160E+01 -.187E+02   0.769E-03 -.170E-02 -.827E-03
   0.246E+01 -.108E+01 0.221E+02   -.246E+01 0.108E+01 -.221E+02   -.553E-03 -.304E-02 -.177E-01
   0.171E+01 -.139E+01 0.205E+02   -.171E+01 0.139E+01 -.205E+02   -.644E-02 0.507E-02 -.328E-02
   -.447E+00 0.814E+00 0.280E+02   0.444E+00 -.813E+00 -.280E+02   -.109E-01 0.110E-01 0.439E-02
   -.603E+00 -.128E+01 0.278E+02   0.605E+00 0.128E+01 -.278E+02   0.125E-01 -.157E-01 -.748E-02
   0.931E+00 -.351E+00 0.185E+02   -.928E+00 0.349E+00 -.185E+02   0.318E-02 -.243E-02 -.410E-02
   0.239E+00 0.805E+00 0.184E+02   -.238E+00 -.805E+00 -.184E+02   -.579E-02 0.386E-02 0.497E-02
   -.276E+01 0.356E+00 0.228E+02   0.276E+01 -.359E+00 -.228E+02   0.987E-02 0.859E-02 -.192E-02
   -.263E+01 -.105E+01 0.220E+02   0.263E+01 0.105E+01 -.221E+02   -.102E-01 0.945E-02 0.194E-02
   0.982E+00 -.198E+01 0.208E+02   -.982E+00 0.198E+01 -.208E+02   0.536E-02 0.168E-02 -.768E-02
   0.847E-01 -.869E+00 0.190E+02   -.873E-01 0.870E+00 -.190E+02   -.436E-02 0.232E-02 -.309E-02
   -.189E+01 -.194E+01 0.238E+02   0.189E+01 0.194E+01 -.238E+02   -.128E-01 -.850E-02 -.106E-01
   -.135E+01 -.253E+01 0.212E+02   0.135E+01 0.253E+01 -.212E+02   0.712E-03 -.234E-02 0.334E-02
   0.118E+00 0.508E+00 0.179E+02   -.119E+00 -.508E+00 -.179E+02   0.565E-02 -.486E-02 0.674E-02
   0.314E+00 0.480E+00 0.183E+02   -.317E+00 -.479E+00 -.183E+02   -.202E-02 0.438E-02 -.171E-02
   -.118E+01 0.208E+00 0.187E+02   0.118E+01 -.209E+00 -.187E+02   0.378E-02 -.221E-02 0.537E-02
   -.105E+01 -.465E+00 0.186E+02   0.105E+01 0.464E+00 -.186E+02   -.480E-02 0.266E-02 0.337E-02
   -.200E+01 -.106E+01 0.193E+02   0.201E+01 0.106E+01 -.193E+02   -.230E-02 0.109E-02 0.357E-02
   -.132E+01 -.105E+01 0.183E+02   0.132E+01 0.105E+01 -.184E+02   -.470E-02 0.129E-02 0.931E-02
   -.119E+01 -.152E+01 0.188E+02   0.119E+01 0.152E+01 -.188E+02   -.355E-02 -.114E-03 0.535E-02
   -.181E+00 -.409E+00 0.179E+02   0.181E+00 0.409E+00 -.179E+02   0.207E-02 0.319E-03 0.768E-02
   0.449E+00 0.113E+01 0.180E+02   -.450E+00 -.113E+01 -.180E+02   -.413E-02 0.224E-02 0.729E-02
   0.136E+01 0.210E+01 0.195E+02   -.136E+01 -.211E+01 -.195E+02   0.101E-03 -.318E-03 0.856E-02
   0.138E+00 0.187E+01 0.185E+02   -.133E+00 -.187E+01 -.185E+02   -.102E-02 0.167E-02 0.212E-02
   -.289E-01 0.278E+01 0.208E+02   0.311E-01 -.279E+01 -.208E+02   -.900E-02 0.293E-02 0.588E-02
   -.356E+00 0.670E+00 0.187E+02   0.358E+00 -.672E+00 -.187E+02   0.376E-02 -.272E-02 0.610E-03
   -.133E+01 0.164E+01 0.198E+02   0.133E+01 -.165E+01 -.198E+02   -.694E-02 0.887E-03 -.220E-02
   -.339E+00 -.815E+00 0.185E+02   0.338E+00 0.815E+00 -.185E+02   0.683E-02 -.157E-02 0.541E-02
   -.733E+00 0.265E+00 0.179E+02   0.731E+00 -.264E+00 -.179E+02   -.321E-02 0.314E-02 -.373E-02
   0.777E-01 -.505E+00 0.179E+02   -.787E-01 0.506E+00 -.179E+02   0.471E-02 -.334E-02 0.586E-02
   0.802E+00 0.571E+00 0.179E+02   -.805E+00 -.569E+00 -.179E+02   0.646E-03 0.146E-02 0.324E-02
   0.543E-02 0.186E-01 -.256E+03   -.906E-02 -.153E-01 0.256E+03   -.291E-02 0.197E-02 -.195E-02
   -.229E+03 0.156E+03 -.397E+03   0.279E+03 -.190E+03 0.400E+03   -.513E+02 0.349E+02 -.345E+01
   0.229E+03 -.156E+03 -.375E+03   -.279E+03 0.190E+03 0.372E+03   0.513E+02 -.349E+02 0.309E+01
 -----------------------------------------------------------------------------------------------
   -.688E-02 0.136E-01 0.350E+00   0.114E-12 -.114E-12 0.455E-12   0.665E-02 -.136E-01 -.349E+00
 
 
 POSITION                                       TOTAL-FORCE (eV/Angst)
 -----------------------------------------------------------------------------------
     11.98348      0.00342      0.01417         0.003088     -0.001653     -0.000889
     -0.34154      1.42665      0.01100        -0.001050      0.000034     -0.003470
      2.12355      0.00315      0.01249        -0.001796      0.010422     -0.006264
      2.12326      1.42653      0.00641         0.013236      0.001133     -0.007782
     10.75099      2.13819      0.01213         0.000343     -0.005541     -0.000087
     -1.57382      3.56123      0.01110        -0.008823      0.004716     -0.001557
      0.89078      2.13854      0.00548         0.009265     -0.018867      0.002708
      0.89099      3.56147      0.00181        -0.012132     -0.002213      0.012103
      4.58864      0.00346      0.01135         0.003867     -0.015970     -0.003492
      4.58894      1.42623      0.00646        -0.023059      0.012963      0.014091
      9.51854      4.27281      0.01369         0.006612     -0.003064      0.000233
     -2.80632      5.69591      0.01434        -0.006416      0.003351      0.000795
      2.12300      4.27302      0.00000         0.024607     -0.004752      0.020729
      2.12335      5.69594      0.00581        -0.000828      0.009354     -0.002443
      7.05344      0.00333      0.01399         0.009192     -0.005217     -0.000236
      7.05353      1.42635      0.01368        -0.001502      0.004747     -0.003681
      8.28610      6.40752      0.01601         0.003077     -0.001516     -0.000695
     -4.03885      7.83070      0.01636        -0.002144      0.000866     -0.000018
      3.35586      6.40753      0.01007         0.005351      0.000622     -0.001322
      3.35599      7.83072      0.01320        -0.003292      0.000169     -0.000632
     -0.34146      4.27290      0.00723        -0.002004     -0.001257     -0.004389
     -0.34138      5.69591      0.00946        -0.009026      0.006423     -0.001169
      3.35624      2.13791      0.00222        -0.013563      0.011813      0.016545
      3.35573      3.56155      0.00139         0.013580     -0.015712      0.009031
     -1.57395      6.40758      0.01311         0.005450     -0.003962     -0.000615
     -1.57385      7.83068      0.01438        -0.004706      0.003707      0.000120
      5.82093      2.13784      0.01033         0.016260      0.004993     -0.002802
      5.82114      3.56097      0.01156        -0.006118      0.008462     -0.003669
      0.89092      6.40755      0.00907         0.004362      0.002282     -0.002322
      0.89106      7.83068      0.01235        -0.006830      0.003848      0.000307
      4.58871      4.27293      0.00850        -0.012712     -0.006207     -0.010464
      4.58852      5.69606      0.01149         0.002022     -0.000972     -0.004012
      9.51845      0.00337      0.01490         0.004661     -0.004582      0.000267
      9.51855      1.42644      0.01438        -0.005128      0.005412     -0.000258
      8.28593      2.13803      0.01453         0.006683     -0.003390      0.000671
      8.28613      3.56115      0.01464        -0.004217      0.002125      0.000068
      7.05356      4.27269      0.01457         0.002909     -0.001093     -0.000405
      7.05362      5.69588      0.01553        -0.002407      0.001548      0.000025
      5.82112      6.40755      0.01489        -0.002857      0.001663      0.000059
      5.82102      7.83073      0.01579         0.002709      0.000296     -0.000168
      7.05363      8.54227      0.01631        -0.004626      0.001168      0.001177
     -5.27149      9.96549      0.01495         0.000087     -0.002131     -0.001937
     -2.80638      8.54234      0.01558         0.003289     -0.001567     -0.001018
     -2.80627      9.96553      0.01362        -0.006618     -0.000237     -0.003690
     -0.34149      8.54239      0.01378         0.005757     -0.004874      0.000253
     -0.34138      9.96550      0.01354        -0.005652     -0.000135     -0.001160
      2.12343      8.54232      0.01336         0.005754     -0.001523      0.000762
      2.12354      9.96544      0.01469        -0.005199      0.003817     -0.001780
      4.58846      8.54235      0.01505         0.003639     -0.002759      0.001077
      4.58853      9.96550      0.01517        -0.002918      0.003336      0.000271
      3.04930      2.68154      6.67420        -0.006508      0.005229      0.029811
      4.02070      2.02068      6.73862        -0.659353      0.448195     -0.061326
      2.07767      3.34267      6.61474         0.665681     -0.453503      0.022646
 -----------------------------------------------------------------------------------
    total drift:                               -0.000227     -0.000033      0.001505


--------------------------------------------------------------------------------------------------------



  FREE ENERGIE OF THE ION-ELECTRON SYSTEM (eV)
  ---------------------------------------------------
  free  energy   TOTEN  =      -411.62513347 eV

  energy  without entropy=     -411.62513347  energy(sigma->0) =     -411.62513347
 


--------------------------------------------------------------------------------------------------------


    POTLOK:  cpu time    8.4620: real time    8.5213


--------------------------------------------------------------------------------------------------------


 writing wavefunctions
     LOOP+:  cpu time  718.1765: real time  724.2229
    4ORBIT:  cpu time    0.0000: real time    0.0000

 total amount of memory used by VASP MPI-rank0   551512. kBytes
=======================================================================

   base      :      30000. kBytes
   nonl-proj :     230539. kBytes
   fftplans  :      40716. kBytes
   grid      :     216018. kBytes
   one-center:        162. kBytes
   wavefun   :      34077. kBytes
 
  
  
 General timing and accounting informations for this job:
 ========================================================
  
                  Total CPU time used (sec):      763.396
                            User time (sec):      722.354
                          System time (sec):       41.042
                         Elapsed time (sec):      770.598
  
                   Maximum memory used (kb):     1324856.
                   Average memory used (kb):          N/A
  
                          Minor page faults:       449879
                          Major page faults:          103
                 Voluntary context switches:         3810
