 vasp.6.2.1 16May21 (build Nov 06 2021 14:46:37) complex                        
  
 executed on             LinuxIFC date 2025.04.16  17:35:25
 running on  112 total cores
 distrk:  each k-point on   56 cores,    2 groups
 distr:  one band on NCORE=   1 cores,   56 groups


--------------------------------------------------------------------------------------------------------


 INCAR:
   ALGO = Conjugate
   KPAR = 2
   NCORE = 32
   ISMEAR = 0
   SIGMA = 0.01
   PREC = Accurate
   EDIFF = 1E-7
   ENCUT = 1000
   ISIF = 0
   GGA = BO
   PARAM1 = 0.1833333333
   PARAM2 = 0.2200000000
   LUSE_VDW = .TRUE.
   AGGAC = 0.0000
   LASPH = .TRUE.
   SYMPREC = 1E-7

 POTCAR:    PAW_PBE C_h 06Feb2004                 
 POTCAR:    PAW_PBE O_h 06Feb2004                 
 -----------------------------------------------------------------------------
|                                                                             |
|           W    W    AA    RRRRR   N    N  II  N    N   GGGG   !!!           |
|           W    W   A  A   R    R  NN   N  II  NN   N  G    G  !!!           |
|           W    W  A    A  R    R  N N  N  II  N N  N  G       !!!           |
|           W WW W  AAAAAA  RRRRR   N  N N  II  N  N N  G  GGG   !            |
|           WW  WW  A    A  R   R   N   NN  II  N   NN  G    G                |
|           W    W  A    A  R    R  N    N  II  N    N   GGGG   !!!           |
|                                                                             |
|     The value NCORE = 32 specified in the INCAR file was overwritten,       |
|     because it was not compatible with the 56 processes available:          |
|     NCORE = 1                                                               |
|     was used instead, please check that this makes sense for your           |
|     machine.                                                                |
|                                                                             |
 -----------------------------------------------------------------------------

 -----------------------------------------------------------------------------
|                                                                             |
|           W    W    AA    RRRRR   N    N  II  N    N   GGGG   !!!           |
|           W    W   A  A   R    R  NN   N  II  NN   N  G    G  !!!           |
|           W    W  A    A  R    R  N N  N  II  N N  N  G       !!!           |
|           W WW W  AAAAAA  RRRRR   N  N N  II  N  N N  G  GGG   !            |
|           WW  WW  A    A  R   R   N   NN  II  N   NN  G    G                |
|           W    W  A    A  R    R  N    N  II  N    N   GGGG   !!!           |
|                                                                             |
|     For optimal performance we recommend to set                             |
|       NCORE = 2 up to number-of-cores-per-socket                            |
|     NCORE specifies how many cores store one orbital (NPAR=cpu/NCORE).      |
|     This setting can greatly improve the performance of VASP for DFT.       |
|     The default, NCORE=1 might be grossly inefficient on modern             |
|     multi-core architectures or massively parallel machines. Do your        |
|     own testing! More info at https://www.vasp.at/wiki/index.php/NCORE      |
|     Unfortunately you need to use the default for GW and RPA                |
|     calculations (for HF NCORE is supported but not extensively tested      |
|     yet).                                                                   |
|                                                                             |
 -----------------------------------------------------------------------------

 -----------------------------------------------------------------------------
|                                                                             |
|               ----> ADVICE to this user running VASP <----                  |
|                                                                             |
|     You have switched on vdW-DFT.                                           |
|     This routine was written and supplied by Jiri Klimes. We recommend      |
|     that you carefully read and cite the following publications:            |
|       J. Klimes, D.R. Bowler, A. Michelides                                 |
|          J. Phys.: Cond Matt. 22 022201 (2010)                              |
|       J. Klimes, D.R. Bowler, A. Michelides                                 |
|          Phys. Rev. B. 83, 195131 (2011)                                    |
|     and references therein.                                                 |
|                                                                             |
 -----------------------------------------------------------------------------

 POTCAR:    PAW_PBE C_h 06Feb2004                 
   VRHFIN =C: s2p2                                                                                  
   LEXCH  = PE                                                                                      
   EATOM  =   147.1560 eV,   10.8157 Ry                                                             
                                                                                                    
   TITEL  = PAW_PBE C_h 06Feb2004                                                                   
   LULTRA =        F    use ultrasoft PP ?                                                          
   IUNSCR =        1    unscreen: 0-lin 1-nonlin 2-no                                               
   RPACOR =    0.800    partial core radius                                                         
   POMASS =   12.011; ZVAL   =    4.000    mass and valenz                                          
   RCORE  =    1.100    outmost cutoff radius                                                       
   RWIGS  =    1.630; RWIGS  =    0.863    wigner-seitz radius (au A)                               
   ENMAX  =  700.000; ENMIN  =  500.000 eV                                                          
   ICORE  =        2    local potential                                                             
   LCOR   =        T    correct aug charges                                                         
   LPAW   =        T    paw PP                                                                      
   EAUG   =  946.768                                                                                
   DEXC   =    0.000                                                                                
   RMAX   =    1.128    core radius for proj-oper                                                   
   RAUG   =    1.300    factor for augmentation sphere                                              
   RDEP   =    1.162    radius for radial grids                                                     
   RDEPT  =    1.088    core radius for aug-charge                                                  
                                                                                                    
   Atomic configuration                                                                             
    4 entries                                                                                       
     n  l   j            E        occ.                                                              
     1  0  0.50      -273.3789   2.0000                                                             
     2  0  0.50       -13.7508   2.0000                                                             
     2  1  0.50        -5.2854   2.0000                                                             
     3  2  1.50        -5.4423   0.0000                                                             
   Description                                                                                      
     l       E           TYP  RCUT    TYP  RCUT                                                     
     0    -13.7508458     23  1.100                                                                 
     0     -8.2022199     23  1.100                                                                 
     1     -5.2854383     23  1.100                                                                 
     1      1.1560700     23  1.100                                                                 
     2     -5.4423304      7  1.100                                                                 
  local pseudopotential read in
  partial core-charges read in
  partial kinetic energy density read in
  atomic valenz-charges read in
  non local Contribution for L=           0  read in
    real space projection operators read in
  non local Contribution for L=           0  read in
    real space projection operators read in
  non local Contribution for L=           1  read in
    real space projection operators read in
  non local Contribution for L=           1  read in
    real space projection operators read in
    PAW grid and wavefunctions read in
 
   number of l-projection  operators is LMAX  =           4
   number of lm-projection operators is LMMAX =           8
 
 POTCAR:    PAW_PBE O_h 06Feb2004                 
   VRHFIN =O: s2p4                                                                                  
   LEXCH  = PE                                                                                      
   EATOM  =   432.3788 eV,   31.7789 Ry                                                             
                                                                                                    
   TITEL  = PAW_PBE O_h 06Feb2004                                                                   
   LULTRA =        F    use ultrasoft PP ?                                                          
   IUNSCR =        1    unscreen: 0-lin 1-nonlin 2-no                                               
   RPACOR =    0.800    partial core radius                                                         
   POMASS =   16.000; ZVAL   =    6.000    mass and valenz                                          
   RCORE  =    1.100    outmost cutoff radius                                                       
   RWIGS  =    1.400; RWIGS  =    0.741    wigner-seitz radius (au A)                               
   ENMAX  =  700.000; ENMIN  =  500.000 eV                                                          
   ICORE  =        2    local potential                                                             
   LCOR   =        T    correct aug charges                                                         
   LPAW   =        T    paw PP                                                                      
   EAUG   =  888.804                                                                                
   DEXC   =    0.000                                                                                
   RMAX   =    1.128    core radius for proj-oper                                                   
   RAUG   =    1.300    factor for augmentation sphere                                              
   RDEP   =    1.125    radius for radial grids                                                     
   RDEPT  =    1.088    core radius for aug-charge                                                  
                                                                                                    
   Atomic configuration                                                                             
    4 entries                                                                                       
     n  l   j            E        occ.                                                              
     1  0  0.50      -514.6923   2.0000                                                             
     2  0  0.50       -23.9615   2.0000                                                             
     2  1  0.50        -9.0305   4.0000                                                             
     3  2  1.50        -9.5241   0.0000                                                             
   Description                                                                                      
     l       E           TYP  RCUT    TYP  RCUT                                                     
     0    -23.9615319     23  1.100                                                                 
     0    -25.3221145     23  1.100                                                                 
     1     -9.0304911     23  1.100                                                                 
     1     -5.4802209     23  1.100                                                                 
     2     -9.5240782      7  1.100                                                                 
  local pseudopotential read in
  partial core-charges read in
  partial kinetic energy density read in
  atomic valenz-charges read in
  non local Contribution for L=           0  read in
    real space projection operators read in
  non local Contribution for L=           0  read in
    real space projection operators read in
  non local Contribution for L=           1  read in
    real space projection operators read in
  non local Contribution for L=           1  read in
    real space projection operators read in
    PAW grid and wavefunctions read in
 
   number of l-projection  operators is LMAX  =           4
   number of lm-projection operators is LMMAX =           8
 
 -----------------------------------------------------------------------------
|                                                                             |
|               ----> ADVICE to this user running VASP <----                  |
|                                                                             |
|     You have a (more or less) 'large supercell' and for larger cells it     |
|     might be more efficient to use real-space projection operators.         |
|     Therefore, try LREAL= Auto in the INCAR file.                           |
|     Mind: For very accurate calculation, you might also keep the            |
|     reciprocal projection scheme (i.e. LREAL=.FALSE.).                      |
|                                                                             |
 -----------------------------------------------------------------------------

 -----------------------------------------------------------------------------
|                                                                             |
|               ----> ADVICE to this user running VASP <----                  |
|                                                                             |
|     You enforced a specific xc type in the INCAR file but a different       |
|     type was found in the POTCAR file.                                      |
|     I HOPE YOU KNOW WHAT YOU ARE DOING!                                     |
|                                                                             |
 -----------------------------------------------------------------------------

  PAW_PBE C_h 06Feb2004                 :
 energy of atom  1       EATOM= -147.1560
 kinetic energy error for atom=    0.0031 (will be added to EATOM!!)
  PAW_PBE O_h 06Feb2004                 :
 energy of atom  2       EATOM= -432.3788
 kinetic energy error for atom=    0.0171 (will be added to EATOM!!)
 
 
 POSCAR:  C  O
  positions in cartesian coordinates
  No initial velocities read in
 exchange correlation table for  LEXCH =       42
   RHO(1)=    0.500       N(1)  =     2000
   RHO(2)=  100.500       N(2)  =     4000
 


--------------------------------------------------------------------------------------------------------


 ion  position               nearest neighbor table
   1  0.972  0.000  0.001-  50 1.42   2 1.42  42 1.42
   2  0.039  0.134  0.000-   5 1.42   7 1.42   1 1.42
   3  0.172  0.000  0.000-  42 1.42  44 1.42   4 1.42
   4  0.239  0.134  0.000-   7 1.42   3 1.42  23 1.42
   5  0.972  0.200  0.000-   6 1.42   2 1.42  34 1.42
   6  0.039  0.334  0.000-   5 1.42  21 1.42  11 1.42
   7  0.172  0.200  0.000-   8 1.42   2 1.42   4 1.42
   8  0.239  0.334  0.000-  13 1.42   7 1.42  21 1.42
   9  0.372  0.000  0.000-  10 1.42  44 1.42  46 1.42
  10  0.439  0.134  0.000-  27 1.42   9 1.42  23 1.42
  11  0.972  0.400  0.001-  12 1.42  36 1.42   6 1.42
  12  0.039  0.534  0.001-  25 1.42  11 1.42  17 1.42
  13  0.372  0.400  0.000-   8 1.42  14 1.42  24 1.42
  14  0.439  0.534  0.000-  13 1.42  29 1.42  19 1.42
  15  0.572  0.000  0.001-  46 1.42  16 1.42  48 1.42
  16  0.639  0.134  0.001-  15 1.42  35 1.42  27 1.42
  17  0.972  0.600  0.001-  38 1.42  18 1.42  12 1.42
  18  0.039  0.734  0.001-  43 1.42  41 1.42  17 1.42
  19  0.572  0.600  0.000-  14 1.42  20 1.42  32 1.42
  20  0.639  0.734  0.001-  49 1.42  19 1.42  47 1.42
  21  0.172  0.400  0.000-  22 1.42   8 1.42   6 1.42
  22  0.239  0.534  0.000-  21 1.42  29 1.42  25 1.42
  23  0.372  0.200  0.000-  10 1.42   4 1.42  24 1.42
  24  0.439  0.334  0.000-  13 1.42  31 1.42  23 1.42
  25  0.172  0.600  0.001-  26 1.42  12 1.42  22 1.42
  26  0.239  0.734  0.001-  25 1.42  45 1.42  43 1.42
  27  0.572  0.200  0.000-  10 1.42  28 1.42  16 1.42
  28  0.639  0.334  0.000-  27 1.42  37 1.42  31 1.42
  29  0.372  0.600  0.000-  22 1.42  14 1.42  30 1.42
  30  0.439  0.734  0.000-  47 1.42  29 1.42  45 1.42
  31  0.572  0.400  0.000-  32 1.42  28 1.42  24 1.42
  32  0.639  0.534  0.000-  31 1.42  39 1.42  19 1.42
  33  0.772  0.000  0.001-  34 1.42  48 1.42  50 1.42
  34  0.839  0.134  0.001-  33 1.42   5 1.42  35 1.42
  35  0.772  0.200  0.001-  36 1.42  16 1.42  34 1.42
  36  0.839  0.334  0.001-  35 1.42  11 1.42  37 1.42
  37  0.772  0.400  0.001-  28 1.42  38 1.42  36 1.42
  38  0.839  0.534  0.001-  17 1.42  37 1.42  39 1.42
  39  0.772  0.600  0.001-  40 1.42  38 1.42  32 1.42
  40  0.839  0.734  0.001-  39 1.42  49 1.42  41 1.42
  41  0.972  0.800  0.001-  18 1.42  42 1.42  40 1.42
  42  0.039  0.934  0.001-   3 1.42  41 1.42   1 1.42
  43  0.172  0.800  0.001-  18 1.42  44 1.42  26 1.42
  44  0.239  0.934  0.001-   9 1.42  43 1.42   3 1.42
  45  0.372  0.800  0.001-  26 1.42  46 1.42  30 1.42
  46  0.439  0.934  0.001-  15 1.42  45 1.42   9 1.42
  47  0.572  0.800  0.001-  30 1.42  48 1.42  20 1.42
  48  0.639  0.934  0.001-  47 1.42  33 1.42  15 1.42
  49  0.772  0.800  0.001-  50 1.42  20 1.42  40 1.42
  50  0.839  0.934  0.001-  49 1.42   1 1.42  33 1.42
  51  0.373  0.251  0.126-  52 1.18  53 1.18
  52  0.421  0.189  0.129-  51 1.18
  53  0.325  0.313  0.124-  51 1.18
 
  LATTYP: Found a hexagonal cell.
 ALAT       =    12.3250000000
 C/A-ratio  =     2.0283975659
  
  Lattice vectors:
  
 A1 = (  12.3250000000,   0.0000000000,   0.0000000000)
 A2 = (  -6.1625000000,  10.6737631016,   0.0000000000)
 A3 = (   0.0000000000,   0.0000000000,  25.0000000000)


Analysis of symmetry for initial positions (statically):
=====================================================================
 Subroutine PRICEL returns:
 Original cell was already a primitive cell.
 

 Routine SETGRP: Setting up the symmetry group for a 
 hexagonal supercell.


 Subroutine GETGRP returns: Found  1 space group operations
 (whereof  1 operations were pure point group operations)
 out of a pool of 24 trial point group operations.


The static configuration has the point symmetry C_1 .


Analysis of symmetry for dynamics (positions and initial velocities):
=====================================================================
 Subroutine PRICEL returns:
 Original cell was already a primitive cell.
 

 Routine SETGRP: Setting up the symmetry group for a 
 hexagonal supercell.


 Subroutine GETGRP returns: Found  1 space group operations
 (whereof  1 operations were pure point group operations)
 out of a pool of 24 trial point group operations.


The dynamic configuration has the point symmetry C_1 .


 Subroutine INISYM returns: Found  1 space group operations
 (whereof  1 operations are pure point group operations),
 and found     1 'primitive' translations


----------------------------------------------------------------------------------------

                                     Primitive cell                                     

  volume of cell :    3288.8533

  direct lattice vectors                    reciprocal lattice vectors
    12.325000000  0.000000000  0.000000000     0.081135903  0.046843835  0.000000000
    -6.162500000 10.673763102  0.000000000     0.000000000  0.093687670  0.000000000
     0.000000000  0.000000000 25.000000000     0.000000000  0.000000000  0.040000000

  length of vectors
    12.325000000 12.325000000 25.000000000     0.093687670  0.093687670  0.040000000

  position of ions in fractional coordinates (direct lattice)
     0.972450841  0.000320818  0.000566711
     0.039118382  0.133659505  0.000440173
     0.172443627  0.000295449  0.000499628
     0.239096278  0.133647917  0.000256468
     0.972452058  0.200322012  0.000485219
     0.039128360  0.333643771  0.000444150
     0.172451764  0.200354552  0.000219167
     0.239124359  0.333665720  0.000072260
     0.372465565  0.000324403  0.000453913
     0.439137473  0.133619939  0.000258338
     0.972449824  0.400309362  0.000547611
     0.039124981  0.533636789  0.000573410
     0.372416176  0.400329481  0.000000000
     0.439099602  0.533638981  0.000232414
     0.572443676  0.000312125  0.000559580
     0.639110207  0.133631751  0.000547275
     0.972452703  0.600305653  0.000640289
     0.039124495  0.733640359  0.000654513
     0.572433471  0.600306242  0.000402895
     0.639111888  0.733641879  0.000527905
     0.172454630  0.400318228  0.000289045
     0.239120185  0.533636548  0.000378509
     0.372459750  0.200295993  0.000088997
     0.439107096  0.333673419  0.000055762
     0.172452155  0.600311506  0.000524340
     0.239123371  0.733638574  0.000575129
     0.572431082  0.200289171  0.000413296
     0.639112773  0.333618630  0.000462376
     0.372439808  0.600308022  0.000362844
     0.439116090  0.733637858  0.000494190
     0.572469358  0.400320504  0.000339918
     0.639119408  0.533650873  0.000459610
     0.772445723  0.000315427  0.000596161
     0.839116277  0.133640203  0.000575306
     0.772440513  0.200307432  0.000581033
     0.839120241  0.333635728  0.000585467
     0.772446320  0.400298367  0.000582978
     0.839118980  0.533633964  0.000621100
     0.772456143  0.600308173  0.000595712
     0.839115033  0.733643180  0.000631512
     0.972455313  0.800305582  0.000652233
     0.039114714  0.933643289  0.000598051
     0.172457971  0.800312211  0.000623372
     0.239134551  0.933647193  0.000544850
     0.372451396  0.800316674  0.000551399
     0.439124489  0.933644769  0.000541430
     0.572441101  0.800310054  0.000534535
     0.639115067  0.933638985  0.000587644
     0.772445098  0.800313187  0.000602062
     0.839116614  0.933644338  0.000606830
     0.373021009  0.251226878  0.125992105
     0.420879805  0.189313152  0.128568979
     0.325156981  0.313167186  0.123613910

  ion indices of the primitive-cell ions
   primitive index   ion index
                 1           1
                 2           2
                 3           3
                 4           4
                 5           5
                 6           6
                 7           7
                 8           8
                 9           9
                10          10
                11          11
                12          12
                13          13
                14          14
                15          15
                16          16
                17          17
                18          18
                19          19
                20          20
                21          21
                22          22
                23          23
                24          24
                25          25
                26          26
                27          27
                28          28
                29          29
                30          30
                31          31
                32          32
                33          33
                34          34
                35          35
                36          36
                37          37
                38          38
                39          39
                40          40
                41          41
                42          42
                43          43
                44          44
                45          45
                46          46
                47          47
                48          48
                49          49
                50          50
                51          51
                52          52
                53          53

----------------------------------------------------------------------------------------

 
 
 KPOINTS: auto                                    

Automatic generation of k-mesh.
 Grid dimensions read from file:
 generate k-points for:    1    1    1

 Generating k-lattice:

  Cartesian coordinates                     Fractional coordinates (reciprocal lattice)
     0.081135903  0.046843835  0.000000000     1.000000000 -0.000000000  0.000000000
     0.000000000  0.093687670  0.000000000     0.000000000  1.000000000  0.000000000
     0.000000000  0.000000000  0.040000000     0.000000000  0.000000000  1.000000000

  Length of vectors
     0.093687670  0.093687670  0.040000000

  Shift w.r.t. Gamma in fractional coordinates (k-lattice)
     0.000000000  0.000000000  0.000000000

 
 Subroutine IBZKPT returns following result:
 ===========================================
 
 Found      1 irreducible k-points:
 
 Following reciprocal coordinates:
            Coordinates               Weight
  0.000000  0.000000  0.000000      1.000000
 
 Following cartesian coordinates:
            Coordinates               Weight
  0.000000  0.000000  0.000000      1.000000
 


--------------------------------------------------------------------------------------------------------




 Dimension of arrays:
   k-points           NKPTS =      1   k-points in BZ     NKDIM =      1   number of bands    NBANDS=    168
   number of dos      NEDOS =    301   number of ions     NIONS =     53
   non local maximal  LDIM  =      4   non local SUM 2l+1 LMDIM =      8
   total plane-waves  NPLWV = ******
   max r-space proj   IRMAX =      1   max aug-charges    IRDMAX=  10008
   dimension x,y,z NGX =   128 NGY =  128 NGZ =  270
   dimension x,y,z NGXF=   256 NGYF=  256 NGZF=  540
   support grid    NGXF=   256 NGYF=  256 NGZF=  540
   ions per type =              51   2
   NGX,Y,Z   is equivalent  to a cutoff of  17.27, 17.27, 17.95 a.u.
   NGXF,Y,Z  is equivalent  to a cutoff of  34.53, 34.53, 35.91 a.u.

 SYSTEM =  unknown system                          
 POSCAR =   C  O                                   

 Startparameter for this run:
   NWRITE =      2    write-flag & timer
   PREC   = accura    normal or accurate (medium, high low for compatibility)
   ISTART =      0    job   : 0-new  1-cont  2-samecut
   ICHARG =      2    charge: 1-file 2-atom 10-const
   ISPIN  =      1    spin polarized calculation?
   LNONCOLLINEAR =      F non collinear calculations
   LSORBIT =      F    spin-orbit coupling
   INIWAV =      1    electr: 0-lowe 1-rand  2-diag
   LASPH  =      T    aspherical Exc in radial PAW
 Electronic Relaxation 1
   ENCUT  = 1000.0 eV  73.50 Ry    8.57 a.u.  31.78 31.78 64.46*2*pi/ulx,y,z
   ENINI  = 1000.0     initial cutoff
   ENAUG  =  946.8 eV  augmentation charge cutoff
   NELM   =     60;   NELMIN=  2; NELMDL= -5     # of ELM steps 
   EDIFF  = 0.1E-06   stopping-criterion for ELM
   LREAL  =      F    real-space projection
   NLSPLINE    = F    spline interpolate recip. space projectors
   LCOMPAT=      F    compatible to vasp.4.4
   GGA_COMPAT  = T    GGA compatible to vasp.4.4-vasp.4.6
   LMAXPAW     = -100 max onsite density
   LMAXMIX     =    2 max onsite mixed and CHGCAR
   VOSKOWN=      0    Vosko Wilk Nusair interpolation
   ROPT   =    0.00000   0.00000
 Ionic relaxation
   EDIFFG = 0.1E-05   stopping-criterion for IOM
   NSW    =      0    number of steps for IOM
   NBLOCK =      1;   KBLOCK =      1    inner block; outer block 
   IBRION =     -1    ionic relax: 0-MD 1-quasi-New 2-CG
   NFREE  =      0    steps in history (QN), initial steepest desc. (CG)
   ISIF   =      0    stress and relaxation
   IWAVPR =     10    prediction:  0-non 1-charg 2-wave 3-comb
   ISYM   =      2    0-nonsym 1-usesym 2-fastsym
   LCORR  =      T    Harris-Foulkes like correction to forces

   POTIM  = 0.5000    time-step for ionic-motion
   TEIN   =    0.0    initial temperature
   TEBEG  =    0.0;   TEEND  =   0.0 temperature during run
   SMASS  =  -3.00    Nose mass-parameter (am)
   estimated Nose-frequenzy (Omega)   =  0.10E-29 period in steps = 0.13E+47 mass=  -0.347E-26a.u.
   SCALEE = 1.0000    scale energy and forces
   NPACO  =    256;   APACO  = 16.0  distance and # of slots for P.C.
   PSTRESS=    0.0 pullay stress

  Mass of Ions in am
   POMASS =  12.01 16.00
  Ionic Valenz
   ZVAL   =   4.00  6.00
  Atomic Wigner-Seitz radii
   RWIGS  =  -1.00 -1.00
  virtual crystal weights 
   VCA    =   1.00  1.00
   NELECT =     216.0000    total number of electrons
   NUPDOWN=      -1.0000    fix difference up-down

 DOS related values:
   EMIN   =  10.00;   EMAX   =-10.00  energy-range for DOS
   EFERMI =   0.00
   ISMEAR =     0;   SIGMA  =   0.01  broadening in eV -4-tet -1-fermi 0-gaus

 Electronic relaxation 2 (details)
   IALGO  =     58    algorithm
   LDIAG  =      T    sub-space diagonalisation (order eigenvalues)
   LSUBROT=      F    optimize rotation matrix (better conditioning)
   TURBO    =      0    0=normal 1=particle mesh
   IRESTART =      0    0=no restart 2=restart with 2 vectors
   NREBOOT  =      0    no. of reboots
   NMIN     =      0    reboot dimension
   EREF     =   0.00    reference energy to select bands
   IMIX   =      4    mixing-type and parameters
     AMIX     =   0.40;   BMIX     =  1.00
     AMIX_MAG =   1.60;   BMIX_MAG =  1.00
     AMIN     =   0.10
     WC   =   100.;   INIMIX=   1;  MIXPRE=   1;  MAXMIX= -45

 Intra band minimization:
   WEIMIN = 0.0000     energy-eigenvalue tresh-hold
   EBREAK =  0.15E-09  absolut break condition
   DEPER  =   0.30     relativ break condition  

   TIME   =   0.40     timestep for ELM

  volume/ion in A,a.u.               =      62.05       418.76
  Fermi-wavevector in a.u.,A,eV,Ry     =   0.660508  1.248179  5.935820  0.436270
  Thomas-Fermi vector in A             =   1.732977
 
 Write flags
   LWAVE        =      T    write WAVECAR
   LDOWNSAMPLE  =      F    k-point downsampling of WAVECAR
   LCHARG       =      T    write CHGCAR
   LVTOT        =      F    write LOCPOT, total local potential
   LVHAR        =      F    write LOCPOT, Hartree potential only
   LELF         =      F    write electronic localiz. function (ELF)
   LORBIT       =      0    0 simple, 1 ext, 2 COOP (PROOUT), +10 PAW based schemes


 Dipole corrections
   LMONO  =      F    monopole corrections only (constant potential shift)
   LDIPOL =      F    correct potential (dipole corrections)
   IDIPOL =      0    1-x, 2-y, 3-z, 4-all directions 
   EPSILON=  1.0000000 bulk dielectric constant

 Exchange correlation treatment:
   GGA     =    BO    GGA type
   LEXCH   =    42    internal setting for exchange type
   VOSKOWN=      0    Vosko Wilk Nusair interpolation
   LHFCALC =     F    Hartree Fock is set to
   LHFONE  =     F    Hartree Fock one center treatment
   AEXX    =    0.0000 exact exchange contribution

 vdW DFT:
   LUSE_VDW   =     T    switch on vdW DFT
   Zab_VDW    =-.8491    correlation parameter
   PARAM1     =0.1833
   PARAM2     =0.2200
   PARAM3     =0.0000
   -- rVV10 --
   BPARAM     = 6.3000
   CPARAM     = 0.0093

 Linear response parameters
   LEPSILON=     F    determine dielectric tensor
   LRPA    =     F    only Hartree local field effects (RPA)
   LNABLA  =     F    use nabla operator in PAW spheres
   LVEL    =     F    velocity operator in full k-point grid
   LINTERFAST=   F  fast interpolation
   KINTER  =     0    interpolate to denser k-point grid
   CSHIFT  =0.1000    complex shift for real part using Kramers Kronig
   OMEGAMAX=  -1.0    maximum frequency
   DEG_THRESHOLD= 0.2000000E-02 threshold for treating states as degnerate
   RTIME   =   -0.100 relaxation time in fs
  (WPLASMAI=    0.000 imaginary part of plasma frequency in eV, 0.658/RTIME)
   DFIELD  = 0.0000000 0.0000000 0.0000000 field for delta impulse in time
 
 Orbital magnetization related:
   ORBITALMAG=     F  switch on orbital magnetization
   LCHIMAG   =     F  perturbation theory with respect to B field
   DQ        =  0.001000  dq finite difference perturbation B field
   LLRAUG    =     F  two centre corrections for induced B field



--------------------------------------------------------------------------------------------------------


 Static calculation
 charge density and potential will be updated during run
 non-spin polarized calculation
 Conjugate gradient for all bands (Freysoldt, et al. PRB 79, 241103 (2009))
 preconditioned conjugated gradient                                        
 perform sub-space diagonalisation
    before iterative eigenvector-optimisation
 modified Broyden-mixing scheme, WC =      100.0
 initial mixing is a Kerker type mixing with AMIX =  0.4000 and BMIX =      1.0000
 Hartree-type preconditioning will be used
 using additional bands           60
 reciprocal scheme for non local part
 use partial core corrections
 no Harris-corrections to forces 
 use gradient corrections 
 use of overlap-Matrix (Vanderbilt PP)
 Gauss-broadening in eV      SIGMA  =   0.01


--------------------------------------------------------------------------------------------------------


  energy-cutoff  :     1000.00
  volume of cell :     3288.85
      direct lattice vectors                 reciprocal lattice vectors
    12.325000000  0.000000000  0.000000000     0.081135903  0.046843835  0.000000000
    -6.162500000 10.673763102  0.000000000     0.000000000  0.093687670  0.000000000
     0.000000000  0.000000000 25.000000000     0.000000000  0.000000000  0.040000000

  length of vectors
    12.325000000 12.325000000 25.000000000     0.093687670  0.093687670  0.040000000


 
 k-points in units of 2pi/SCALE and weight: auto                                    
   0.00000000  0.00000000  0.00000000       1.000
 
 k-points in reciprocal lattice and weights: auto                                    
   0.00000000  0.00000000  0.00000000       1.000
 
 position of ions in fractional coordinates (direct lattice) 
   0.97245084  0.00032082  0.00056671
   0.03911838  0.13365950  0.00044017
   0.17244363  0.00029545  0.00049963
   0.23909628  0.13364792  0.00025647
   0.97245206  0.20032201  0.00048522
   0.03912836  0.33364377  0.00044415
   0.17245176  0.20035455  0.00021917
   0.23912436  0.33366572  0.00007226
   0.37246557  0.00032440  0.00045391
   0.43913747  0.13361994  0.00025834
   0.97244982  0.40030936  0.00054761
   0.03912498  0.53363679  0.00057341
   0.37241618  0.40032948  0.00000000
   0.43909960  0.53363898  0.00023241
   0.57244368  0.00031213  0.00055958
   0.63911021  0.13363175  0.00054727
   0.97245270  0.60030565  0.00064029
   0.03912449  0.73364036  0.00065451
   0.57243347  0.60030624  0.00040289
   0.63911189  0.73364188  0.00052791
   0.17245463  0.40031823  0.00028904
   0.23912018  0.53363655  0.00037851
   0.37245975  0.20029599  0.00008900
   0.43910710  0.33367342  0.00005576
   0.17245216  0.60031151  0.00052434
   0.23912337  0.73363857  0.00057513
   0.57243108  0.20028917  0.00041330
   0.63911277  0.33361863  0.00046238
   0.37243981  0.60030802  0.00036284
   0.43911609  0.73363786  0.00049419
   0.57246936  0.40032050  0.00033992
   0.63911941  0.53365087  0.00045961
   0.77244572  0.00031543  0.00059616
   0.83911628  0.13364020  0.00057531
   0.77244051  0.20030743  0.00058103
   0.83912024  0.33363573  0.00058547
   0.77244632  0.40029837  0.00058298
   0.83911898  0.53363396  0.00062110
   0.77245614  0.60030817  0.00059571
   0.83911503  0.73364318  0.00063151
   0.97245531  0.80030558  0.00065223
   0.03911471  0.93364329  0.00059805
   0.17245797  0.80031221  0.00062337
   0.23913455  0.93364719  0.00054485
   0.37245140  0.80031667  0.00055140
   0.43912449  0.93364477  0.00054143
   0.57244110  0.80031005  0.00053453
   0.63911507  0.93363899  0.00058764
   0.77244510  0.80031319  0.00060206
   0.83911661  0.93364434  0.00060683
   0.37302101  0.25122688  0.12599210
   0.42087980  0.18931315  0.12856898
   0.32515698  0.31316719  0.12361391
 
 position of ions in cartesian coordinates  (Angst):
  11.98347958  0.00342433  0.01416777
  -0.34154264  1.42664989  0.01100432
   2.12354700  0.00315355  0.01249070
   2.12325634  1.42652621  0.00641170
  10.75098721  2.13818970  0.01213047
  -1.57382270  3.56123457  0.01110375
   0.89078307  2.13853702  0.00547917
   0.89099273  3.56146885  0.00180651
   4.58863896  0.00346260  0.01134782
   4.58893648  1.42622757  0.00645846
   9.51853763  4.27280730  0.01369027
  -2.80632132  5.69591267  0.01433526
   2.12299894  4.27302204  0.00000000
   2.12335237  5.69593607  0.00581036
   7.05344483  0.00333155  0.01398950
   7.05352764  1.42635365  0.01368187
   8.28609598  6.40752033  0.01600723
  -4.03884931  7.83070339  0.01636283
   3.35585531  6.40752662  0.01007237
   3.35598594  7.83071962  0.01319763
  -0.34145776  4.27290193  0.00722612
  -0.34137895  5.69591010  0.00946273
   3.35624236  2.13791198  0.00222492
   3.35573251  3.56155103  0.00139405
  -1.57394684  6.40758280  0.01310850
  -1.57385216  7.83068434  0.01437823
   5.82093107  2.13783916  0.01033241
   5.82114012  3.56096622  0.01155939
   0.89092245  6.40754561  0.00907111
   0.89106251  7.83067670  0.01235474
   4.58870974  4.27292622  0.00849795
   4.58852320  5.69606300  0.01149026
   9.51844972  0.00336679  0.01490402
   9.51855036  1.42644387  0.01438264
   8.28593477  2.13803408  0.01452582
   8.28612680  3.56114872  0.01463668
   7.05356221  4.27268994  0.01457444
   7.05362213  5.69588251  0.01552751
   5.82112285  6.40754723  0.01489279
   5.82101669  7.83073350  0.01578780
   7.05362858  8.54227219  0.01630582
  -5.27148792  9.96548729  0.01495127
  -2.80637951  8.54234295  0.01558431
  -2.80626749  9.96552896  0.01362126
  -0.34148805  8.54239058  0.01378498
  -0.34137657  9.96550309  0.01353576
   2.12342586  8.54231992  0.01336337
   2.12354296  9.96544135  0.01469111
   4.58845581  8.54235337  0.01505154
   4.58852904  9.96549848  0.01517076
   3.04929830  2.68153618  3.14980262
   4.02070129  2.02068374  3.21422448
   2.07766701  3.34267235  3.09034775
 


--------------------------------------------------------------------------------------------------------


 k-point   1 :   0.0000 0.0000 0.0000  plane waves:  236157

 maximum and minimum number of plane-waves per node :    236157   236157

 maximum number of plane-waves:    236157
 maximum index in each direction: 
   IXMAX=   31   IYMAX=   31   IZMAX=   64
   IXMIN=  -31   IYMIN=  -31   IZMIN=  -64


 serial   3D FFT for wavefunctions
 parallel 3D FFT for charge:
    minimum data exchange during FFTs selected (reduces bandwidth)


 total amount of memory used by VASP MPI-rank0   551512. kBytes
=======================================================================

   base      :      30000. kBytes
   nonl-proj :     230539. kBytes
   fftplans  :      40716. kBytes
   grid      :     216018. kBytes
   one-center:        162. kBytes
   wavefun   :      34077. kBytes
 
     INWAV:  cpu time    0.0000: real time    0.0000
 Broyden mixing: mesh for mixing (old mesh)
   NGX = 63   NGY = 63   NGZ =129
  (NGX  =256   NGY  =256   NGZ  =540)
  gives a total of 512001 points

 initial charge density was supplied:
 charge density of overlapping atoms calculated
 number of electron     216.0000000 magnetization 
 keeping initial charge density in first step


--------------------------------------------------------------------------------------------------------


 Maximum index for augmentation-charges          471 (set IRDMAX)


--------------------------------------------------------------------------------------------------------


 First call to EWALD:  gamma=   0.119
 Maximum number of real-space cells 4x 4x 2
 Maximum number of reciprocal cells 2x 2x 4

    FEWALD:  cpu time    0.0046: real time    0.0046


--------------------------------------- Iteration      1(   1)  ---------------------------------------


vdW kernel read from vdw_kernel.bindat
  0.0000  0.2424  0.5071  0.7962  1.1119  1.4567  1.8333  2.2446  2.6937  3.1842
  3.7199  4.3049  4.9438  5.6415  6.4036  7.2358  8.1446  9.1372 10.2212 11.4050
 12.6979 14.1099 15.6519 17.3360 19.1751 21.1837 23.3773 25.7729 28.3892 31.2465
 34.3669 37.7748 41.4965 45.5611 50.0000
 
    POTLOK:  cpu time    8.2894: real time    8.3489
    SETDIJ:  cpu time    0.5422: real time    0.5441
    TRIAL :  cpu time   15.3155: real time   15.4299
    CORREC:  cpu time    0.0006: real time    0.0009
    --------------------------------------------
      LOOP:  cpu time   24.1558: real time   24.3544

 eigenvalue-minimisations  :   336
 total energy-change (2. order) : 0.2653410E+04  (-0.1071915E+05)
 number of electron     216.0000000 magnetization 
 augmentation part      216.0000000 magnetization 

 Free energy of the ion-electron system (eV)
  ---------------------------------------------------
  alpha Z        PSCENC =        47.94900195
  Ewald energy   TEWEN  =     47538.22437387
  -Hartree energ DENC   =    -53606.79122026
  -exchange      EXHF   =         0.00000000
  -V(xc)+E(xc)   XCENC  =       398.40915051
  PAW double counting   =      6564.79108649    -6260.84737255
  entropy T*S    EENTRO =        -0.00000651
  eigenvalues    EBANDS =      -489.40864864
  atomic energy  EATOM  =      8461.08393172
  ---------------------------------------------------
  free energy    TOTEN  =      2653.41029658 eV

  energy without entropy =     2653.41030309  energy(sigma->0) =     2653.41029983


--------------------------------------------------------------------------------------------------------




--------------------------------------- Iteration      1(   2)  ---------------------------------------


    TRIAL :  cpu time   22.9497: real time   23.1656
    CORREC:  cpu time    0.0001: real time    0.0001
    --------------------------------------------
      LOOP:  cpu time   23.0290: real time   23.2466

 eigenvalue-minimisations  :   560
 total energy-change (2. order) :-0.2391258E+04  (-0.2220829E+04)
 number of electron     216.0000000 magnetization 
 augmentation part      216.0000000 magnetization 

 Free energy of the ion-electron system (eV)
  ---------------------------------------------------
  alpha Z        PSCENC =        47.94900195
  Ewald energy   TEWEN  =     47538.22437387
  -Hartree energ DENC   =    -53606.79122026
  -exchange      EXHF   =         0.00000000
  -V(xc)+E(xc)   XCENC  =       398.40915051
  PAW double counting   =      6564.79108649    -6260.84737255
  entropy T*S    EENTRO =        -0.00000000
  eigenvalues    EBANDS =     -2880.66661616
  atomic energy  EATOM  =      8461.08393172
  ---------------------------------------------------
  free energy    TOTEN  =       262.15233557 eV

  energy without entropy =      262.15233557  energy(sigma->0) =      262.15233557


--------------------------------------------------------------------------------------------------------




--------------------------------------- Iteration      1(   3)  ---------------------------------------


    TRIAL :  cpu time   19.1150: real time   19.2610
    CORREC:  cpu time    0.0001: real time    0.0001
    --------------------------------------------
      LOOP:  cpu time   19.1416: real time   19.2904

 eigenvalue-minimisations  :   448
 total energy-change (2. order) :-0.6815339E+03  (-0.6787036E+03)
 number of electron     216.0000000 magnetization 
 augmentation part      216.0000000 magnetization 

 Free energy of the ion-electron system (eV)
  ---------------------------------------------------
  alpha Z        PSCENC =        47.94900195
  Ewald energy   TEWEN  =     47538.22437387
  -Hartree energ DENC   =    -53606.79122026
  -exchange      EXHF   =         0.00000000
  -V(xc)+E(xc)   XCENC  =       398.40915051
  PAW double counting   =      6564.79108649    -6260.84737255
  entropy T*S    EENTRO =        -0.00000000
  eigenvalues    EBANDS =     -3562.20051118
  atomic energy  EATOM  =      8461.08393172
  ---------------------------------------------------
  free energy    TOTEN  =      -419.38155946 eV

  energy without entropy =     -419.38155946  energy(sigma->0) =     -419.38155946


--------------------------------------------------------------------------------------------------------




--------------------------------------- Iteration      1(   4)  ---------------------------------------


    TRIAL :  cpu time   19.1402: real time   19.2849
    CORREC:  cpu time    0.0001: real time    0.0003
    --------------------------------------------
      LOOP:  cpu time   19.2005: real time   19.3494

 eigenvalue-minimisations  :   448
 total energy-change (2. order) :-0.2600417E+02  (-0.2585995E+02)
 number of electron     216.0000000 magnetization 
 augmentation part      216.0000000 magnetization 

 Free energy of the ion-electron system (eV)
  ---------------------------------------------------
  alpha Z        PSCENC =        47.94900195
  Ewald energy   TEWEN  =     47538.22437387
  -Hartree energ DENC   =    -53606.79122026
  -exchange      EXHF   =         0.00000000
  -V(xc)+E(xc)   XCENC  =       398.40915051
  PAW double counting   =      6564.79108649    -6260.84737255
  entropy T*S    EENTRO =        -0.00000000
  eigenvalues    EBANDS =     -3588.20468049
  atomic energy  EATOM  =      8461.08393172
  ---------------------------------------------------
  free energy    TOTEN  =      -445.38572876 eV

  energy without entropy =     -445.38572876  energy(sigma->0) =     -445.38572876


--------------------------------------------------------------------------------------------------------




--------------------------------------- Iteration      1(   5)  ---------------------------------------


    TRIAL :  cpu time   17.2124: real time   17.3421
    CORREC:  cpu time    0.0001: real time    0.0001
    CHARGE:  cpu time    0.8082: real time    0.8140
    --------------------------------------------
      LOOP:  cpu time   18.0573: real time   18.1968

 eigenvalue-minimisations  :   392
 total energy-change (2. order) :-0.8578261E+00  (-0.8565337E+00)
 number of electron     216.0000000 magnetization 
 augmentation part       -0.2203197 magnetization 

 Free energy of the ion-electron system (eV)
  ---------------------------------------------------
  alpha Z        PSCENC =        47.94900195
  Ewald energy   TEWEN  =     47538.22437387
  -Hartree energ DENC   =    -53606.79122026
  -exchange      EXHF   =         0.00000000
  -V(xc)+E(xc)   XCENC  =       398.40915051
  PAW double counting   =      6564.79108649    -6260.84737255
  entropy T*S    EENTRO =        -0.00000000
  eigenvalues    EBANDS =     -3589.06250658
  atomic energy  EATOM  =      8461.08393172
  ---------------------------------------------------
  free energy    TOTEN  =      -446.24355485 eV

  energy without entropy =     -446.24355485  energy(sigma->0) =     -446.24355485


--------------------------------------------------------------------------------------------------------




--------------------------------------- Iteration      1(   6)  ---------------------------------------


    POTLOK:  cpu time    7.8808: real time    7.9428
    SETDIJ:  cpu time    0.6649: real time    0.6678
    TRIAL :  cpu time    6.8805: real time    6.9330
    CORREC:  cpu time   10.0864: real time   10.1508
    CHARGE:  cpu time    0.7984: real time    0.8034
    --------------------------------------------
      LOOP:  cpu time   26.3424: real time   26.5302

 eigenvalue-minimisations  :     0
 total energy-change (2. order) : 0.5487671E+02  (-0.1756077E+02)
 number of electron     216.0000000 magnetization 
 augmentation part       -0.3319651 magnetization 

 Free energy of the ion-electron system (eV)
  ---------------------------------------------------
  alpha Z        PSCENC =        47.94900195
  Ewald energy   TEWEN  =     47538.22437387
  -Hartree energ DENC   =    -55085.87416201
  -exchange      EXHF   =         0.00000000
  -V(xc)+E(xc)   XCENC  =       447.99920894
  PAW double counting   =     71567.09252467   -71271.30133995
  entropy T*S    EENTRO =        -0.00000000
  eigenvalues    EBANDS =     -2096.54038036
  atomic energy  EATOM  =      8461.08393172
  ---------------------------------------------------
  free energy    TOTEN  =      -391.36684116 eV

  energy without entropy =     -391.36684116  energy(sigma->0) =     -391.36684116


--------------------------------------------------------------------------------------------------------




--------------------------------------- Iteration      1(   7)  ---------------------------------------


    POTLOK:  cpu time    7.8842: real time    7.9390
    SETDIJ:  cpu time    0.6287: real time    0.6311
    TRIAL :  cpu time    6.8650: real time    6.9230
    CORREC:  cpu time   10.0605: real time   10.1242
    CHARGE:  cpu time    0.7996: real time    0.8046
    --------------------------------------------
      LOOP:  cpu time   26.3005: real time   26.4901

 eigenvalue-minimisations  :     0
 total energy-change (2. order) :-0.1760074E+02  (-0.1957005E+01)
 number of electron     216.0000000 magnetization 
 augmentation part       -0.3801131 magnetization 

 Free energy of the ion-electron system (eV)
  ---------------------------------------------------
  alpha Z        PSCENC =        47.94900195
  Ewald energy   TEWEN  =     47538.22437387
  -Hartree energ DENC   =    -54549.23684653
  -exchange      EXHF   =         0.00000000
  -V(xc)+E(xc)   XCENC  =       430.15761443
  PAW double counting   =     86527.21539726   -86228.18566855
  entropy T*S    EENTRO =        -0.00000000
  eigenvalues    EBANDS =     -2636.17538689
  atomic energy  EATOM  =      8461.08393172
  ---------------------------------------------------
  free energy    TOTEN  =      -408.96758273 eV

  energy without entropy =     -408.96758273  energy(sigma->0) =     -408.96758273


--------------------------------------------------------------------------------------------------------




--------------------------------------- Iteration      1(   8)  ---------------------------------------


    POTLOK:  cpu time    7.9032: real time    7.9575
    SETDIJ:  cpu time    0.6473: real time    0.6496
    TRIAL :  cpu time    6.8659: real time    6.9219
    CORREC:  cpu time   10.0780: real time   10.1452
    CHARGE:  cpu time    0.7956: real time    0.8008
    --------------------------------------------
      LOOP:  cpu time   26.3412: real time   26.5304

 eigenvalue-minimisations  :     0
 total energy-change (2. order) :-0.1957522E+01  (-0.5575656E+00)
 number of electron     216.0000000 magnetization 
 augmentation part       -0.3949210 magnetization 

 Free energy of the ion-electron system (eV)
  ---------------------------------------------------
  alpha Z        PSCENC =        47.94900195
  Ewald energy   TEWEN  =     47538.22437387
  -Hartree energ DENC   =    -54525.72152422
  -exchange      EXHF   =         0.00000000
  -V(xc)+E(xc)   XCENC  =       429.58796136
  PAW double counting   =     91009.39950402   -90709.93911904
  entropy T*S    EENTRO =        -0.00000000
  eigenvalues    EBANDS =     -2661.50923435
  atomic energy  EATOM  =      8461.08393172
  ---------------------------------------------------
  free energy    TOTEN  =      -410.92510469 eV

  energy without entropy =     -410.92510469  energy(sigma->0) =     -410.92510469


--------------------------------------------------------------------------------------------------------




--------------------------------------- Iteration      1(   9)  ---------------------------------------


    POTLOK:  cpu time    7.8622: real time    7.9139
    SETDIJ:  cpu time    0.7527: real time    0.7557
    TRIAL :  cpu time    6.8591: real time    6.9161
    CORREC:  cpu time   10.0477: real time   10.1157
    CHARGE:  cpu time    0.8117: real time    0.8170
    --------------------------------------------
      LOOP:  cpu time   26.4192: real time   26.6062

 eigenvalue-minimisations  :     0
 total energy-change (2. order) :-0.5572563E+00  (-0.2113173E+00)
 number of electron     216.0000000 magnetization 
 augmentation part       -0.3994688 magnetization 

 Free energy of the ion-electron system (eV)
  ---------------------------------------------------
  alpha Z        PSCENC =        47.94900195
  Ewald energy   TEWEN  =     47538.22437387
  -Hartree energ DENC   =    -54537.06614471
  -exchange      EXHF   =         0.00000000
  -V(xc)+E(xc)   XCENC  =       429.66464970
  PAW double counting   =     94139.23957470   -93839.58384229
  entropy T*S    EENTRO =        -0.00000000
  eigenvalues    EBANDS =     -2650.99390589
  atomic energy  EATOM  =      8461.08393172
  ---------------------------------------------------
  free energy    TOTEN  =      -411.48236096 eV

  energy without entropy =     -411.48236096  energy(sigma->0) =     -411.48236096


--------------------------------------------------------------------------------------------------------




--------------------------------------- Iteration      1(  10)  ---------------------------------------


    POTLOK:  cpu time    7.8927: real time    7.9499
    SETDIJ:  cpu time    0.6498: real time    0.6523
    TRIAL :  cpu time    6.8645: real time    6.9182
    CORREC:  cpu time   10.0525: real time   10.1298
    CHARGE:  cpu time    0.7967: real time    0.8019
    --------------------------------------------
      LOOP:  cpu time   26.2850: real time   26.4812

 eigenvalue-minimisations  :     0
 total energy-change (2. order) :-0.2106627E+00  (-0.9237167E-01)
 number of electron     216.0000000 magnetization 
 augmentation part       -0.3971187 magnetization 

 Free energy of the ion-electron system (eV)
  ---------------------------------------------------
  alpha Z        PSCENC =        47.94900195
  Ewald energy   TEWEN  =     47538.22437387
  -Hartree energ DENC   =    -54533.50374855
  -exchange      EXHF   =         0.00000000
  -V(xc)+E(xc)   XCENC  =       429.51395730
  PAW double counting   =     94901.45340799   -94601.68739602
  entropy T*S    EENTRO =        -0.00000000
  eigenvalues    EBANDS =     -2654.72655191
  atomic energy  EATOM  =      8461.08393172
  ---------------------------------------------------
  free energy    TOTEN  =      -411.69302363 eV

  energy without entropy =     -411.69302363  energy(sigma->0) =     -411.69302363


--------------------------------------------------------------------------------------------------------




--------------------------------------- Iteration      1(  11)  ---------------------------------------


    POTLOK:  cpu time    7.9136: real time    7.9717
    SETDIJ:  cpu time    0.6404: real time    0.6426
    TRIAL :  cpu time    6.8559: real time    6.9165
    CORREC:  cpu time   10.0369: real time   10.1095
    CHARGE:  cpu time    0.7996: real time    0.8045
    --------------------------------------------
      LOOP:  cpu time   26.3251: real time   26.5240

 eigenvalue-minimisations  :     0
 total energy-change (2. order) :-0.9194564E-01  (-0.3466624E-01)
 number of electron     216.0000000 magnetization 
 augmentation part       -0.3948381 magnetization 

 Free energy of the ion-electron system (eV)
  ---------------------------------------------------
  alpha Z        PSCENC =        47.94900195
  Ewald energy   TEWEN  =     47538.22437387
  -Hartree energ DENC   =    -54525.45520646
  -exchange      EXHF   =         0.00000000
  -V(xc)+E(xc)   XCENC  =       429.39778280
  PAW double counting   =     94481.55113793   -94181.78873014
  entropy T*S    EENTRO =        -0.00000000
  eigenvalues    EBANDS =     -2662.74726094
  atomic energy  EATOM  =      8461.08393172
  ---------------------------------------------------
  free energy    TOTEN  =      -411.78496927 eV

  energy without entropy =     -411.78496927  energy(sigma->0) =     -411.78496927


--------------------------------------------------------------------------------------------------------




--------------------------------------- Iteration      1(  12)  ---------------------------------------


    POTLOK:  cpu time    7.8749: real time    7.9358
    SETDIJ:  cpu time    0.6754: real time    0.6779
    TRIAL :  cpu time    6.8669: real time    6.9226
    CORREC:  cpu time   10.0559: real time   10.1292
    CHARGE:  cpu time    0.8050: real time    0.8103
    --------------------------------------------
      LOOP:  cpu time   26.3258: real time   26.5309

 eigenvalue-minimisations  :     0
 total energy-change (2. order) :-0.3464997E-01  (-0.1022779E-01)
 number of electron     216.0000000 magnetization 
 augmentation part       -0.3943557 magnetization 

 Free energy of the ion-electron system (eV)
  ---------------------------------------------------
  alpha Z        PSCENC =        47.94900195
  Ewald energy   TEWEN  =     47538.22437387
  -Hartree energ DENC   =    -54521.32774123
  -exchange      EXHF   =         0.00000000
  -V(xc)+E(xc)   XCENC  =       429.32330301
  PAW double counting   =     94022.50627184   -93722.77466194
  entropy T*S    EENTRO =        -0.00000000
  eigenvalues    EBANDS =     -2666.80409846
  atomic energy  EATOM  =      8461.08393172
  ---------------------------------------------------
  free energy    TOTEN  =      -411.81961925 eV

  energy without entropy =     -411.81961925  energy(sigma->0) =     -411.81961925


--------------------------------------------------------------------------------------------------------




--------------------------------------- Iteration      1(  13)  ---------------------------------------


    POTLOK:  cpu time    7.8846: real time    7.9366
    SETDIJ:  cpu time    0.6604: real time    0.6626
    TRIAL :  cpu time    6.8697: real time    6.9228
    CORREC:  cpu time   10.0661: real time   10.1362
    CHARGE:  cpu time    0.7954: real time    0.8014
    --------------------------------------------
      LOOP:  cpu time   26.2973: real time   26.4856

 eigenvalue-minimisations  :     0
 total energy-change (2. order) :-0.1026906E-01  (-0.2654171E-02)
 number of electron     216.0000000 magnetization 
 augmentation part       -0.3941060 magnetization 

 Free energy of the ion-electron system (eV)
  ---------------------------------------------------
  alpha Z        PSCENC =        47.94900195
  Ewald energy   TEWEN  =     47538.22437387
  -Hartree energ DENC   =    -54520.30875751
  -exchange      EXHF   =         0.00000000
  -V(xc)+E(xc)   XCENC  =       429.28835892
  PAW double counting   =     93801.61162414   -93501.89423510
  entropy T*S    EENTRO =        -0.00000000
  eigenvalues    EBANDS =     -2667.78418629
  atomic energy  EATOM  =      8461.08393172
  ---------------------------------------------------
  free energy    TOTEN  =      -411.82988830 eV

  energy without entropy =     -411.82988830  energy(sigma->0) =     -411.82988830


--------------------------------------------------------------------------------------------------------




--------------------------------------- Iteration      1(  14)  ---------------------------------------


    POTLOK:  cpu time    7.8985: real time    7.9504
    SETDIJ:  cpu time    0.6331: real time    0.6355
    TRIAL :  cpu time    6.8760: real time    6.9300
    CORREC:  cpu time   10.0006: real time   10.0707
    CHARGE:  cpu time    0.7991: real time    0.8050
    --------------------------------------------
      LOOP:  cpu time   26.2396: real time   26.4260

 eigenvalue-minimisations  :     0
 total energy-change (2. order) :-0.2677502E-02  (-0.6861554E-03)
 number of electron     216.0000000 magnetization 
 augmentation part       -0.3940271 magnetization 

 Free energy of the ion-electron system (eV)
  ---------------------------------------------------
  alpha Z        PSCENC =        47.94900195
  Ewald energy   TEWEN  =     47538.22437387
  -Hartree energ DENC   =    -54520.20130667
  -exchange      EXHF   =         0.00000000
  -V(xc)+E(xc)   XCENC  =       429.28138255
  PAW double counting   =     93757.57444909   -93457.86277734
  entropy T*S    EENTRO =        -0.00000000
  eigenvalues    EBANDS =     -2667.88162097
  atomic energy  EATOM  =      8461.08393172
  ---------------------------------------------------
  free energy    TOTEN  =      -411.83256581 eV

  energy without entropy =     -411.83256581  energy(sigma->0) =     -411.83256581


--------------------------------------------------------------------------------------------------------




--------------------------------------- Iteration      1(  15)  ---------------------------------------


    POTLOK:  cpu time    7.8749: real time    7.9278
    SETDIJ:  cpu time    0.6920: real time    0.6945
    TRIAL :  cpu time    6.8588: real time    6.9177
    CORREC:  cpu time   10.0271: real time   10.0936
    CHARGE:  cpu time    0.7977: real time    0.8028
    --------------------------------------------
      LOOP:  cpu time   26.2862: real time   26.4968

 eigenvalue-minimisations  :     0
 total energy-change (2. order) :-0.6958334E-03  (-0.1968451E-03)
 number of electron     216.0000000 magnetization 
 augmentation part       -0.3939285 magnetization 

 Free energy of the ion-electron system (eV)
  ---------------------------------------------------
  alpha Z        PSCENC =        47.94900195
  Ewald energy   TEWEN  =     47538.22437387
  -Hartree energ DENC   =    -54520.03093431
  -exchange      EXHF   =         0.00000000
  -V(xc)+E(xc)   XCENC  =       429.27272371
  PAW double counting   =     93755.31732127   -93455.60602687
  entropy T*S    EENTRO =        -0.00000000
  eigenvalues    EBANDS =     -2668.04365299
  atomic energy  EATOM  =      8461.08393172
  ---------------------------------------------------
  free energy    TOTEN  =      -411.83326164 eV

  energy without entropy =     -411.83326164  energy(sigma->0) =     -411.83326164


--------------------------------------------------------------------------------------------------------




--------------------------------------- Iteration      1(  16)  ---------------------------------------


    POTLOK:  cpu time    7.8850: real time    7.9379
    SETDIJ:  cpu time    0.6823: real time    0.6849
    TRIAL :  cpu time    6.8615: real time    6.9187
    CORREC:  cpu time   10.0113: real time   10.0770
    CHARGE:  cpu time    0.7983: real time    0.8035
    --------------------------------------------
      LOOP:  cpu time   26.2827: real time   26.4731

 eigenvalue-minimisations  :     0
 total energy-change (2. order) :-0.2024009E-03  (-0.6935099E-04)
 number of electron     216.0000000 magnetization 
 augmentation part       -0.3938255 magnetization 

 Free energy of the ion-electron system (eV)
  ---------------------------------------------------
  alpha Z        PSCENC =        47.94900195
  Ewald energy   TEWEN  =     47538.22437387
  -Hartree energ DENC   =    -54520.10481901
  -exchange      EXHF   =         0.00000000
  -V(xc)+E(xc)   XCENC  =       429.27353410
  PAW double counting   =     93739.54552636   -93439.83448913
  entropy T*S    EENTRO =        -0.00000000
  eigenvalues    EBANDS =     -2667.97052389
  atomic energy  EATOM  =      8461.08393172
  ---------------------------------------------------
  free energy    TOTEN  =      -411.83346404 eV

  energy without entropy =     -411.83346404  energy(sigma->0) =     -411.83346404


--------------------------------------------------------------------------------------------------------




--------------------------------------- Iteration      1(  17)  ---------------------------------------


    POTLOK:  cpu time    7.8897: real time    7.9439
    SETDIJ:  cpu time    0.6205: real time    0.6228
    TRIAL :  cpu time    6.8672: real time    6.9206
    CORREC:  cpu time   10.1043: real time   10.1707
    CHARGE:  cpu time    0.7959: real time    0.8010
    --------------------------------------------
      LOOP:  cpu time   26.3059: real time   26.4900

 eigenvalue-minimisations  :     0
 total energy-change (2. order) :-0.7218865E-04  (-0.2704463E-04)
 number of electron     216.0000000 magnetization 
 augmentation part       -0.3938262 magnetization 

 Free energy of the ion-electron system (eV)
  ---------------------------------------------------
  alpha Z        PSCENC =        47.94900195
  Ewald energy   TEWEN  =     47538.22437387
  -Hartree energ DENC   =    -54520.27317857
  -exchange      EXHF   =         0.00000000
  -V(xc)+E(xc)   XCENC  =       429.27849332
  PAW double counting   =     93723.64332600   -93423.93273598
  entropy T*S    EENTRO =        -0.00000000
  eigenvalues    EBANDS =     -2667.80674853
  atomic energy  EATOM  =      8461.08393172
  ---------------------------------------------------
  free energy    TOTEN  =      -411.83353623 eV

  energy without entropy =     -411.83353623  energy(sigma->0) =     -411.83353623


--------------------------------------------------------------------------------------------------------




--------------------------------------- Iteration      1(  18)  ---------------------------------------


    POTLOK:  cpu time    7.8754: real time    7.9277
    SETDIJ:  cpu time    0.6476: real time    0.6501
    TRIAL :  cpu time    6.8679: real time    6.9241
    CORREC:  cpu time    9.9930: real time   10.0597
    CHARGE:  cpu time    0.7976: real time    0.8029
    --------------------------------------------
      LOOP:  cpu time   26.2724: real time   26.4570

 eigenvalue-minimisations  :     0
 total energy-change (2. order) :-0.2861058E-04  (-0.1095628E-04)
 number of electron     216.0000000 magnetization 
 augmentation part       -0.3938459 magnetization 

 Free energy of the ion-electron system (eV)
  ---------------------------------------------------
  alpha Z        PSCENC =        47.94900195
  Ewald energy   TEWEN  =     47538.22437387
  -Hartree energ DENC   =    -54520.30256938
  -exchange      EXHF   =         0.00000000
  -V(xc)+E(xc)   XCENC  =       429.27863944
  PAW double counting   =     93720.37590299   -93420.66475633
  entropy T*S    EENTRO =        -0.00000000
  eigenvalues    EBANDS =     -2667.77808910
  atomic energy  EATOM  =      8461.08393172
  ---------------------------------------------------
  free energy    TOTEN  =      -411.83356484 eV

  energy without entropy =     -411.83356484  energy(sigma->0) =     -411.83356484


--------------------------------------------------------------------------------------------------------




--------------------------------------- Iteration      1(  19)  ---------------------------------------


    POTLOK:  cpu time    7.9095: real time    7.9634
    SETDIJ:  cpu time    0.6391: real time    0.6415
    TRIAL :  cpu time    6.8708: real time    6.9256
    CORREC:  cpu time   10.0902: real time   10.1609
    CHARGE:  cpu time    0.7977: real time    0.8029
    --------------------------------------------
      LOOP:  cpu time   26.3183: real time   26.5328

 eigenvalue-minimisations  :     0
 total energy-change (2. order) :-0.1171872E-04  (-0.4808357E-05)
 number of electron     216.0000000 magnetization 
 augmentation part       -0.3938688 magnetization 

 Free energy of the ion-electron system (eV)
  ---------------------------------------------------
  alpha Z        PSCENC =        47.94900195
  Ewald energy   TEWEN  =     47538.22437387
  -Hartree energ DENC   =    -54520.33345460
  -exchange      EXHF   =         0.00000000
  -V(xc)+E(xc)   XCENC  =       429.27962087
  PAW double counting   =     93725.37886580   -93425.66744609
  entropy T*S    EENTRO =        -0.00000000
  eigenvalues    EBANDS =     -2667.74847007
  atomic energy  EATOM  =      8461.08393172
  ---------------------------------------------------
  free energy    TOTEN  =      -411.83357656 eV

  energy without entropy =     -411.83357656  energy(sigma->0) =     -411.83357656


--------------------------------------------------------------------------------------------------------




--------------------------------------- Iteration      1(  20)  ---------------------------------------


    POTLOK:  cpu time    7.8826: real time    7.9365
    SETDIJ:  cpu time    0.6660: real time    0.6682
    TRIAL :  cpu time    6.8641: real time    6.9184
    CORREC:  cpu time   10.0277: real time   10.0978
    CHARGE:  cpu time    0.8000: real time    0.8051
    --------------------------------------------
      LOOP:  cpu time   26.2935: real time   26.4807

 eigenvalue-minimisations  :     0
 total energy-change (2. order) :-0.5025911E-05  (-0.1949318E-05)
 number of electron     216.0000000 magnetization 
 augmentation part       -0.3938837 magnetization 

 Free energy of the ion-electron system (eV)
  ---------------------------------------------------
  alpha Z        PSCENC =        47.94900195
  Ewald energy   TEWEN  =     47538.22437387
  -Hartree energ DENC   =    -54520.35840165
  -exchange      EXHF   =         0.00000000
  -V(xc)+E(xc)   XCENC  =       429.28031227
  PAW double counting   =     93731.21731468   -93431.50577428
  entropy T*S    EENTRO =        -0.00000000
  eigenvalues    EBANDS =     -2667.72434013
  atomic energy  EATOM  =      8461.08393172
  ---------------------------------------------------
  free energy    TOTEN  =      -411.83358158 eV

  energy without entropy =     -411.83358158  energy(sigma->0) =     -411.83358158


--------------------------------------------------------------------------------------------------------




--------------------------------------- Iteration      1(  21)  ---------------------------------------


    POTLOK:  cpu time    7.9486: real time    8.0112
    SETDIJ:  cpu time    0.6283: real time    0.6304
    TRIAL :  cpu time    6.8673: real time    6.9210
    CORREC:  cpu time   10.0685: real time   10.1331
    CHARGE:  cpu time    0.7963: real time    0.8013
    --------------------------------------------
      LOOP:  cpu time   26.3592: real time   26.5495

 eigenvalue-minimisations  :     0
 total energy-change (2. order) :-0.1988563E-05  (-0.7884887E-06)
 number of electron     216.0000000 magnetization 
 augmentation part       -0.3938771 magnetization 

 Free energy of the ion-electron system (eV)
  ---------------------------------------------------
  alpha Z        PSCENC =        47.94900195
  Ewald energy   TEWEN  =     47538.22437387
  -Hartree energ DENC   =    -54520.35435919
  -exchange      EXHF   =         0.00000000
  -V(xc)+E(xc)   XCENC  =       429.27995394
  PAW double counting   =     93733.66371982   -93433.95209779
  entropy T*S    EENTRO =        -0.00000000
  eigenvalues    EBANDS =     -2667.72810789
  atomic energy  EATOM  =      8461.08393172
  ---------------------------------------------------
  free energy    TOTEN  =      -411.83358357 eV

  energy without entropy =     -411.83358357  energy(sigma->0) =     -411.83358357


--------------------------------------------------------------------------------------------------------




--------------------------------------- Iteration      1(  22)  ---------------------------------------


    POTLOK:  cpu time    7.8631: real time    7.9158
    SETDIJ:  cpu time    0.6505: real time    0.6527
    TRIAL :  cpu time    6.8626: real time    6.9175
    CORREC:  cpu time   10.0709: real time   10.1372
    CHARGE:  cpu time    0.7983: real time    0.8035
    --------------------------------------------
      LOOP:  cpu time   26.3300: real time   26.5147

 eigenvalue-minimisations  :     0
 total energy-change (2. order) :-0.7784838E-06  (-0.3482581E-06)
 number of electron     216.0000000 magnetization 
 augmentation part       -0.3938769 magnetization 

 Free energy of the ion-electron system (eV)
  ---------------------------------------------------
  alpha Z        PSCENC =        47.94900195
  Ewald energy   TEWEN  =     47538.22437387
  -Hartree energ DENC   =    -54520.35748779
  -exchange      EXHF   =         0.00000000
  -V(xc)+E(xc)   XCENC  =       429.28010118
  PAW double counting   =     93733.00477056   -93433.29326753
  entropy T*S    EENTRO =        -0.00000000
  eigenvalues    EBANDS =     -2667.72500831
  atomic energy  EATOM  =      8461.08393172
  ---------------------------------------------------
  free energy    TOTEN  =      -411.83358435 eV

  energy without entropy =     -411.83358435  energy(sigma->0) =     -411.83358435


--------------------------------------------------------------------------------------------------------




--------------------------------------- Iteration      1(  23)  ---------------------------------------


    POTLOK:  cpu time    7.8762: real time    7.9287
    SETDIJ:  cpu time    0.6260: real time    0.6284
    TRIAL :  cpu time    6.8660: real time    6.9211
    CORREC:  cpu time   10.0842: real time   10.1513
    CHARGE:  cpu time    0.8000: real time    0.8053
    --------------------------------------------
      LOOP:  cpu time   26.2876: real time   26.4776

 eigenvalue-minimisations  :     0
 total energy-change (2. order) :-0.3188034E-06  (-0.2152846E-06)
 number of electron     216.0000000 magnetization 
 augmentation part       -0.3938749 magnetization 

 Free energy of the ion-electron system (eV)
  ---------------------------------------------------
  alpha Z        PSCENC =        47.94900195
  Ewald energy   TEWEN  =     47538.22437387
  -Hartree energ DENC   =    -54520.34586398
  -exchange      EXHF   =         0.00000000
  -V(xc)+E(xc)   XCENC  =       429.27973359
  PAW double counting   =     93731.59949952   -93431.88800466
  entropy T*S    EENTRO =        -0.00000000
  eigenvalues    EBANDS =     -2667.73625667
  atomic energy  EATOM  =      8461.08393172
  ---------------------------------------------------
  free energy    TOTEN  =      -411.83358467 eV

  energy without entropy =     -411.83358467  energy(sigma->0) =     -411.83358467


--------------------------------------------------------------------------------------------------------




--------------------------------------- Iteration      1(  24)  ---------------------------------------


    POTLOK:  cpu time    7.8914: real time    7.9567
    SETDIJ:  cpu time    0.6373: real time    0.6396
    TRIAL :  cpu time    6.8608: real time    6.9190
    CORREC:  cpu time   10.0031: real time   10.0790
    CHARGE:  cpu time    0.8002: real time    0.8053
    --------------------------------------------
      LOOP:  cpu time   26.2266: real time   26.4729

 eigenvalue-minimisations  :     0
 total energy-change (2. order) :-0.7828930E-07  (-0.1109214E-06)
 number of electron     216.0000000 magnetization 
 augmentation part       -0.3938790 magnetization 

 Free energy of the ion-electron system (eV)
  ---------------------------------------------------
  alpha Z        PSCENC =        47.94900195
  Ewald energy   TEWEN  =     47538.22437387
  -Hartree energ DENC   =    -54520.34330677
  -exchange      EXHF   =         0.00000000
  -V(xc)+E(xc)   XCENC  =       429.27983980
  PAW double counting   =     93730.51458149   -93430.80314928
  entropy T*S    EENTRO =        -0.00000000
  eigenvalues    EBANDS =     -2667.73885753
  atomic energy  EATOM  =      8461.08393172
  ---------------------------------------------------
  free energy    TOTEN  =      -411.83358475 eV

  energy without entropy =     -411.83358475  energy(sigma->0) =     -411.83358475


--------------------------------------------------------------------------------------------------------




--------------------------------------- Iteration      1(  25)  ---------------------------------------


    POTLOK:  cpu time    7.9015: real time    7.9764
    SETDIJ:  cpu time    0.5796: real time    0.5817
    TRIAL :  cpu time    6.8701: real time    6.9249
    CORREC:  cpu time    9.9974: real time   10.0715
    EDDIAG:  cpu time    1.1083: real time    1.1167
    CHARGE:  cpu time    0.7992: real time    0.8042
    --------------------------------------------
      LOOP:  cpu time   27.3496: real time   27.5722

 eigenvalue-minimisations  :     0
 total energy-change (2. order) :-0.9831274E-07  (-0.5631655E-07)
 number of electron     216.0000000 magnetization 
 augmentation part       -0.3938805 magnetization 

 Free energy of the ion-electron system (eV)
  ---------------------------------------------------
  alpha Z        PSCENC =        47.94900195
  Ewald energy   TEWEN  =     47538.22437387
  -Hartree energ DENC   =    -54520.34011768
  -exchange      EXHF   =         0.00000000
  -V(xc)+E(xc)   XCENC  =       429.27966224
  PAW double counting   =     93730.68634466   -93430.97486168
  entropy T*S    EENTRO =        -0.00000000
  eigenvalues    EBANDS =     -2667.74191993
  atomic energy  EATOM  =      8461.08393172
  ---------------------------------------------------
  free energy    TOTEN  =      -411.83358485 eV

  energy without entropy =     -411.83358485  energy(sigma->0) =     -411.83358485


--------------------------------------------------------------------------------------------------------


  average scaling for gradient   0.9258


 average (electrostatic) potential at core
  the test charge radii are     0.5770  0.5955
  (the norm of the test charge is              1.0000)
       1 -86.3436       2 -86.3383       3 -86.3496       4 -86.3557       5 -86.3351
       6 -86.3317       7 -86.3424       8 -86.3257       9 -86.3335      10 -86.3357
      11 -86.3346      12 -86.3390      13 -86.3334      14 -86.3324      15 -86.3321
      16 -86.3317      17 -86.3379      18 -86.3398      19 -86.3426      20 -86.3379
      21 -86.3266      22 -86.3295      23 -86.3531      24 -86.3519      25 -86.3337
      26 -86.3359      27 -86.3339      28 -86.3459      29 -86.3312      30 -86.3336
      31 -86.3538      32 -86.3457      33 -86.3401      34 -86.3355      35 -86.3337
      36 -86.3366      37 -86.3387      38 -86.3416      39 -86.3418      40 -86.3397
      41 -86.3405      42 -86.3436      43 -86.3373      44 -86.3432      45 -86.3331
      46 -86.3317      47 -86.3380      48 -86.3353      49 -86.3405      50 -86.3387
      51 -90.3049      52-120.6132      53-120.6166
 
 
 
 E-fermi :  -4.4626     XC(G=0):  -2.8928     alpha+bet : -1.6890

 Fermi energy:        -4.4626095754

 k-point     1 :       0.0000    0.0000    0.0000
  band No.  band energies     occupation 
      1     -27.7547      2.00000
      2     -26.7726      2.00000
      3     -22.4753      2.00000
      4     -21.5506      2.00000
      5     -21.5448      2.00000
      6     -21.5388      2.00000
      7     -21.5386      2.00000
      8     -21.5358      2.00000
      9     -21.5336      2.00000
     10     -19.7141      2.00000
     11     -19.7125      2.00000
     12     -19.7078      2.00000
     13     -19.7071      2.00000
     14     -19.7057      2.00000
     15     -19.7054      2.00000
     16     -18.8213      2.00000
     17     -18.8199      2.00000
     18     -18.8182      2.00000
     19     -18.8164      2.00000
     20     -18.8157      2.00000
     21     -18.8153      2.00000
     22     -16.6786      2.00000
     23     -16.6775      2.00000
     24     -16.6750      2.00000
     25     -16.6745      2.00000
     26     -16.6710      2.00000
     27     -16.6705      2.00000
     28     -15.6845      2.00000
     29     -15.6838      2.00000
     30     -15.6806      2.00000
     31     -15.6801      2.00000
     32     -15.6791      2.00000
     33     -15.6787      2.00000
     34     -14.3445      2.00000
     35     -14.3442      2.00000
     36     -14.3435      2.00000
     37     -14.3421      2.00000
     38     -14.3419      2.00000
     39     -14.3415      2.00000
     40     -12.6236      2.00000
     41     -11.9915      2.00000
     42     -11.9911      2.00000
     43     -11.9887      2.00000
     44     -11.9885      2.00000
     45     -11.9884      2.00000
     46     -11.9880      2.00000
     47     -11.8816      2.00000
     48     -11.8808      2.00000
     49     -11.8791      2.00000
     50     -11.8787      2.00000
     51     -11.8760      2.00000
     52     -11.8757      2.00000
     53     -11.4862      2.00000
     54     -11.4583      2.00000
     55     -11.3875      2.00000
     56     -10.6114      2.00000
     57     -10.5151      2.00000
     58     -10.5150      2.00000
     59     -10.5142      2.00000
     60     -10.5137      2.00000
     61     -10.5128      2.00000
     62     -10.5125      2.00000
     63      -9.5272      2.00000
     64      -9.5213      2.00000
     65      -9.5204      2.00000
     66      -9.5165      2.00000
     67      -9.5148      2.00000
     68      -9.4917      2.00000
     69      -9.2774      2.00000
     70      -9.2741      2.00000
     71      -9.2735      2.00000
     72      -9.2727      2.00000
     73      -9.2720      2.00000
     74      -9.2705      2.00000
     75      -9.2163      2.00000
     76      -9.2158      2.00000
     77      -9.2155      2.00000
     78      -9.2133      2.00000
     79      -9.2128      2.00000
     80      -9.2116      2.00000
     81      -7.9159      2.00000
     82      -7.8687      2.00000
     83      -7.6385      2.00000
     84      -7.6383      2.00000
     85      -7.6375      2.00000
     86      -7.6356      2.00000
     87      -7.6332      2.00000
     88      -7.6331      2.00000
     89      -7.4039      2.00000
     90      -7.4000      2.00000
     91      -7.3918      2.00000
     92      -7.3908      2.00000
     93      -7.3881      2.00000
     94      -7.3380      2.00000
     95      -6.5095      2.00000
     96      -6.5066      2.00000
     97      -6.5019      2.00000
     98      -6.4979      2.00000
     99      -6.4950      2.00000
    100      -6.4779      2.00000
    101      -6.1761      2.00000
    102      -6.1738      2.00000
    103      -4.5329      2.00000
    104      -4.5289      2.00000
    105      -4.5254      2.00000
    106      -4.5234      2.00000
    107      -4.5182      2.00000
    108      -4.5176      2.00000
    109      -1.7407      0.00000
    110      -1.7382      0.00000
    111      -1.7283      0.00000
    112      -1.7263      0.00000
    113      -1.7243      0.00000
    114      -1.7225      0.00000
    115      -0.8931      0.00000
    116      -0.2000      0.00000
    117       0.1088      0.00000
    118       0.1180      0.00000
    119       0.1230      0.00000
    120       0.1307      0.00000
    121       0.1323      0.00000
    122       0.1340      0.00000
    123       0.1680      0.00000
    124       0.2471      0.00000
    125       0.2713      0.00000
    126       0.3147      0.00000
    127       0.5697      0.00000
    128       0.5738      0.00000
    129       0.5853      0.00000
    130       0.6127      0.00000
    131       0.6820      0.00000
    132       0.8553      0.00000
    133       0.9952      0.00000
    134       1.1434      0.00000
    135       1.1797      0.00000
    136       1.2046      0.00000
    137       1.2116      0.00000
    138       1.2289      0.00000
    139       1.3448      0.00000
    140       1.3488      0.00000
    141       1.6145      0.00000
    142       1.6476      0.00000
    143       1.6586      0.00000
    144       1.6612      0.00000
    145       1.6707      0.00000
    146       1.8347      0.00000
    147       1.8508      0.00000
    148       1.8534      0.00000
    149       1.8617      0.00000
    150       1.8636      0.00000
    151       1.8647      0.00000
    152       1.8736      0.00000
    153       2.0483      0.00000
    154       2.1034      0.00000
    155       2.1502      0.00000
    156       2.1556      0.00000
    157       2.1687      0.00000
    158       2.2508      0.00000
    159       2.3194      0.00000
    160       2.3742      0.00000
    161       2.3771      0.00000
    162       2.5738      0.00000
    163       3.6151      0.00000
    164       4.2640      0.00000
    165       4.4812      0.00000
    166       4.5250      0.00000
    167       4.5313      0.00000
    168       4.5511      0.00000


--------------------------------------------------------------------------------------------------------


 soft charge-density along one line, spin component           1
         0         1         2         3         4         5         6         7         8         9
 total charge-density along one line
 
 pseudopotential strength for first ion, spin component:           1
 12.688  21.351  -0.000   0.000   0.000  -0.000   0.000   0.000
 21.351  35.930  -0.000   0.000   0.000  -0.000   0.000   0.000
 -0.000  -0.000  -3.244  -0.000   0.000  -5.814  -0.000   0.000
  0.000   0.000  -0.000  -3.252  -0.000  -0.000  -5.828  -0.000
  0.000   0.000   0.000  -0.000  -3.244   0.000  -0.000  -5.814
 -0.000  -0.000  -5.814  -0.000   0.000 -10.398  -0.000   0.000
  0.000   0.000  -0.000  -5.828  -0.000  -0.000 -10.423  -0.000
  0.000   0.000   0.000  -0.000  -5.814   0.000  -0.000 -10.398
 total augmentation occupancy for first ion, spin component:           1
  6.916  -2.317  -0.000  -0.002   0.000   0.000   0.001  -0.000
 -2.317   0.818   0.000   0.001  -0.000  -0.000  -0.000   0.000
 -0.000   0.000   6.627  -0.007   0.000  -2.167   0.003  -0.000
 -0.002   0.001  -0.007   2.818  -0.000   0.003  -0.689   0.000
  0.000  -0.000   0.000  -0.000   6.627  -0.000   0.000  -2.167
  0.000  -0.000  -2.167   0.003  -0.000   0.724  -0.001   0.000
  0.001  -0.000   0.003  -0.689   0.000  -0.001   0.176   0.000
 -0.000   0.000  -0.000   0.000  -2.167   0.000   0.000   0.724


------------------------ aborting loop because EDIFF is reached ----------------------------------------


    FORLOC:  cpu time    0.1339: real time    0.1348
    FORNL :  cpu time    3.5916: real time    3.6201
    FORCOR:  cpu time    8.2547: real time    8.3107
    OFIELD:  cpu time    0.0029: real time    0.0030

 VOLUME and BASIS-vectors are now :
 -----------------------------------------------------------------------------
  energy-cutoff  :     1000.00
  volume of cell :     3288.85
      direct lattice vectors                 reciprocal lattice vectors
    12.325000000  0.000000000  0.000000000     0.081135903  0.046843835  0.000000000
    -6.162500000 10.673763102  0.000000000     0.000000000  0.093687670  0.000000000
     0.000000000  0.000000000 25.000000000     0.000000000  0.000000000  0.040000000

  length of vectors
    12.325000000 12.325000000 25.000000000     0.093687670  0.093687670  0.040000000


 FORCES acting on ions:
    Electron-Ion                     Ewald-Force                    Non-Local-Force
 -----------------------------------------------------------------------------------------------
   0.112E+02 0.983E+01 0.255E+02   -.112E+02 -.982E+01 -.255E+02   0.144E-01 -.615E-02 0.141E-01
   0.184E+02 0.914E+01 0.333E+02   -.184E+02 -.913E+01 -.333E+02   0.197E-01 -.139E-01 -.442E-02
   0.915E+01 0.233E+02 0.412E+02   -.914E+01 -.234E+02 -.412E+02   -.219E-02 0.470E-01 0.394E-01
   0.146E+02 0.214E+02 0.661E+02   -.147E+02 -.214E+02 -.662E+02   0.563E-01 0.226E-01 0.845E-01
   0.122E+02 0.289E+01 0.255E+02   -.122E+02 -.287E+01 -.255E+02   0.356E-02 -.173E-01 -.327E-02
   0.128E+02 -.218E+01 0.261E+02   -.128E+02 0.219E+01 -.261E+02   -.212E-01 -.433E-02 -.124E-01
   0.250E+02 0.102E+02 0.567E+02   -.250E+02 -.101E+02 -.567E+02   0.540E-01 -.657E-01 -.117E-01
   0.247E+02 -.834E+01 0.604E+02   -.247E+02 0.837E+01 -.603E+02   0.431E-02 -.313E-01 -.111E+00
   -.101E+02 0.216E+02 0.424E+02   0.102E+02 -.216E+02 -.423E+02   -.219E-01 -.876E-02 -.369E-01
   -.186E+02 0.159E+02 0.643E+02   0.187E+02 -.160E+02 -.642E+02   -.730E-01 0.415E-01 -.882E-01
   0.299E+01 -.264E+01 0.207E+02   -.297E+01 0.263E+01 -.206E+02   -.568E-02 0.422E-02 -.530E-02
   0.238E+01 -.193E+01 0.192E+02   -.237E+01 0.193E+01 -.192E+02   -.157E-01 0.680E-02 0.176E-02
   0.947E+01 -.227E+02 0.690E+02   -.957E+01 0.228E+02 -.689E+02   0.930E-01 -.234E-01 -.999E-01
   0.435E+01 -.236E+02 0.420E+02   -.438E+01 0.236E+02 -.420E+02   0.276E-01 0.321E-02 -.372E-01
   -.109E+02 0.686E+01 0.250E+02   0.109E+02 -.685E+01 -.250E+02   0.156E-01 -.852E-02 -.523E-02
   -.162E+02 0.457E+01 0.293E+02   0.162E+02 -.457E+01 -.292E+02   -.147E-03 0.101E-01 -.228E-01
   -.162E+01 -.665E+00 0.185E+02   0.163E+01 0.662E+00 -.185E+02   -.571E-02 0.433E-03 0.121E-02
   0.898E+00 0.598E+01 0.197E+02   -.893E+00 -.598E+01 -.197E+02   -.906E-02 0.404E-02 0.900E-02
   -.335E+01 -.193E+02 0.318E+02   0.332E+01 0.194E+02 -.318E+02   0.290E-01 -.642E-02 0.124E-01
   -.142E+01 -.929E+01 0.218E+02   0.141E+01 0.929E+01 -.218E+02   0.591E-02 -.565E-02 -.114E-02
   0.192E+02 -.835E+01 0.361E+02   -.192E+02 0.835E+01 -.360E+02   -.849E-02 -.427E-02 -.476E-01
   0.113E+02 -.979E+01 0.281E+02   -.113E+02 0.977E+01 -.280E+02   -.139E-01 0.178E-01 -.149E-01
   -.469E+01 0.106E+02 0.849E+02   0.477E+01 -.106E+02 -.850E+02   -.720E-01 0.565E-01 0.568E-01
   -.830E+01 -.168E+02 0.801E+02   0.825E+01 0.169E+02 -.801E+02   0.497E-01 -.694E-01 0.601E-01
   0.521E+01 -.231E+01 0.208E+02   -.519E+01 0.230E+01 -.208E+02   -.110E-01 0.228E-02 -.945E-02
   0.962E+00 0.468E+01 0.210E+02   -.954E+00 -.468E+01 -.210E+02   -.134E-01 0.636E-02 -.638E-03
   -.249E+02 0.287E+01 0.470E+02   0.249E+02 -.291E+01 -.470E+02   -.184E-02 0.309E-01 -.424E-01
   -.227E+02 -.972E+01 0.421E+02   0.227E+02 0.969E+01 -.422E+02   -.397E-01 0.339E-01 0.175E-01
   0.690E+01 -.141E+02 0.294E+02   -.691E+01 0.141E+02 -.294E+02   0.106E-01 0.980E-02 -.193E-01
   0.643E+00 -.520E+01 0.222E+02   -.654E+00 0.519E+01 -.222E+02   0.229E-02 0.998E-02 -.890E-02
   -.185E+02 -.200E+02 0.524E+02   0.186E+02 0.200E+02 -.525E+02   -.469E-01 -.296E-01 0.625E-01
   -.104E+02 -.190E+02 0.340E+02   0.104E+02 0.190E+02 -.341E+02   -.562E-03 -.278E-01 0.260E-01
   0.608E+00 0.250E+01 0.191E+02   -.614E+00 -.250E+01 -.191E+02   0.121E-01 -.870E-02 0.387E-02
   0.174E+01 0.253E+01 0.206E+02   -.174E+01 -.252E+01 -.206E+02   0.675E-03 -.400E-02 -.584E-02
   -.759E+01 0.938E+00 0.226E+02   0.759E+01 -.946E+00 -.226E+02   0.110E-01 0.245E-02 -.155E-02
   -.651E+01 -.260E+01 0.220E+02   0.652E+01 0.259E+01 -.219E+02   -.113E-01 0.883E-02 -.219E-02
   -.133E+02 -.694E+01 0.261E+02   0.133E+02 0.694E+01 -.261E+02   -.157E-01 0.463E-02 0.275E-02
   -.764E+01 -.621E+01 0.216E+02   0.765E+01 0.620E+01 -.216E+02   -.113E-01 0.346E-02 0.110E-01
   -.719E+01 -.940E+01 0.232E+02   0.720E+01 0.941E+01 -.232E+02   -.114E-01 -.778E-02 0.869E-02
   -.106E+01 -.223E+01 0.197E+02   0.105E+01 0.223E+01 -.197E+02   0.228E-02 -.231E-02 0.842E-02
   0.270E+01 0.645E+01 0.206E+02   -.269E+01 -.646E+01 -.206E+02   -.430E-02 0.978E-02 0.836E-02
   0.901E+01 0.141E+02 0.272E+02   -.903E+01 -.141E+02 -.272E+02   0.114E-01 0.123E-01 0.177E-01
   0.719E+00 0.115E+02 0.230E+02   -.708E+00 -.115E+02 -.230E+02   -.867E-02 0.849E-02 -.257E-03
   0.135E+00 0.218E+02 0.351E+02   -.103E+00 -.218E+02 -.352E+02   -.366E-01 0.120E-01 0.142E-01
   -.219E+01 0.436E+01 0.221E+02   0.219E+01 -.435E+01 -.221E+02   0.103E-02 -.839E-02 -.623E-02
   -.929E+01 0.118E+02 0.280E+02   0.929E+01 -.118E+02 -.280E+02   -.868E-02 -.268E-02 -.171E-01
   -.157E+01 -.441E+01 0.204E+02   0.156E+01 0.441E+01 -.204E+02   0.149E-01 -.206E-02 0.136E-02
   -.410E+01 0.167E+01 0.196E+02   0.408E+01 -.167E+01 -.196E+02   0.884E-02 -.100E-02 -.818E-02
   0.318E+00 -.274E+01 0.193E+02   -.321E+00 0.273E+01 -.193E+02   0.830E-02 -.372E-02 0.590E-02
   0.432E+01 0.317E+01 0.196E+02   -.433E+01 -.317E+01 -.196E+02   0.587E-02 0.267E-02 0.360E-02
   0.166E+00 -.113E+00 -.411E+03   -.153E+00 0.103E+00 0.411E+03   -.133E-01 0.732E-02 -.355E-01
   -.229E+03 0.156E+03 -.629E+03   0.279E+03 -.190E+03 0.632E+03   -.511E+02 0.348E+02 -.323E+01
   0.229E+03 -.156E+03 -.607E+03   -.279E+03 0.190E+03 0.603E+03   0.511E+02 -.348E+02 0.328E+01
 -----------------------------------------------------------------------------------------------
   0.376E-01 -.357E-02 0.140E+00   0.114E-12 -.114E-12 0.227E-12   -.377E-01 0.363E-02 -.139E+00
 
 
 POSITION                                       TOTAL-FORCE (eV/Angst)
 -----------------------------------------------------------------------------------
     11.98348      0.00342      0.01417         0.001723     -0.000109      0.000438
     -0.34154      1.42665      0.01100         0.002020      0.002745      0.001752
      2.12355      0.00315      0.01249         0.002351     -0.005033      0.005982
      2.12326      1.42653      0.00641        -0.002138      0.004312      0.002457
     10.75099      2.13819      0.01213         0.000656     -0.004008      0.002846
     -1.57382      3.56123      0.01110        -0.004560      0.006955      0.001423
      0.89078      2.13854      0.00548        -0.003412      0.003799     -0.001449
      0.89099      3.56147      0.00181        -0.006239      0.008053     -0.014813
      4.58864      0.00346      0.01135         0.006869      0.006103     -0.000461
      4.58894      1.42623      0.00646         0.000462     -0.000845     -0.019449
      9.51854      4.27281      0.01369         0.007529     -0.007603      0.000622
     -2.80632      5.69591      0.01434        -0.008854      0.004989      0.001211
      2.12300      4.27302      0.00000        -0.004318      0.008335     -0.025241
      2.12335      5.69594      0.00581        -0.003912     -0.012071      0.001042
      7.05344      0.00333      0.01399         0.005378     -0.002276      0.002814
      7.05353      1.42635      0.01368        -0.005744      0.005225      0.000930
      8.28610      6.40752      0.01601         0.003821     -0.002481     -0.000247
     -4.03885      7.83070      0.01636        -0.003090      0.003221      0.000300
      3.35586      6.40753      0.01007         0.002450      0.000362      0.003259
      3.35599      7.83072      0.01320        -0.002843     -0.000338      0.000580
     -0.34146      4.27290      0.00723         0.012553     -0.008521      0.000755
     -0.34138      5.69591      0.00946        -0.006538      0.002862      0.003864
      3.35624      2.13791      0.00222         0.006436     -0.002922     -0.027748
      3.35573      3.56155      0.00139        -0.003188      0.003786     -0.016947
     -1.57395      6.40758      0.01311         0.010280     -0.003605     -0.000385
     -1.57385      7.83068      0.01438        -0.004844      0.004177      0.000758
      5.82093      2.13784      0.01033        -0.000848     -0.008120     -0.003082
      5.82114      3.56097      0.01156        -0.001757     -0.000419      0.004760
      0.89092      6.40755      0.00907         0.003916     -0.000693      0.003207
      0.89106      7.83068      0.01235        -0.008897     -0.000311      0.000772
      4.58871      4.27293      0.00850         0.000756     -0.005589      0.006201
      4.58852      5.69606      0.01149         0.000675      0.007759      0.002684
      9.51845      0.00337      0.01490         0.005974     -0.005933      0.000602
      9.51855      1.42644      0.01438        -0.004381      0.009381     -0.000032
      8.28593      2.13803      0.01453         0.003226     -0.005733      0.001778
      8.28613      3.56115      0.01464        -0.004563      0.001671      0.001010
      7.05356      4.27269      0.01457         0.002724     -0.000772      0.002015
      7.05362      5.69588      0.01553        -0.002679      0.000699      0.000421
      5.82112      6.40755      0.01489        -0.000813      0.001155      0.000621
      5.82102      7.83073      0.01579         0.000245      0.002177     -0.000038
      7.05363      8.54227      0.01631        -0.002099     -0.001316      0.001486
     -5.27149      9.96549      0.01495        -0.001596     -0.002372     -0.000181
     -2.80638      8.54234      0.01558         0.002512     -0.000889      0.000484
     -2.80627      9.96553      0.01362        -0.003146      0.000903      0.003155
     -0.34149      8.54239      0.01378         0.006233     -0.001322      0.001100
     -0.34138      9.96550      0.01354        -0.007293      0.003369      0.002923
      2.12343      8.54232      0.01336         0.006607     -0.001218      0.001183
      2.12354      9.96544      0.01469        -0.008004      0.004003     -0.001663
      4.58846      8.54235      0.01505         0.005745     -0.004565      0.001311
      4.58853      9.96550      0.01517        -0.003152      0.003810      0.000996
      3.04930      2.68154      3.14980         0.000768     -0.002296     -0.011980
      4.02070      2.02068      3.21422        -0.600552      0.416809     -0.018846
      2.07767      3.34267      3.09035         0.607550     -0.425296      0.074820
 -----------------------------------------------------------------------------------
    total drift:                               -0.000071      0.000061      0.001699


--------------------------------------------------------------------------------------------------------



  FREE ENERGIE OF THE ION-ELECTRON SYSTEM (eV)
  ---------------------------------------------------
  free  energy   TOTEN  =      -411.83358485 eV

  energy  without entropy=     -411.83358485  energy(sigma->0) =     -411.83358485
 


--------------------------------------------------------------------------------------------------------


    POTLOK:  cpu time    8.2205: real time    8.2773


--------------------------------------------------------------------------------------------------------


 writing wavefunctions
     LOOP+:  cpu time  680.8544: real time  686.1968
    4ORBIT:  cpu time    0.0000: real time    0.0000

 total amount of memory used by VASP MPI-rank0   551512. kBytes
=======================================================================

   base      :      30000. kBytes
   nonl-proj :     230539. kBytes
   fftplans  :      40716. kBytes
   grid      :     216018. kBytes
   one-center:        162. kBytes
   wavefun   :      34077. kBytes
 
  
  
 General timing and accounting informations for this job:
 ========================================================
  
                  Total CPU time used (sec):      725.646
                            User time (sec):      689.172
                          System time (sec):       36.474
                         Elapsed time (sec):      732.364
  
                   Maximum memory used (kb):     1361240.
                   Average memory used (kb):          N/A
  
                          Minor page faults:       416358
                          Major page faults:          100
                 Voluntary context switches:         3773
