 vasp.6.2.1 16May21 (build Nov 06 2021 14:46:37) complex                        
  
 executed on             LinuxIFC date 2025.04.16  19:24:21
 running on  112 total cores
 distrk:  each k-point on   56 cores,    2 groups
 distr:  one band on NCORE=   1 cores,   56 groups


--------------------------------------------------------------------------------------------------------


 INCAR:
   ALGO = Conjugate
   KPAR = 2
   NCORE = 32
   ISMEAR = 0
   SIGMA = 0.01
   PREC = Accurate
   EDIFF = 1E-7
   ENCUT = 1000
   ISIF = 0
   GGA = BO
   PARAM1 = 0.1833333333
   PARAM2 = 0.2200000000
   LUSE_VDW = .TRUE.
   AGGAC = 0.0000
   LASPH = .TRUE.
   SYMPREC = 1E-7

 POTCAR:    PAW_PBE C_h 06Feb2004                 
 POTCAR:    PAW_PBE O_h 06Feb2004                 
 -----------------------------------------------------------------------------
|                                                                             |
|           W    W    AA    RRRRR   N    N  II  N    N   GGGG   !!!           |
|           W    W   A  A   R    R  NN   N  II  NN   N  G    G  !!!           |
|           W    W  A    A  R    R  N N  N  II  N N  N  G       !!!           |
|           W WW W  AAAAAA  RRRRR   N  N N  II  N  N N  G  GGG   !            |
|           WW  WW  A    A  R   R   N   NN  II  N   NN  G    G                |
|           W    W  A    A  R    R  N    N  II  N    N   GGGG   !!!           |
|                                                                             |
|     The value NCORE = 32 specified in the INCAR file was overwritten,       |
|     because it was not compatible with the 56 processes available:          |
|     NCORE = 1                                                               |
|     was used instead, please check that this makes sense for your           |
|     machine.                                                                |
|                                                                             |
 -----------------------------------------------------------------------------

 -----------------------------------------------------------------------------
|                                                                             |
|           W    W    AA    RRRRR   N    N  II  N    N   GGGG   !!!           |
|           W    W   A  A   R    R  NN   N  II  NN   N  G    G  !!!           |
|           W    W  A    A  R    R  N N  N  II  N N  N  G       !!!           |
|           W WW W  AAAAAA  RRRRR   N  N N  II  N  N N  G  GGG   !            |
|           WW  WW  A    A  R   R   N   NN  II  N   NN  G    G                |
|           W    W  A    A  R    R  N    N  II  N    N   GGGG   !!!           |
|                                                                             |
|     For optimal performance we recommend to set                             |
|       NCORE = 2 up to number-of-cores-per-socket                            |
|     NCORE specifies how many cores store one orbital (NPAR=cpu/NCORE).      |
|     This setting can greatly improve the performance of VASP for DFT.       |
|     The default, NCORE=1 might be grossly inefficient on modern             |
|     multi-core architectures or massively parallel machines. Do your        |
|     own testing! More info at https://www.vasp.at/wiki/index.php/NCORE      |
|     Unfortunately you need to use the default for GW and RPA                |
|     calculations (for HF NCORE is supported but not extensively tested      |
|     yet).                                                                   |
|                                                                             |
 -----------------------------------------------------------------------------

 -----------------------------------------------------------------------------
|                                                                             |
|               ----> ADVICE to this user running VASP <----                  |
|                                                                             |
|     You have switched on vdW-DFT.                                           |
|     This routine was written and supplied by Jiri Klimes. We recommend      |
|     that you carefully read and cite the following publications:            |
|       J. Klimes, D.R. Bowler, A. Michelides                                 |
|          J. Phys.: Cond Matt. 22 022201 (2010)                              |
|       J. Klimes, D.R. Bowler, A. Michelides                                 |
|          Phys. Rev. B. 83, 195131 (2011)                                    |
|     and references therein.                                                 |
|                                                                             |
 -----------------------------------------------------------------------------

 POTCAR:    PAW_PBE C_h 06Feb2004                 
   VRHFIN =C: s2p2                                                                                  
   LEXCH  = PE                                                                                      
   EATOM  =   147.1560 eV,   10.8157 Ry                                                             
                                                                                                    
   TITEL  = PAW_PBE C_h 06Feb2004                                                                   
   LULTRA =        F    use ultrasoft PP ?                                                          
   IUNSCR =        1    unscreen: 0-lin 1-nonlin 2-no                                               
   RPACOR =    0.800    partial core radius                                                         
   POMASS =   12.011; ZVAL   =    4.000    mass and valenz                                          
   RCORE  =    1.100    outmost cutoff radius                                                       
   RWIGS  =    1.630; RWIGS  =    0.863    wigner-seitz radius (au A)                               
   ENMAX  =  700.000; ENMIN  =  500.000 eV                                                          
   ICORE  =        2    local potential                                                             
   LCOR   =        T    correct aug charges                                                         
   LPAW   =        T    paw PP                                                                      
   EAUG   =  946.768                                                                                
   DEXC   =    0.000                                                                                
   RMAX   =    1.128    core radius for proj-oper                                                   
   RAUG   =    1.300    factor for augmentation sphere                                              
   RDEP   =    1.162    radius for radial grids                                                     
   RDEPT  =    1.088    core radius for aug-charge                                                  
                                                                                                    
   Atomic configuration                                                                             
    4 entries                                                                                       
     n  l   j            E        occ.                                                              
     1  0  0.50      -273.3789   2.0000                                                             
     2  0  0.50       -13.7508   2.0000                                                             
     2  1  0.50        -5.2854   2.0000                                                             
     3  2  1.50        -5.4423   0.0000                                                             
   Description                                                                                      
     l       E           TYP  RCUT    TYP  RCUT                                                     
     0    -13.7508458     23  1.100                                                                 
     0     -8.2022199     23  1.100                                                                 
     1     -5.2854383     23  1.100                                                                 
     1      1.1560700     23  1.100                                                                 
     2     -5.4423304      7  1.100                                                                 
  local pseudopotential read in
  partial core-charges read in
  partial kinetic energy density read in
  atomic valenz-charges read in
  non local Contribution for L=           0  read in
    real space projection operators read in
  non local Contribution for L=           0  read in
    real space projection operators read in
  non local Contribution for L=           1  read in
    real space projection operators read in
  non local Contribution for L=           1  read in
    real space projection operators read in
    PAW grid and wavefunctions read in
 
   number of l-projection  operators is LMAX  =           4
   number of lm-projection operators is LMMAX =           8
 
 POTCAR:    PAW_PBE O_h 06Feb2004                 
   VRHFIN =O: s2p4                                                                                  
   LEXCH  = PE                                                                                      
   EATOM  =   432.3788 eV,   31.7789 Ry                                                             
                                                                                                    
   TITEL  = PAW_PBE O_h 06Feb2004                                                                   
   LULTRA =        F    use ultrasoft PP ?                                                          
   IUNSCR =        1    unscreen: 0-lin 1-nonlin 2-no                                               
   RPACOR =    0.800    partial core radius                                                         
   POMASS =   16.000; ZVAL   =    6.000    mass and valenz                                          
   RCORE  =    1.100    outmost cutoff radius                                                       
   RWIGS  =    1.400; RWIGS  =    0.741    wigner-seitz radius (au A)                               
   ENMAX  =  700.000; ENMIN  =  500.000 eV                                                          
   ICORE  =        2    local potential                                                             
   LCOR   =        T    correct aug charges                                                         
   LPAW   =        T    paw PP                                                                      
   EAUG   =  888.804                                                                                
   DEXC   =    0.000                                                                                
   RMAX   =    1.128    core radius for proj-oper                                                   
   RAUG   =    1.300    factor for augmentation sphere                                              
   RDEP   =    1.125    radius for radial grids                                                     
   RDEPT  =    1.088    core radius for aug-charge                                                  
                                                                                                    
   Atomic configuration                                                                             
    4 entries                                                                                       
     n  l   j            E        occ.                                                              
     1  0  0.50      -514.6923   2.0000                                                             
     2  0  0.50       -23.9615   2.0000                                                             
     2  1  0.50        -9.0305   4.0000                                                             
     3  2  1.50        -9.5241   0.0000                                                             
   Description                                                                                      
     l       E           TYP  RCUT    TYP  RCUT                                                     
     0    -23.9615319     23  1.100                                                                 
     0    -25.3221145     23  1.100                                                                 
     1     -9.0304911     23  1.100                                                                 
     1     -5.4802209     23  1.100                                                                 
     2     -9.5240782      7  1.100                                                                 
  local pseudopotential read in
  partial core-charges read in
  partial kinetic energy density read in
  atomic valenz-charges read in
  non local Contribution for L=           0  read in
    real space projection operators read in
  non local Contribution for L=           0  read in
    real space projection operators read in
  non local Contribution for L=           1  read in
    real space projection operators read in
  non local Contribution for L=           1  read in
    real space projection operators read in
    PAW grid and wavefunctions read in
 
   number of l-projection  operators is LMAX  =           4
   number of lm-projection operators is LMMAX =           8
 
 -----------------------------------------------------------------------------
|                                                                             |
|               ----> ADVICE to this user running VASP <----                  |
|                                                                             |
|     You have a (more or less) 'large supercell' and for larger cells it     |
|     might be more efficient to use real-space projection operators.         |
|     Therefore, try LREAL= Auto in the INCAR file.                           |
|     Mind: For very accurate calculation, you might also keep the            |
|     reciprocal projection scheme (i.e. LREAL=.FALSE.).                      |
|                                                                             |
 -----------------------------------------------------------------------------

 -----------------------------------------------------------------------------
|                                                                             |
|               ----> ADVICE to this user running VASP <----                  |
|                                                                             |
|     You enforced a specific xc type in the INCAR file but a different       |
|     type was found in the POTCAR file.                                      |
|     I HOPE YOU KNOW WHAT YOU ARE DOING!                                     |
|                                                                             |
 -----------------------------------------------------------------------------

  PAW_PBE C_h 06Feb2004                 :
 energy of atom  1       EATOM= -147.1560
 kinetic energy error for atom=    0.0031 (will be added to EATOM!!)
  PAW_PBE O_h 06Feb2004                 :
 energy of atom  2       EATOM= -432.3788
 kinetic energy error for atom=    0.0171 (will be added to EATOM!!)
 
 
 POSCAR:  C  O
  positions in cartesian coordinates
  No initial velocities read in
 exchange correlation table for  LEXCH =       42
   RHO(1)=    0.500       N(1)  =     2000
   RHO(2)=  100.500       N(2)  =     4000
 


--------------------------------------------------------------------------------------------------------


 ion  position               nearest neighbor table
   1  0.972  0.000  0.001-  50 1.42   2 1.42  42 1.42
   2  0.039  0.134  0.000-   5 1.42   7 1.42   1 1.42
   3  0.172  0.000  0.000-  42 1.42  44 1.42   4 1.42
   4  0.239  0.134  0.000-   7 1.42   3 1.42  23 1.42
   5  0.972  0.200  0.000-   6 1.42   2 1.42  34 1.42
   6  0.039  0.334  0.000-   5 1.42  21 1.42  11 1.42
   7  0.172  0.200  0.000-   8 1.42   2 1.42   4 1.42
   8  0.239  0.334  0.000-  13 1.42   7 1.42  21 1.42
   9  0.372  0.000  0.000-  10 1.42  44 1.42  46 1.42
  10  0.439  0.134  0.000-  27 1.42   9 1.42  23 1.42
  11  0.972  0.400  0.001-  12 1.42  36 1.42   6 1.42
  12  0.039  0.534  0.001-  25 1.42  11 1.42  17 1.42
  13  0.372  0.400  0.000-   8 1.42  14 1.42  24 1.42
  14  0.439  0.534  0.000-  13 1.42  29 1.42  19 1.42
  15  0.572  0.000  0.001-  46 1.42  16 1.42  48 1.42
  16  0.639  0.134  0.001-  15 1.42  35 1.42  27 1.42
  17  0.972  0.600  0.001-  38 1.42  18 1.42  12 1.42
  18  0.039  0.734  0.001-  43 1.42  41 1.42  17 1.42
  19  0.572  0.600  0.000-  14 1.42  20 1.42  32 1.42
  20  0.639  0.734  0.001-  49 1.42  19 1.42  47 1.42
  21  0.172  0.400  0.000-  22 1.42   8 1.42   6 1.42
  22  0.239  0.534  0.000-  21 1.42  29 1.42  25 1.42
  23  0.372  0.200  0.000-  10 1.42   4 1.42  24 1.42
  24  0.439  0.334  0.000-  13 1.42  31 1.42  23 1.42
  25  0.172  0.600  0.001-  26 1.42  12 1.42  22 1.42
  26  0.239  0.734  0.001-  25 1.42  45 1.42  43 1.42
  27  0.572  0.200  0.000-  10 1.42  28 1.42  16 1.42
  28  0.639  0.334  0.000-  27 1.42  37 1.42  31 1.42
  29  0.372  0.600  0.000-  22 1.42  14 1.42  30 1.42
  30  0.439  0.734  0.000-  47 1.42  29 1.42  45 1.42
  31  0.572  0.400  0.000-  32 1.42  28 1.42  24 1.42
  32  0.639  0.534  0.000-  31 1.42  39 1.42  19 1.42
  33  0.772  0.000  0.001-  34 1.42  48 1.42  50 1.42
  34  0.839  0.134  0.001-  33 1.42   5 1.42  35 1.42
  35  0.772  0.200  0.001-  36 1.42  16 1.42  34 1.42
  36  0.839  0.334  0.001-  35 1.42  11 1.42  37 1.42
  37  0.772  0.400  0.001-  28 1.42  38 1.42  36 1.42
  38  0.839  0.534  0.001-  17 1.42  37 1.42  39 1.42
  39  0.772  0.600  0.001-  40 1.42  38 1.42  32 1.42
  40  0.839  0.734  0.001-  39 1.42  49 1.42  41 1.42
  41  0.972  0.800  0.001-  18 1.42  42 1.42  40 1.42
  42  0.039  0.934  0.001-   3 1.42  41 1.42   1 1.42
  43  0.172  0.800  0.001-  18 1.42  44 1.42  26 1.42
  44  0.239  0.934  0.001-   9 1.42  43 1.42   3 1.42
  45  0.372  0.800  0.001-  26 1.42  46 1.42  30 1.42
  46  0.439  0.934  0.001-  15 1.42  45 1.42   9 1.42
  47  0.572  0.800  0.001-  30 1.42  48 1.42  20 1.42
  48  0.639  0.934  0.001-  47 1.42  33 1.42  15 1.42
  49  0.772  0.800  0.001-  50 1.42  20 1.42  40 1.42
  50  0.839  0.934  0.001-  49 1.42   1 1.42  33 1.42
  51  0.373  0.251  0.200-  52 1.18  53 1.18
  52  0.421  0.189  0.203-  51 1.18
  53  0.325  0.313  0.198-  51 1.18
 
  LATTYP: Found a hexagonal cell.
 ALAT       =    12.3250000000
 C/A-ratio  =     2.0283975659
  
  Lattice vectors:
  
 A1 = (  12.3250000000,   0.0000000000,   0.0000000000)
 A2 = (  -6.1625000000,  10.6737631016,   0.0000000000)
 A3 = (   0.0000000000,   0.0000000000,  25.0000000000)


Analysis of symmetry for initial positions (statically):
=====================================================================
 Subroutine PRICEL returns:
 Original cell was already a primitive cell.
 

 Routine SETGRP: Setting up the symmetry group for a 
 hexagonal supercell.


 Subroutine GETGRP returns: Found  1 space group operations
 (whereof  1 operations were pure point group operations)
 out of a pool of 24 trial point group operations.


The static configuration has the point symmetry C_1 .


Analysis of symmetry for dynamics (positions and initial velocities):
=====================================================================
 Subroutine PRICEL returns:
 Original cell was already a primitive cell.
 

 Routine SETGRP: Setting up the symmetry group for a 
 hexagonal supercell.


 Subroutine GETGRP returns: Found  1 space group operations
 (whereof  1 operations were pure point group operations)
 out of a pool of 24 trial point group operations.


The dynamic configuration has the point symmetry C_1 .


 Subroutine INISYM returns: Found  1 space group operations
 (whereof  1 operations are pure point group operations),
 and found     1 'primitive' translations


----------------------------------------------------------------------------------------

                                     Primitive cell                                     

  volume of cell :    3288.8533

  direct lattice vectors                    reciprocal lattice vectors
    12.325000000  0.000000000  0.000000000     0.081135903  0.046843835  0.000000000
    -6.162500000 10.673763102  0.000000000     0.000000000  0.093687670  0.000000000
     0.000000000  0.000000000 25.000000000     0.000000000  0.000000000  0.040000000

  length of vectors
    12.325000000 12.325000000 25.000000000     0.093687670  0.093687670  0.040000000

  position of ions in fractional coordinates (direct lattice)
     0.972450841  0.000320818  0.000566711
     0.039118382  0.133659505  0.000440173
     0.172443627  0.000295449  0.000499628
     0.239096278  0.133647917  0.000256468
     0.972452058  0.200322012  0.000485219
     0.039128360  0.333643771  0.000444150
     0.172451764  0.200354552  0.000219167
     0.239124359  0.333665720  0.000072260
     0.372465565  0.000324403  0.000453913
     0.439137473  0.133619939  0.000258338
     0.972449824  0.400309362  0.000547611
     0.039124981  0.533636789  0.000573410
     0.372416176  0.400329481  0.000000000
     0.439099602  0.533638981  0.000232414
     0.572443676  0.000312125  0.000559580
     0.639110207  0.133631751  0.000547275
     0.972452703  0.600305653  0.000640289
     0.039124495  0.733640359  0.000654513
     0.572433471  0.600306242  0.000402895
     0.639111888  0.733641879  0.000527905
     0.172454630  0.400318228  0.000289045
     0.239120185  0.533636548  0.000378509
     0.372459750  0.200295993  0.000088997
     0.439107096  0.333673419  0.000055762
     0.172452155  0.600311506  0.000524340
     0.239123371  0.733638574  0.000575129
     0.572431082  0.200289171  0.000413296
     0.639112773  0.333618630  0.000462376
     0.372439808  0.600308022  0.000362844
     0.439116090  0.733637858  0.000494190
     0.572469358  0.400320504  0.000339918
     0.639119408  0.533650873  0.000459610
     0.772445723  0.000315427  0.000596161
     0.839116277  0.133640203  0.000575306
     0.772440513  0.200307432  0.000581033
     0.839120241  0.333635728  0.000585467
     0.772446320  0.400298367  0.000582978
     0.839118980  0.533633964  0.000621100
     0.772456143  0.600308173  0.000595712
     0.839115033  0.733643180  0.000631512
     0.972455313  0.800305582  0.000652233
     0.039114714  0.933643289  0.000598051
     0.172457971  0.800312211  0.000623372
     0.239134551  0.933647193  0.000544850
     0.372451396  0.800316674  0.000551399
     0.439124489  0.933644769  0.000541430
     0.572441101  0.800310054  0.000534535
     0.639115067  0.933638985  0.000587644
     0.772445098  0.800313187  0.000602062
     0.839116614  0.933644338  0.000606830
     0.373021009  0.251226878  0.200000000
     0.420879805  0.189313152  0.202576874
     0.325156981  0.313167186  0.197621805

  ion indices of the primitive-cell ions
   primitive index   ion index
                 1           1
                 2           2
                 3           3
                 4           4
                 5           5
                 6           6
                 7           7
                 8           8
                 9           9
                10          10
                11          11
                12          12
                13          13
                14          14
                15          15
                16          16
                17          17
                18          18
                19          19
                20          20
                21          21
                22          22
                23          23
                24          24
                25          25
                26          26
                27          27
                28          28
                29          29
                30          30
                31          31
                32          32
                33          33
                34          34
                35          35
                36          36
                37          37
                38          38
                39          39
                40          40
                41          41
                42          42
                43          43
                44          44
                45          45
                46          46
                47          47
                48          48
                49          49
                50          50
                51          51
                52          52
                53          53

----------------------------------------------------------------------------------------

 
 
 KPOINTS: auto                                    

Automatic generation of k-mesh.
 Grid dimensions read from file:
 generate k-points for:    1    1    1

 Generating k-lattice:

  Cartesian coordinates                     Fractional coordinates (reciprocal lattice)
     0.081135903  0.046843835  0.000000000     1.000000000 -0.000000000  0.000000000
     0.000000000  0.093687670  0.000000000     0.000000000  1.000000000  0.000000000
     0.000000000  0.000000000  0.040000000     0.000000000  0.000000000  1.000000000

  Length of vectors
     0.093687670  0.093687670  0.040000000

  Shift w.r.t. Gamma in fractional coordinates (k-lattice)
     0.000000000  0.000000000  0.000000000

 
 Subroutine IBZKPT returns following result:
 ===========================================
 
 Found      1 irreducible k-points:
 
 Following reciprocal coordinates:
            Coordinates               Weight
  0.000000  0.000000  0.000000      1.000000
 
 Following cartesian coordinates:
            Coordinates               Weight
  0.000000  0.000000  0.000000      1.000000
 


--------------------------------------------------------------------------------------------------------




 Dimension of arrays:
   k-points           NKPTS =      1   k-points in BZ     NKDIM =      1   number of bands    NBANDS=    168
   number of dos      NEDOS =    301   number of ions     NIONS =     53
   non local maximal  LDIM  =      4   non local SUM 2l+1 LMDIM =      8
   total plane-waves  NPLWV = ******
   max r-space proj   IRMAX =      1   max aug-charges    IRDMAX=  10008
   dimension x,y,z NGX =   128 NGY =  128 NGZ =  270
   dimension x,y,z NGXF=   256 NGYF=  256 NGZF=  540
   support grid    NGXF=   256 NGYF=  256 NGZF=  540
   ions per type =              51   2
   NGX,Y,Z   is equivalent  to a cutoff of  17.27, 17.27, 17.95 a.u.
   NGXF,Y,Z  is equivalent  to a cutoff of  34.53, 34.53, 35.91 a.u.

 SYSTEM =  unknown system                          
 POSCAR =   C  O                                   

 Startparameter for this run:
   NWRITE =      2    write-flag & timer
   PREC   = accura    normal or accurate (medium, high low for compatibility)
   ISTART =      0    job   : 0-new  1-cont  2-samecut
   ICHARG =      2    charge: 1-file 2-atom 10-const
   ISPIN  =      1    spin polarized calculation?
   LNONCOLLINEAR =      F non collinear calculations
   LSORBIT =      F    spin-orbit coupling
   INIWAV =      1    electr: 0-lowe 1-rand  2-diag
   LASPH  =      T    aspherical Exc in radial PAW
 Electronic Relaxation 1
   ENCUT  = 1000.0 eV  73.50 Ry    8.57 a.u.  31.78 31.78 64.46*2*pi/ulx,y,z
   ENINI  = 1000.0     initial cutoff
   ENAUG  =  946.8 eV  augmentation charge cutoff
   NELM   =     60;   NELMIN=  2; NELMDL= -5     # of ELM steps 
   EDIFF  = 0.1E-06   stopping-criterion for ELM
   LREAL  =      F    real-space projection
   NLSPLINE    = F    spline interpolate recip. space projectors
   LCOMPAT=      F    compatible to vasp.4.4
   GGA_COMPAT  = T    GGA compatible to vasp.4.4-vasp.4.6
   LMAXPAW     = -100 max onsite density
   LMAXMIX     =    2 max onsite mixed and CHGCAR
   VOSKOWN=      0    Vosko Wilk Nusair interpolation
   ROPT   =    0.00000   0.00000
 Ionic relaxation
   EDIFFG = 0.1E-05   stopping-criterion for IOM
   NSW    =      0    number of steps for IOM
   NBLOCK =      1;   KBLOCK =      1    inner block; outer block 
   IBRION =     -1    ionic relax: 0-MD 1-quasi-New 2-CG
   NFREE  =      0    steps in history (QN), initial steepest desc. (CG)
   ISIF   =      0    stress and relaxation
   IWAVPR =     10    prediction:  0-non 1-charg 2-wave 3-comb
   ISYM   =      2    0-nonsym 1-usesym 2-fastsym
   LCORR  =      T    Harris-Foulkes like correction to forces

   POTIM  = 0.5000    time-step for ionic-motion
   TEIN   =    0.0    initial temperature
   TEBEG  =    0.0;   TEEND  =   0.0 temperature during run
   SMASS  =  -3.00    Nose mass-parameter (am)
   estimated Nose-frequenzy (Omega)   =  0.10E-29 period in steps = 0.13E+47 mass=  -0.347E-26a.u.
   SCALEE = 1.0000    scale energy and forces
   NPACO  =    256;   APACO  = 16.0  distance and # of slots for P.C.
   PSTRESS=    0.0 pullay stress

  Mass of Ions in am
   POMASS =  12.01 16.00
  Ionic Valenz
   ZVAL   =   4.00  6.00
  Atomic Wigner-Seitz radii
   RWIGS  =  -1.00 -1.00
  virtual crystal weights 
   VCA    =   1.00  1.00
   NELECT =     216.0000    total number of electrons
   NUPDOWN=      -1.0000    fix difference up-down

 DOS related values:
   EMIN   =  10.00;   EMAX   =-10.00  energy-range for DOS
   EFERMI =   0.00
   ISMEAR =     0;   SIGMA  =   0.01  broadening in eV -4-tet -1-fermi 0-gaus

 Electronic relaxation 2 (details)
   IALGO  =     58    algorithm
   LDIAG  =      T    sub-space diagonalisation (order eigenvalues)
   LSUBROT=      F    optimize rotation matrix (better conditioning)
   TURBO    =      0    0=normal 1=particle mesh
   IRESTART =      0    0=no restart 2=restart with 2 vectors
   NREBOOT  =      0    no. of reboots
   NMIN     =      0    reboot dimension
   EREF     =   0.00    reference energy to select bands
   IMIX   =      4    mixing-type and parameters
     AMIX     =   0.40;   BMIX     =  1.00
     AMIX_MAG =   1.60;   BMIX_MAG =  1.00
     AMIN     =   0.10
     WC   =   100.;   INIMIX=   1;  MIXPRE=   1;  MAXMIX= -45

 Intra band minimization:
   WEIMIN = 0.0000     energy-eigenvalue tresh-hold
   EBREAK =  0.15E-09  absolut break condition
   DEPER  =   0.30     relativ break condition  

   TIME   =   0.40     timestep for ELM

  volume/ion in A,a.u.               =      62.05       418.76
  Fermi-wavevector in a.u.,A,eV,Ry     =   0.660508  1.248179  5.935820  0.436270
  Thomas-Fermi vector in A             =   1.732977
 
 Write flags
   LWAVE        =      T    write WAVECAR
   LDOWNSAMPLE  =      F    k-point downsampling of WAVECAR
   LCHARG       =      T    write CHGCAR
   LVTOT        =      F    write LOCPOT, total local potential
   LVHAR        =      F    write LOCPOT, Hartree potential only
   LELF         =      F    write electronic localiz. function (ELF)
   LORBIT       =      0    0 simple, 1 ext, 2 COOP (PROOUT), +10 PAW based schemes


 Dipole corrections
   LMONO  =      F    monopole corrections only (constant potential shift)
   LDIPOL =      F    correct potential (dipole corrections)
   IDIPOL =      0    1-x, 2-y, 3-z, 4-all directions 
   EPSILON=  1.0000000 bulk dielectric constant

 Exchange correlation treatment:
   GGA     =    BO    GGA type
   LEXCH   =    42    internal setting for exchange type
   VOSKOWN=      0    Vosko Wilk Nusair interpolation
   LHFCALC =     F    Hartree Fock is set to
   LHFONE  =     F    Hartree Fock one center treatment
   AEXX    =    0.0000 exact exchange contribution

 vdW DFT:
   LUSE_VDW   =     T    switch on vdW DFT
   Zab_VDW    =-.8491    correlation parameter
   PARAM1     =0.1833
   PARAM2     =0.2200
   PARAM3     =0.0000
   -- rVV10 --
   BPARAM     = 6.3000
   CPARAM     = 0.0093

 Linear response parameters
   LEPSILON=     F    determine dielectric tensor
   LRPA    =     F    only Hartree local field effects (RPA)
   LNABLA  =     F    use nabla operator in PAW spheres
   LVEL    =     F    velocity operator in full k-point grid
   LINTERFAST=   F  fast interpolation
   KINTER  =     0    interpolate to denser k-point grid
   CSHIFT  =0.1000    complex shift for real part using Kramers Kronig
   OMEGAMAX=  -1.0    maximum frequency
   DEG_THRESHOLD= 0.2000000E-02 threshold for treating states as degnerate
   RTIME   =   -0.100 relaxation time in fs
  (WPLASMAI=    0.000 imaginary part of plasma frequency in eV, 0.658/RTIME)
   DFIELD  = 0.0000000 0.0000000 0.0000000 field for delta impulse in time
 
 Orbital magnetization related:
   ORBITALMAG=     F  switch on orbital magnetization
   LCHIMAG   =     F  perturbation theory with respect to B field
   DQ        =  0.001000  dq finite difference perturbation B field
   LLRAUG    =     F  two centre corrections for induced B field



--------------------------------------------------------------------------------------------------------


 Static calculation
 charge density and potential will be updated during run
 non-spin polarized calculation
 Conjugate gradient for all bands (Freysoldt, et al. PRB 79, 241103 (2009))
 preconditioned conjugated gradient                                        
 perform sub-space diagonalisation
    before iterative eigenvector-optimisation
 modified Broyden-mixing scheme, WC =      100.0
 initial mixing is a Kerker type mixing with AMIX =  0.4000 and BMIX =      1.0000
 Hartree-type preconditioning will be used
 using additional bands           60
 reciprocal scheme for non local part
 use partial core corrections
 no Harris-corrections to forces 
 use gradient corrections 
 use of overlap-Matrix (Vanderbilt PP)
 Gauss-broadening in eV      SIGMA  =   0.01


--------------------------------------------------------------------------------------------------------


  energy-cutoff  :     1000.00
  volume of cell :     3288.85
      direct lattice vectors                 reciprocal lattice vectors
    12.325000000  0.000000000  0.000000000     0.081135903  0.046843835  0.000000000
    -6.162500000 10.673763102  0.000000000     0.000000000  0.093687670  0.000000000
     0.000000000  0.000000000 25.000000000     0.000000000  0.000000000  0.040000000

  length of vectors
    12.325000000 12.325000000 25.000000000     0.093687670  0.093687670  0.040000000


 
 k-points in units of 2pi/SCALE and weight: auto                                    
   0.00000000  0.00000000  0.00000000       1.000
 
 k-points in reciprocal lattice and weights: auto                                    
   0.00000000  0.00000000  0.00000000       1.000
 
 position of ions in fractional coordinates (direct lattice) 
   0.97245084  0.00032082  0.00056671
   0.03911838  0.13365950  0.00044017
   0.17244363  0.00029545  0.00049963
   0.23909628  0.13364792  0.00025647
   0.97245206  0.20032201  0.00048522
   0.03912836  0.33364377  0.00044415
   0.17245176  0.20035455  0.00021917
   0.23912436  0.33366572  0.00007226
   0.37246557  0.00032440  0.00045391
   0.43913747  0.13361994  0.00025834
   0.97244982  0.40030936  0.00054761
   0.03912498  0.53363679  0.00057341
   0.37241618  0.40032948  0.00000000
   0.43909960  0.53363898  0.00023241
   0.57244368  0.00031213  0.00055958
   0.63911021  0.13363175  0.00054727
   0.97245270  0.60030565  0.00064029
   0.03912449  0.73364036  0.00065451
   0.57243347  0.60030624  0.00040289
   0.63911189  0.73364188  0.00052791
   0.17245463  0.40031823  0.00028904
   0.23912018  0.53363655  0.00037851
   0.37245975  0.20029599  0.00008900
   0.43910710  0.33367342  0.00005576
   0.17245216  0.60031151  0.00052434
   0.23912337  0.73363857  0.00057513
   0.57243108  0.20028917  0.00041330
   0.63911277  0.33361863  0.00046238
   0.37243981  0.60030802  0.00036284
   0.43911609  0.73363786  0.00049419
   0.57246936  0.40032050  0.00033992
   0.63911941  0.53365087  0.00045961
   0.77244572  0.00031543  0.00059616
   0.83911628  0.13364020  0.00057531
   0.77244051  0.20030743  0.00058103
   0.83912024  0.33363573  0.00058547
   0.77244632  0.40029837  0.00058298
   0.83911898  0.53363396  0.00062110
   0.77245614  0.60030817  0.00059571
   0.83911503  0.73364318  0.00063151
   0.97245531  0.80030558  0.00065223
   0.03911471  0.93364329  0.00059805
   0.17245797  0.80031221  0.00062337
   0.23913455  0.93364719  0.00054485
   0.37245140  0.80031667  0.00055140
   0.43912449  0.93364477  0.00054143
   0.57244110  0.80031005  0.00053453
   0.63911507  0.93363899  0.00058764
   0.77244510  0.80031319  0.00060206
   0.83911661  0.93364434  0.00060683
   0.37302101  0.25122688  0.20000000
   0.42087980  0.18931315  0.20257687
   0.32515698  0.31316719  0.19762181
 
 position of ions in cartesian coordinates  (Angst):
  11.98347958  0.00342433  0.01416777
  -0.34154264  1.42664989  0.01100432
   2.12354700  0.00315355  0.01249070
   2.12325634  1.42652621  0.00641170
  10.75098721  2.13818970  0.01213047
  -1.57382270  3.56123457  0.01110375
   0.89078307  2.13853702  0.00547917
   0.89099273  3.56146885  0.00180651
   4.58863896  0.00346260  0.01134782
   4.58893648  1.42622757  0.00645846
   9.51853763  4.27280730  0.01369027
  -2.80632132  5.69591267  0.01433526
   2.12299894  4.27302204  0.00000000
   2.12335237  5.69593607  0.00581036
   7.05344483  0.00333155  0.01398950
   7.05352764  1.42635365  0.01368187
   8.28609598  6.40752033  0.01600723
  -4.03884931  7.83070339  0.01636283
   3.35585531  6.40752662  0.01007237
   3.35598594  7.83071962  0.01319763
  -0.34145776  4.27290193  0.00722612
  -0.34137895  5.69591010  0.00946273
   3.35624236  2.13791198  0.00222492
   3.35573251  3.56155103  0.00139405
  -1.57394684  6.40758280  0.01310850
  -1.57385216  7.83068434  0.01437823
   5.82093107  2.13783916  0.01033241
   5.82114012  3.56096622  0.01155939
   0.89092245  6.40754561  0.00907111
   0.89106251  7.83067670  0.01235474
   4.58870974  4.27292622  0.00849795
   4.58852320  5.69606300  0.01149026
   9.51844972  0.00336679  0.01490402
   9.51855036  1.42644387  0.01438264
   8.28593477  2.13803408  0.01452582
   8.28612680  3.56114872  0.01463668
   7.05356221  4.27268994  0.01457444
   7.05362213  5.69588251  0.01552751
   5.82112285  6.40754723  0.01489279
   5.82101669  7.83073350  0.01578780
   7.05362858  8.54227219  0.01630582
  -5.27148792  9.96548729  0.01495127
  -2.80637951  8.54234295  0.01558431
  -2.80626749  9.96552896  0.01362126
  -0.34148805  8.54239058  0.01378498
  -0.34137657  9.96550309  0.01353576
   2.12342586  8.54231992  0.01336337
   2.12354296  9.96544135  0.01469111
   4.58845581  8.54235337  0.01505154
   4.58852904  9.96549848  0.01517076
   3.04929830  2.68153618  5.00000000
   4.02070129  2.02068374  5.06442186
   2.07766701  3.34267235  4.94054513
 


--------------------------------------------------------------------------------------------------------


 k-point   1 :   0.0000 0.0000 0.0000  plane waves:  236157

 maximum and minimum number of plane-waves per node :    236157   236157

 maximum number of plane-waves:    236157
 maximum index in each direction: 
   IXMAX=   31   IYMAX=   31   IZMAX=   64
   IXMIN=  -31   IYMIN=  -31   IZMIN=  -64


 serial   3D FFT for wavefunctions
 parallel 3D FFT for charge:
    minimum data exchange during FFTs selected (reduces bandwidth)


 total amount of memory used by VASP MPI-rank0   551512. kBytes
=======================================================================

   base      :      30000. kBytes
   nonl-proj :     230539. kBytes
   fftplans  :      40716. kBytes
   grid      :     216018. kBytes
   one-center:        162. kBytes
   wavefun   :      34077. kBytes
 
     INWAV:  cpu time    0.0000: real time    0.0000
 Broyden mixing: mesh for mixing (old mesh)
   NGX = 63   NGY = 63   NGZ =129
  (NGX  =256   NGY  =256   NGZ  =540)
  gives a total of 512001 points

 initial charge density was supplied:
 charge density of overlapping atoms calculated
 number of electron     216.0000000 magnetization 
 keeping initial charge density in first step


--------------------------------------------------------------------------------------------------------


 Maximum index for augmentation-charges          471 (set IRDMAX)


--------------------------------------------------------------------------------------------------------


 First call to EWALD:  gamma=   0.119
 Maximum number of real-space cells 4x 4x 2
 Maximum number of reciprocal cells 2x 2x 4

    FEWALD:  cpu time    0.0023: real time    0.0024


--------------------------------------- Iteration      1(   1)  ---------------------------------------


vdW kernel read from vdw_kernel.bindat
  0.0000  0.2424  0.5071  0.7962  1.1119  1.4567  1.8333  2.2446  2.6937  3.1842
  3.7199  4.3049  4.9438  5.6415  6.4036  7.2358  8.1446  9.1372 10.2212 11.4050
 12.6979 14.1099 15.6519 17.3360 19.1751 21.1837 23.3773 25.7729 28.3892 31.2465
 34.3669 37.7748 41.4965 45.5611 50.0000
 
    POTLOK:  cpu time    8.2710: real time    8.3378
    SETDIJ:  cpu time    0.2808: real time    0.2818
    TRIAL :  cpu time   15.3334: real time   15.4461
    CORREC:  cpu time    0.0005: real time    0.0005
    --------------------------------------------
      LOOP:  cpu time   23.9013: real time   24.0848

 eigenvalue-minimisations  :   336
 total energy-change (2. order) : 0.2639469E+04  (-0.1072331E+05)
 number of electron     216.0000000 magnetization 
 augmentation part      216.0000000 magnetization 

 Free energy of the ion-electron system (eV)
  ---------------------------------------------------
  alpha Z        PSCENC =        47.94900195
  Ewald energy   TEWEN  =     44792.55775787
  -Hartree energ DENC   =    -50861.72206340
  -exchange      EXHF   =         0.00000000
  -V(xc)+E(xc)   XCENC  =       398.23341245
  PAW double counting   =      6564.79108649    -6260.84737255
  entropy T*S    EENTRO =        -0.00000000
  eigenvalues    EBANDS =      -502.57637654
  atomic energy  EATOM  =      8461.08393172
  ---------------------------------------------------
  free energy    TOTEN  =      2639.46937798 eV

  energy without entropy =     2639.46937798  energy(sigma->0) =     2639.46937798


--------------------------------------------------------------------------------------------------------




--------------------------------------- Iteration      1(   2)  ---------------------------------------


    TRIAL :  cpu time   26.8783: real time   27.0758
    CORREC:  cpu time    0.0001: real time    0.0001
    --------------------------------------------
      LOOP:  cpu time   26.9275: real time   27.1324

 eigenvalue-minimisations  :   672
 total energy-change (2. order) :-0.2446948E+04  (-0.2319189E+04)
 number of electron     216.0000000 magnetization 
 augmentation part      216.0000000 magnetization 

 Free energy of the ion-electron system (eV)
  ---------------------------------------------------
  alpha Z        PSCENC =        47.94900195
  Ewald energy   TEWEN  =     44792.55775787
  -Hartree energ DENC   =    -50861.72206340
  -exchange      EXHF   =         0.00000000
  -V(xc)+E(xc)   XCENC  =       398.23341245
  PAW double counting   =      6564.79108649    -6260.84737255
  entropy T*S    EENTRO =        -0.00000000
  eigenvalues    EBANDS =     -2949.52422735
  atomic energy  EATOM  =      8461.08393172
  ---------------------------------------------------
  free energy    TOTEN  =       192.52152717 eV

  energy without entropy =      192.52152717  energy(sigma->0) =      192.52152717


--------------------------------------------------------------------------------------------------------




--------------------------------------- Iteration      1(   3)  ---------------------------------------


    TRIAL :  cpu time   19.1338: real time   19.2835
    CORREC:  cpu time    0.0001: real time    0.0001
    --------------------------------------------
      LOOP:  cpu time   19.1468: real time   19.3381

 eigenvalue-minimisations  :   448
 total energy-change (2. order) :-0.6169952E+03  (-0.6147200E+03)
 number of electron     216.0000000 magnetization 
 augmentation part      216.0000000 magnetization 

 Free energy of the ion-electron system (eV)
  ---------------------------------------------------
  alpha Z        PSCENC =        47.94900195
  Ewald energy   TEWEN  =     44792.55775787
  -Hartree energ DENC   =    -50861.72206340
  -exchange      EXHF   =         0.00000000
  -V(xc)+E(xc)   XCENC  =       398.23341245
  PAW double counting   =      6564.79108649    -6260.84737255
  entropy T*S    EENTRO =        -0.00000000
  eigenvalues    EBANDS =     -3566.51942384
  atomic energy  EATOM  =      8461.08393172
  ---------------------------------------------------
  free energy    TOTEN  =      -424.47366932 eV

  energy without entropy =     -424.47366932  energy(sigma->0) =     -424.47366932


--------------------------------------------------------------------------------------------------------




--------------------------------------- Iteration      1(   4)  ---------------------------------------


    TRIAL :  cpu time   19.1328: real time   19.3055
    CORREC:  cpu time    0.0001: real time    0.0001
    --------------------------------------------
      LOOP:  cpu time   19.1691: real time   19.3446

 eigenvalue-minimisations  :   448
 total energy-change (2. order) :-0.2103809E+02  (-0.2090934E+02)
 number of electron     216.0000000 magnetization 
 augmentation part      216.0000000 magnetization 

 Free energy of the ion-electron system (eV)
  ---------------------------------------------------
  alpha Z        PSCENC =        47.94900195
  Ewald energy   TEWEN  =     44792.55775787
  -Hartree energ DENC   =    -50861.72206340
  -exchange      EXHF   =         0.00000000
  -V(xc)+E(xc)   XCENC  =       398.23341245
  PAW double counting   =      6564.79108649    -6260.84737255
  entropy T*S    EENTRO =        -0.00000000
  eigenvalues    EBANDS =     -3587.55751327
  atomic energy  EATOM  =      8461.08393172
  ---------------------------------------------------
  free energy    TOTEN  =      -445.51175875 eV

  energy without entropy =     -445.51175875  energy(sigma->0) =     -445.51175875


--------------------------------------------------------------------------------------------------------




--------------------------------------- Iteration      1(   5)  ---------------------------------------


    TRIAL :  cpu time   19.1222: real time   19.2934
    CORREC:  cpu time    0.0001: real time    0.0001
    CHARGE:  cpu time    0.8053: real time    0.8112
    --------------------------------------------
      LOOP:  cpu time   20.0209: real time   20.1992

 eigenvalue-minimisations  :   448
 total energy-change (2. order) :-0.7084456E+00  (-0.7059411E+00)
 number of electron     216.0000000 magnetization 
 augmentation part       -0.2161224 magnetization 

 Free energy of the ion-electron system (eV)
  ---------------------------------------------------
  alpha Z        PSCENC =        47.94900195
  Ewald energy   TEWEN  =     44792.55775787
  -Hartree energ DENC   =    -50861.72206340
  -exchange      EXHF   =         0.00000000
  -V(xc)+E(xc)   XCENC  =       398.23341245
  PAW double counting   =      6564.79108649    -6260.84737255
  entropy T*S    EENTRO =        -0.00000000
  eigenvalues    EBANDS =     -3588.26595892
  atomic energy  EATOM  =      8461.08393172
  ---------------------------------------------------
  free energy    TOTEN  =      -446.22020439 eV

  energy without entropy =     -446.22020439  energy(sigma->0) =     -446.22020439


--------------------------------------------------------------------------------------------------------




--------------------------------------- Iteration      1(   6)  ---------------------------------------


    POTLOK:  cpu time    7.8921: real time    7.9486
    SETDIJ:  cpu time    0.3006: real time    0.3017
    TRIAL :  cpu time    6.8653: real time    6.9278
    CORREC:  cpu time    9.7992: real time    9.8719
    CHARGE:  cpu time    0.8014: real time    0.8064
    --------------------------------------------
      LOOP:  cpu time   25.6836: real time   25.9162

 eigenvalue-minimisations  :     0
 total energy-change (2. order) : 0.5519307E+02  (-0.1765468E+02)
 number of electron     216.0000000 magnetization 
 augmentation part       -0.3294985 magnetization 

 Free energy of the ion-electron system (eV)
  ---------------------------------------------------
  alpha Z        PSCENC =        47.94900195
  Ewald energy   TEWEN  =     44792.55775787
  -Hartree energ DENC   =    -52340.37574677
  -exchange      EXHF   =         0.00000000
  -V(xc)+E(xc)   XCENC  =       448.10808457
  PAW double counting   =     71400.24790315   -71104.47975159
  entropy T*S    EENTRO =        -0.00000000
  eigenvalues    EBANDS =     -2096.11832010
  atomic energy  EATOM  =      8461.08393172
  ---------------------------------------------------
  free energy    TOTEN  =      -391.02713921 eV

  energy without entropy =     -391.02713921  energy(sigma->0) =     -391.02713921


--------------------------------------------------------------------------------------------------------




--------------------------------------- Iteration      1(   7)  ---------------------------------------


    POTLOK:  cpu time    7.8849: real time    7.9400
    SETDIJ:  cpu time    0.3064: real time    0.3074
    TRIAL :  cpu time    6.8780: real time    6.9336
    CORREC:  cpu time    9.7330: real time    9.8003
    CHARGE:  cpu time    0.8003: real time    0.8052
    --------------------------------------------
      LOOP:  cpu time   25.6658: real time   25.8511

 eigenvalue-minimisations  :     0
 total energy-change (2. order) :-0.1770211E+02  (-0.2008359E+01)
 number of electron     216.0000000 magnetization 
 augmentation part       -0.3783629 magnetization 

 Free energy of the ion-electron system (eV)
  ---------------------------------------------------
  alpha Z        PSCENC =        47.94900195
  Ewald energy   TEWEN  =     44792.55775787
  -Hartree energ DENC   =    -51806.21331088
  -exchange      EXHF   =         0.00000000
  -V(xc)+E(xc)   XCENC  =       430.14093028
  PAW double counting   =     86339.31023989   -86040.29833291
  entropy T*S    EENTRO =        -0.00000000
  eigenvalues    EBANDS =     -2633.25947211
  atomic energy  EATOM  =      8461.08393172
  ---------------------------------------------------
  free energy    TOTEN  =      -408.72925419 eV

  energy without entropy =     -408.72925419  energy(sigma->0) =     -408.72925419


--------------------------------------------------------------------------------------------------------




--------------------------------------- Iteration      1(   8)  ---------------------------------------


    POTLOK:  cpu time    7.9148: real time    7.9776
    SETDIJ:  cpu time    0.2884: real time    0.2894
    TRIAL :  cpu time    6.8735: real time    6.9241
    CORREC:  cpu time    9.7250: real time    9.7890
    CHARGE:  cpu time    0.7996: real time    0.8046
    --------------------------------------------
      LOOP:  cpu time   25.6476: real time   25.8341

 eigenvalue-minimisations  :     0
 total energy-change (2. order) :-0.2007588E+01  (-0.5738228E+00)
 number of electron     216.0000000 magnetization 
 augmentation part       -0.3941087 magnetization 

 Free energy of the ion-electron system (eV)
  ---------------------------------------------------
  alpha Z        PSCENC =        47.94900195
  Ewald energy   TEWEN  =     44792.55775787
  -Hartree energ DENC   =    -51776.94379189
  -exchange      EXHF   =         0.00000000
  -V(xc)+E(xc)   XCENC  =       429.50642422
  PAW double counting   =     90758.86918755   -90459.41619471
  entropy T*S    EENTRO =        -0.00000000
  eigenvalues    EBANDS =     -2664.34315860
  atomic energy  EATOM  =      8461.08393172
  ---------------------------------------------------
  free energy    TOTEN  =      -410.73684189 eV

  energy without entropy =     -410.73684189  energy(sigma->0) =     -410.73684189


--------------------------------------------------------------------------------------------------------




--------------------------------------- Iteration      1(   9)  ---------------------------------------


    POTLOK:  cpu time    7.9055: real time    7.9630
    SETDIJ:  cpu time    0.3299: real time    0.3311
    TRIAL :  cpu time    6.8620: real time    6.9245
    CORREC:  cpu time    9.6947: real time    9.7746
    CHARGE:  cpu time    0.8011: real time    0.8072
    --------------------------------------------
      LOOP:  cpu time   25.6413: real time   25.9169

 eigenvalue-minimisations  :     0
 total energy-change (2. order) :-0.5737330E+00  (-0.2139309E+00)
 number of electron     216.0000000 magnetization 
 augmentation part       -0.3994678 magnetization 

 Free energy of the ion-electron system (eV)
  ---------------------------------------------------
  alpha Z        PSCENC =        47.94900195
  Ewald energy   TEWEN  =     44792.55775787
  -Hartree energ DENC   =    -51790.37339825
  -exchange      EXHF   =         0.00000000
  -V(xc)+E(xc)   XCENC  =       429.62040967
  PAW double counting   =     93992.67702656   -93693.02792386
  entropy T*S    EENTRO =        -0.00000000
  eigenvalues    EBANDS =     -2651.79738055
  atomic energy  EATOM  =      8461.08393172
  ---------------------------------------------------
  free energy    TOTEN  =      -411.31057489 eV

  energy without entropy =     -411.31057489  energy(sigma->0) =     -411.31057489


--------------------------------------------------------------------------------------------------------




--------------------------------------- Iteration      1(  10)  ---------------------------------------


    POTLOK:  cpu time    7.8925: real time    7.9569
    SETDIJ:  cpu time    0.3323: real time    0.3336
    TRIAL :  cpu time    6.8653: real time    6.9281
    CORREC:  cpu time    9.7345: real time    9.8129
    CHARGE:  cpu time    0.8009: real time    0.8066
    --------------------------------------------
      LOOP:  cpu time   25.6443: real time   25.8976

 eigenvalue-minimisations  :     0
 total energy-change (2. order) :-0.2133127E+00  (-0.9282959E-01)
 number of electron     216.0000000 magnetization 
 augmentation part       -0.3971916 magnetization 

 Free energy of the ion-electron system (eV)
  ---------------------------------------------------
  alpha Z        PSCENC =        47.94900195
  Ewald energy   TEWEN  =     44792.55775787
  -Hartree energ DENC   =    -51788.08071640
  -exchange      EXHF   =         0.00000000
  -V(xc)+E(xc)   XCENC  =       429.47100834
  PAW double counting   =     94834.36132977   -94534.59641042
  entropy T*S    EENTRO =        -0.00000000
  eigenvalues    EBANDS =     -2654.26979041
  atomic energy  EATOM  =      8461.08393172
  ---------------------------------------------------
  free energy    TOTEN  =      -411.52388757 eV

  energy without entropy =     -411.52388757  energy(sigma->0) =     -411.52388757


--------------------------------------------------------------------------------------------------------




--------------------------------------- Iteration      1(  11)  ---------------------------------------


    POTLOK:  cpu time    7.8955: real time    7.9493
    SETDIJ:  cpu time    0.3616: real time    0.3627
    TRIAL :  cpu time    6.8754: real time    6.9295
    CORREC:  cpu time    9.7352: real time    9.8004
    CHARGE:  cpu time    0.7953: real time    0.8003
    --------------------------------------------
      LOOP:  cpu time   25.7149: real time   25.8980

 eigenvalue-minimisations  :     0
 total energy-change (2. order) :-0.9242968E-01  (-0.3525158E-01)
 number of electron     216.0000000 magnetization 
 augmentation part       -0.3948564 magnetization 

 Free energy of the ion-electron system (eV)
  ---------------------------------------------------
  alpha Z        PSCENC =        47.94900195
  Ewald energy   TEWEN  =     44792.55775787
  -Hartree energ DENC   =    -51780.15942149
  -exchange      EXHF   =         0.00000000
  -V(xc)+E(xc)   XCENC  =       429.35312277
  PAW double counting   =     94445.43431428   -94145.67136799
  entropy T*S    EENTRO =        -0.00000000
  eigenvalues    EBANDS =     -2662.16365636
  atomic energy  EATOM  =      8461.08393172
  ---------------------------------------------------
  free energy    TOTEN  =      -411.61631725 eV

  energy without entropy =     -411.61631725  energy(sigma->0) =     -411.61631725


--------------------------------------------------------------------------------------------------------




--------------------------------------- Iteration      1(  12)  ---------------------------------------


    POTLOK:  cpu time    7.8777: real time    7.9440
    SETDIJ:  cpu time    0.3251: real time    0.3264
    TRIAL :  cpu time    6.8549: real time    6.9257
    CORREC:  cpu time    9.6813: real time    9.7675
    CHARGE:  cpu time    0.7980: real time    0.8037
    --------------------------------------------
      LOOP:  cpu time   25.5464: real time   25.8382

 eigenvalue-minimisations  :     0
 total energy-change (2. order) :-0.3523596E-01  (-0.1058462E-01)
 number of electron     216.0000000 magnetization 
 augmentation part       -0.3944033 magnetization 

 Free energy of the ion-electron system (eV)
  ---------------------------------------------------
  alpha Z        PSCENC =        47.94900195
  Ewald energy   TEWEN  =     44792.55775787
  -Hartree energ DENC   =    -51776.10675445
  -exchange      EXHF   =         0.00000000
  -V(xc)+E(xc)   XCENC  =       429.27905668
  PAW double counting   =     94000.44972807   -93700.71792515
  entropy T*S    EENTRO =        -0.00000000
  eigenvalues    EBANDS =     -2666.14634990
  atomic energy  EATOM  =      8461.08393172
  ---------------------------------------------------
  free energy    TOTEN  =      -411.65155321 eV

  energy without entropy =     -411.65155321  energy(sigma->0) =     -411.65155321


--------------------------------------------------------------------------------------------------------




--------------------------------------- Iteration      1(  13)  ---------------------------------------


    POTLOK:  cpu time    7.8860: real time    7.9381
    SETDIJ:  cpu time    0.3212: real time    0.3224
    TRIAL :  cpu time    6.8691: real time    6.9189
    CORREC:  cpu time    9.7153: real time    9.7803
    CHARGE:  cpu time    0.8001: real time    0.8053
    --------------------------------------------
      LOOP:  cpu time   25.6421: real time   25.8324

 eigenvalue-minimisations  :     0
 total energy-change (2. order) :-0.1062498E-01  (-0.2734357E-02)
 number of electron     216.0000000 magnetization 
 augmentation part       -0.3941633 magnetization 

 Free energy of the ion-electron system (eV)
  ---------------------------------------------------
  alpha Z        PSCENC =        47.94900195
  Ewald energy   TEWEN  =     44792.55775787
  -Hartree energ DENC   =    -51775.20520336
  -exchange      EXHF   =         0.00000000
  -V(xc)+E(xc)   XCENC  =       429.24481096
  PAW double counting   =     93776.93580295   -93477.21867056
  entropy T*S    EENTRO =        -0.00000000
  eigenvalues    EBANDS =     -2667.00960972
  atomic energy  EATOM  =      8461.08393172
  ---------------------------------------------------
  free energy    TOTEN  =      -411.66217819 eV

  energy without entropy =     -411.66217819  energy(sigma->0) =     -411.66217819


--------------------------------------------------------------------------------------------------------




--------------------------------------- Iteration      1(  14)  ---------------------------------------


    POTLOK:  cpu time    7.9097: real time    7.9647
    SETDIJ:  cpu time    0.2756: real time    0.2765
    TRIAL :  cpu time    6.8804: real time    6.9301
    CORREC:  cpu time    9.7197: real time    9.7838
    CHARGE:  cpu time    0.7965: real time    0.8016
    --------------------------------------------
      LOOP:  cpu time   25.5970: real time   25.7998

 eigenvalue-minimisations  :     0
 total energy-change (2. order) :-0.2756721E-02  (-0.7029406E-03)
 number of electron     216.0000000 magnetization 
 augmentation part       -0.3941041 magnetization 

 Free energy of the ion-electron system (eV)
  ---------------------------------------------------
  alpha Z        PSCENC =        47.94900195
  Ewald energy   TEWEN  =     44792.55775787
  -Hartree energ DENC   =    -51775.07295926
  -exchange      EXHF   =         0.00000000
  -V(xc)+E(xc)   XCENC  =       429.23699256
  PAW double counting   =     93731.93440254   -93432.22305339
  entropy T*S    EENTRO =        -0.00000000
  eigenvalues    EBANDS =     -2667.13100890
  atomic energy  EATOM  =      8461.08393172
  ---------------------------------------------------
  free energy    TOTEN  =      -411.66493491 eV

  energy without entropy =     -411.66493491  energy(sigma->0) =     -411.66493491


--------------------------------------------------------------------------------------------------------




--------------------------------------- Iteration      1(  15)  ---------------------------------------


    POTLOK:  cpu time    7.9355: real time    7.9971
    SETDIJ:  cpu time    0.2498: real time    0.2506
    TRIAL :  cpu time    6.8741: real time    6.9225
    CORREC:  cpu time    9.7567: real time    9.8212
    CHARGE:  cpu time    0.8014: real time    0.8065
    --------------------------------------------
      LOOP:  cpu time   25.6641: real time   25.8473

 eigenvalue-minimisations  :     0
 total energy-change (2. order) :-0.7113740E-03  (-0.1973634E-03)
 number of electron     216.0000000 magnetization 
 augmentation part       -0.3940174 magnetization 

 Free energy of the ion-electron system (eV)
  ---------------------------------------------------
  alpha Z        PSCENC =        47.94900195
  Ewald energy   TEWEN  =     44792.55775787
  -Hartree energ DENC   =    -51774.85687910
  -exchange      EXHF   =         0.00000000
  -V(xc)+E(xc)   XCENC  =       429.22663688
  PAW double counting   =     93730.03299334   -93430.32187729
  entropy T*S    EENTRO =        -0.00000000
  eigenvalues    EBANDS =     -2667.33721166
  atomic energy  EATOM  =      8461.08393172
  ---------------------------------------------------
  free energy    TOTEN  =      -411.66564629 eV

  energy without entropy =     -411.66564629  energy(sigma->0) =     -411.66564629


--------------------------------------------------------------------------------------------------------




--------------------------------------- Iteration      1(  16)  ---------------------------------------


    POTLOK:  cpu time    7.9016: real time    7.9658
    SETDIJ:  cpu time    0.2819: real time    0.2829
    TRIAL :  cpu time    6.8566: real time    6.9177
    CORREC:  cpu time    9.7356: real time    9.8138
    CHARGE:  cpu time    0.7999: real time    0.8060
    --------------------------------------------
      LOOP:  cpu time   25.6499: real time   25.8622

 eigenvalue-minimisations  :     0
 total energy-change (2. order) :-0.2020863E-03  (-0.6589534E-04)
 number of electron     216.0000000 magnetization 
 augmentation part       -0.3939309 magnetization 

 Free energy of the ion-electron system (eV)
  ---------------------------------------------------
  alpha Z        PSCENC =        47.94900195
  Ewald energy   TEWEN  =     44792.55775787
  -Hartree energ DENC   =    -51774.92565352
  -exchange      EXHF   =         0.00000000
  -V(xc)+E(xc)   XCENC  =       429.22790520
  PAW double counting   =     93713.44945781   -93413.73870049
  entropy T*S    EENTRO =        -0.00000000
  eigenvalues    EBANDS =     -2667.26954892
  atomic energy  EATOM  =      8461.08393172
  ---------------------------------------------------
  free energy    TOTEN  =      -411.66584837 eV

  energy without entropy =     -411.66584837  energy(sigma->0) =     -411.66584837


--------------------------------------------------------------------------------------------------------




--------------------------------------- Iteration      1(  17)  ---------------------------------------


    POTLOK:  cpu time    7.8793: real time    7.9522
    SETDIJ:  cpu time    0.3406: real time    0.3419
    TRIAL :  cpu time    6.8490: real time    6.9198
    CORREC:  cpu time    9.6603: real time    9.7518
    CHARGE:  cpu time    0.8004: real time    0.8071
    --------------------------------------------
      LOOP:  cpu time   25.5599: real time   25.8208

 eigenvalue-minimisations  :     0
 total energy-change (2. order) :-0.6857624E-04  (-0.2289471E-04)
 number of electron     216.0000000 magnetization 
 augmentation part       -0.3939316 magnetization 

 Free energy of the ion-electron system (eV)
  ---------------------------------------------------
  alpha Z        PSCENC =        47.94900195
  Ewald energy   TEWEN  =     44792.55775787
  -Hartree energ DENC   =    -51775.06904141
  -exchange      EXHF   =         0.00000000
  -V(xc)+E(xc)   XCENC  =       429.23265075
  PAW double counting   =     93697.41702823   -93397.70665661
  entropy T*S    EENTRO =        -0.00000000
  eigenvalues    EBANDS =     -2667.13058945
  atomic energy  EATOM  =      8461.08393172
  ---------------------------------------------------
  free energy    TOTEN  =      -411.66591695 eV

  energy without entropy =     -411.66591695  energy(sigma->0) =     -411.66591695


--------------------------------------------------------------------------------------------------------




--------------------------------------- Iteration      1(  18)  ---------------------------------------


    POTLOK:  cpu time    7.9088: real time    7.9689
    SETDIJ:  cpu time    0.2869: real time    0.2878
    TRIAL :  cpu time    6.8762: real time    6.9268
    CORREC:  cpu time    9.6798: real time    9.7457
    CHARGE:  cpu time    0.8010: real time    0.8060
    --------------------------------------------
      LOOP:  cpu time   25.6560: real time   25.8413

 eigenvalue-minimisations  :     0
 total energy-change (2. order) :-0.2435852E-04  (-0.8920685E-05)
 number of electron     216.0000000 magnetization 
 augmentation part       -0.3939448 magnetization 

 Free energy of the ion-electron system (eV)
  ---------------------------------------------------
  alpha Z        PSCENC =        47.94900195
  Ewald energy   TEWEN  =     44792.55775787
  -Hartree energ DENC   =    -51775.08538362
  -exchange      EXHF   =         0.00000000
  -V(xc)+E(xc)   XCENC  =       429.23260831
  PAW double counting   =     93694.26130601   -93394.55041084
  entropy T*S    EENTRO =        -0.00000000
  eigenvalues    EBANDS =     -2667.11475271
  atomic energy  EATOM  =      8461.08393172
  ---------------------------------------------------
  free energy    TOTEN  =      -411.66594131 eV

  energy without entropy =     -411.66594131  energy(sigma->0) =     -411.66594131


--------------------------------------------------------------------------------------------------------




--------------------------------------- Iteration      1(  19)  ---------------------------------------


    POTLOK:  cpu time    7.8919: real time    7.9551
    SETDIJ:  cpu time    0.3122: real time    0.3134
    TRIAL :  cpu time    6.8681: real time    6.9267
    CORREC:  cpu time    9.6845: real time    9.7648
    CHARGE:  cpu time    0.7989: real time    0.8050
    --------------------------------------------
      LOOP:  cpu time   25.6088: real time   25.8187

 eigenvalue-minimisations  :     0
 total energy-change (2. order) :-0.9577387E-05  (-0.3737894E-05)
 number of electron     216.0000000 magnetization 
 augmentation part       -0.3939646 magnetization 

 Free energy of the ion-electron system (eV)
  ---------------------------------------------------
  alpha Z        PSCENC =        47.94900195
  Ewald energy   TEWEN  =     44792.55775787
  -Hartree energ DENC   =    -51775.11050566
  -exchange      EXHF   =         0.00000000
  -V(xc)+E(xc)   XCENC  =       429.23349381
  PAW double counting   =     93698.17364874   -93398.46251515
  entropy T*S    EENTRO =        -0.00000000
  eigenvalues    EBANDS =     -2667.09076417
  atomic energy  EATOM  =      8461.08393172
  ---------------------------------------------------
  free energy    TOTEN  =      -411.66595088 eV

  energy without entropy =     -411.66595088  energy(sigma->0) =     -411.66595088


--------------------------------------------------------------------------------------------------------




--------------------------------------- Iteration      1(  20)  ---------------------------------------


    POTLOK:  cpu time    7.8823: real time    7.9345
    SETDIJ:  cpu time    0.3047: real time    0.3057
    TRIAL :  cpu time    6.8769: real time    6.9287
    CORREC:  cpu time    9.6953: real time    9.7597
    CHARGE:  cpu time    0.8006: real time    0.8058
    --------------------------------------------
      LOOP:  cpu time   25.5826: real time   25.7853

 eigenvalue-minimisations  :     0
 total energy-change (2. order) :-0.3993744E-05  (-0.1536447E-05)
 number of electron     216.0000000 magnetization 
 augmentation part       -0.3939792 magnetization 

 Free energy of the ion-electron system (eV)
  ---------------------------------------------------
  alpha Z        PSCENC =        47.94900195
  Ewald energy   TEWEN  =     44792.55775787
  -Hartree energ DENC   =    -51775.13412090
  -exchange      EXHF   =         0.00000000
  -V(xc)+E(xc)   XCENC  =       429.23419470
  PAW double counting   =     93703.00692241   -93403.29566191
  entropy T*S    EENTRO =        -0.00000000
  eigenvalues    EBANDS =     -2667.06798072
  atomic energy  EATOM  =      8461.08393172
  ---------------------------------------------------
  free energy    TOTEN  =      -411.66595488 eV

  energy without entropy =     -411.66595488  energy(sigma->0) =     -411.66595488


--------------------------------------------------------------------------------------------------------




--------------------------------------- Iteration      1(  21)  ---------------------------------------


    POTLOK:  cpu time    7.8806: real time    7.9358
    SETDIJ:  cpu time    0.3307: real time    0.3319
    TRIAL :  cpu time    6.8662: real time    6.9242
    CORREC:  cpu time    9.7261: real time    9.7944
    CHARGE:  cpu time    0.7993: real time    0.8052
    --------------------------------------------
      LOOP:  cpu time   25.6757: real time   25.8770

 eigenvalue-minimisations  :     0
 total energy-change (2. order) :-0.1610009E-05  (-0.7215016E-06)
 number of electron     216.0000000 magnetization 
 augmentation part       -0.3939760 magnetization 

 Free energy of the ion-electron system (eV)
  ---------------------------------------------------
  alpha Z        PSCENC =        47.94900195
  Ewald energy   TEWEN  =     44792.55775787
  -Hartree energ DENC   =    -51775.13712827
  -exchange      EXHF   =         0.00000000
  -V(xc)+E(xc)   XCENC  =       429.23407439
  PAW double counting   =     93705.57542994   -93405.86407384
  entropy T*S    EENTRO =        -0.00000000
  eigenvalues    EBANDS =     -2667.06495024
  atomic energy  EATOM  =      8461.08393172
  ---------------------------------------------------
  free energy    TOTEN  =      -411.66595649 eV

  energy without entropy =     -411.66595649  energy(sigma->0) =     -411.66595649


--------------------------------------------------------------------------------------------------------




--------------------------------------- Iteration      1(  22)  ---------------------------------------


    POTLOK:  cpu time    7.9824: real time    8.0488
    SETDIJ:  cpu time    0.1996: real time    0.2004
    TRIAL :  cpu time    6.8607: real time    6.9227
    CORREC:  cpu time    9.7214: real time    9.7912
    CHARGE:  cpu time    0.7993: real time    0.8045
    --------------------------------------------
      LOOP:  cpu time   25.6044: real time   25.8200

 eigenvalue-minimisations  :     0
 total energy-change (2. order) :-0.6994669E-06  (-0.4224624E-06)
 number of electron     216.0000000 magnetization 
 augmentation part       -0.3939731 magnetization 

 Free energy of the ion-electron system (eV)
  ---------------------------------------------------
  alpha Z        PSCENC =        47.94900195
  Ewald energy   TEWEN  =     44792.55775787
  -Hartree energ DENC   =    -51775.14012012
  -exchange      EXHF   =         0.00000000
  -V(xc)+E(xc)   XCENC  =       429.23414647
  PAW double counting   =     93705.70868999   -93405.99739808
  entropy T*S    EENTRO =        -0.00000000
  eigenvalues    EBANDS =     -2667.06196700
  atomic energy  EATOM  =      8461.08393172
  ---------------------------------------------------
  free energy    TOTEN  =      -411.66595719 eV

  energy without entropy =     -411.66595719  energy(sigma->0) =     -411.66595719


--------------------------------------------------------------------------------------------------------




--------------------------------------- Iteration      1(  23)  ---------------------------------------


    POTLOK:  cpu time    7.8775: real time    7.9307
    SETDIJ:  cpu time    0.3131: real time    0.3142
    TRIAL :  cpu time    6.8737: real time    6.9248
    CORREC:  cpu time    9.7409: real time    9.8153
    CHARGE:  cpu time    0.8004: real time    0.8066
    --------------------------------------------
      LOOP:  cpu time   25.6417: real time   25.8494

 eigenvalue-minimisations  :     0
 total energy-change (2. order) :-0.2850866E-06  (-0.1130082E-06)
 number of electron     216.0000000 magnetization 
 augmentation part       -0.3939726 magnetization 

 Free energy of the ion-electron system (eV)
  ---------------------------------------------------
  alpha Z        PSCENC =        47.94900195
  Ewald energy   TEWEN  =     44792.55775787
  -Hartree energ DENC   =    -51775.13485432
  -exchange      EXHF   =         0.00000000
  -V(xc)+E(xc)   XCENC  =       429.23389023
  PAW double counting   =     93704.40525002   -93404.69399193
  entropy T*S    EENTRO =        -0.00000000
  eigenvalues    EBANDS =     -2667.06694301
  atomic energy  EATOM  =      8461.08393172
  ---------------------------------------------------
  free energy    TOTEN  =      -411.66595747 eV

  energy without entropy =     -411.66595747  energy(sigma->0) =     -411.66595747


--------------------------------------------------------------------------------------------------------




--------------------------------------- Iteration      1(  24)  ---------------------------------------


    POTLOK:  cpu time    7.8765: real time    7.9315
    SETDIJ:  cpu time    0.3348: real time    0.3360
    TRIAL :  cpu time    7.0752: real time    7.1320
    CORREC:  cpu time    9.7687: real time    9.8350
    CHARGE:  cpu time    0.7995: real time    0.8046
    --------------------------------------------
      LOOP:  cpu time   25.9117: real time   26.1021

 eigenvalue-minimisations  :     0
 total energy-change (2. order) :-0.8744246E-07  (-0.1008679E-06)
 number of electron     216.0000000 magnetization 
 augmentation part       -0.3939780 magnetization 

 Free energy of the ion-electron system (eV)
  ---------------------------------------------------
  alpha Z        PSCENC =        47.94900195
  Ewald energy   TEWEN  =     44792.55775787
  -Hartree energ DENC   =    -51775.13342899
  -exchange      EXHF   =         0.00000000
  -V(xc)+E(xc)   XCENC  =       429.23393065
  PAW double counting   =     93703.73625499   -93404.02503353
  entropy T*S    EENTRO =        -0.00000000
  eigenvalues    EBANDS =     -2667.06837222
  atomic energy  EATOM  =      8461.08393172
  ---------------------------------------------------
  free energy    TOTEN  =      -411.66595756 eV

  energy without entropy =     -411.66595756  energy(sigma->0) =     -411.66595756


--------------------------------------------------------------------------------------------------------




--------------------------------------- Iteration      1(  25)  ---------------------------------------


    POTLOK:  cpu time    7.8856: real time    7.9382
    SETDIJ:  cpu time    0.3481: real time    0.3493
    TRIAL :  cpu time    6.8725: real time    6.9237
    CORREC:  cpu time    9.7322: real time    9.8040
    CHARGE:  cpu time    0.8011: real time    0.8063
    --------------------------------------------
      LOOP:  cpu time   25.6644: real time   25.8749

 eigenvalue-minimisations  :     0
 total energy-change (2. order) :-0.5532638E-07  (-0.1082864E-06)
 number of electron     216.0000000 magnetization 
 augmentation part       -0.3939793 magnetization 

 Free energy of the ion-electron system (eV)
  ---------------------------------------------------
  alpha Z        PSCENC =        47.94900195
  Ewald energy   TEWEN  =     44792.55775787
  -Hartree energ DENC   =    -51775.13050954
  -exchange      EXHF   =         0.00000000
  -V(xc)+E(xc)   XCENC  =       429.23388763
  PAW double counting   =     93703.59348031   -93403.88223412
  entropy T*S    EENTRO =        -0.00000000
  eigenvalues    EBANDS =     -2667.07127345
  atomic energy  EATOM  =      8461.08393172
  ---------------------------------------------------
  free energy    TOTEN  =      -411.66595762 eV

  energy without entropy =     -411.66595762  energy(sigma->0) =     -411.66595762


--------------------------------------------------------------------------------------------------------




--------------------------------------- Iteration      1(  26)  ---------------------------------------


    POTLOK:  cpu time    7.8670: real time    7.9240
    SETDIJ:  cpu time    0.3401: real time    0.3414
    TRIAL :  cpu time    6.8691: real time    6.9223
    CORREC:  cpu time    9.7370: real time    9.8040
    CHARGE:  cpu time    0.8034: real time    0.8084
    --------------------------------------------
      LOOP:  cpu time   25.6629: real time   25.8484

 eigenvalue-minimisations  :     0
 total energy-change (2. order) :-0.7283234E-07  (-0.1101079E-06)
 number of electron     216.0000000 magnetization 
 augmentation part       -0.3939794 magnetization 

 Free energy of the ion-electron system (eV)
  ---------------------------------------------------
  alpha Z        PSCENC =        47.94900195
  Ewald energy   TEWEN  =     44792.55775787
  -Hartree energ DENC   =    -51775.13045886
  -exchange      EXHF   =         0.00000000
  -V(xc)+E(xc)   XCENC  =       429.23384743
  PAW double counting   =     93703.77166298   -93404.06039140
  entropy T*S    EENTRO =        -0.00000000
  eigenvalues    EBANDS =     -2667.07130938
  atomic energy  EATOM  =      8461.08393172
  ---------------------------------------------------
  free energy    TOTEN  =      -411.66595769 eV

  energy without entropy =     -411.66595769  energy(sigma->0) =     -411.66595769


--------------------------------------------------------------------------------------------------------




--------------------------------------- Iteration      1(  27)  ---------------------------------------


    POTLOK:  cpu time    7.8818: real time    7.9362
    SETDIJ:  cpu time    0.3165: real time    0.3176
    TRIAL :  cpu time    6.8726: real time    6.9255
    CORREC:  cpu time    9.8804: real time    9.9761
    EDDIAG:  cpu time    1.1041: real time    1.1126
    CHARGE:  cpu time    0.8033: real time    0.8086
    --------------------------------------------
      LOOP:  cpu time   26.9210: real time   27.1395

 eigenvalue-minimisations  :     0
 total energy-change (2. order) : 0.1370790E-07  (-0.8567818E-07)
 number of electron     216.0000000 magnetization 
[...]
      9     -21.5347      2.00000
     10     -19.7053      2.00000
     11     -19.7050      2.00000
     12     -19.7048      2.00000
     13     -19.7047      2.00000
     14     -19.7045      2.00000
     15     -19.7044      2.00000
     16     -18.8145      2.00000
     17     -18.8144      2.00000
     18     -18.8141      2.00000
     19     -18.8135      2.00000
     20     -18.8135      2.00000
     21     -18.8133      2.00000
     22     -16.6718      2.00000
     23     -16.6716      2.00000
     24     -16.6709      2.00000
     25     -16.6707      2.00000
     26     -16.6696      2.00000
     27     -16.6695      2.00000
     28     -15.6778      2.00000
     29     -15.6777      2.00000
     30     -15.6775      2.00000
     31     -15.6774      2.00000
     32     -15.6766      2.00000
     33     -15.6765      2.00000
     34     -14.3398      2.00000
     35     -14.3396      2.00000
     36     -14.3391      2.00000
     37     -14.3389      2.00000
     38     -14.3389      2.00000
     39     -14.3385      2.00000
     40     -12.6215      2.00000
     41     -11.9865      2.00000
     42     -11.9863      2.00000
     43     -11.9858      2.00000
     44     -11.9858      2.00000
     45     -11.9850      2.00000
     46     -11.9848      2.00000
     47     -11.8757      2.00000
     48     -11.8757      2.00000
     49     -11.8751      2.00000
     50     -11.8750      2.00000
     51     -11.8740      2.00000
     52     -11.8738      2.00000
     53     -11.4799      2.00000
     54     -11.3877      2.00000
     55     -11.3866      2.00000
     56     -10.6340      2.00000
     57     -10.5115      2.00000
     58     -10.5114      2.00000
     59     -10.5101      2.00000
     60     -10.5097      2.00000
     61     -10.5095      2.00000
     62     -10.5095      2.00000
     63      -9.5224      2.00000
     64      -9.5209      2.00000
     65      -9.5185      2.00000
     66      -9.5176      2.00000
     67      -9.5158      2.00000
     68      -9.5158      2.00000
     69      -9.2712      2.00000
     70      -9.2703      2.00000
     71      -9.2701      2.00000
     72      -9.2696      2.00000
     73      -9.2691      2.00000
     74      -9.2690      2.00000
     75      -9.2113      2.00000
     76      -9.2112      2.00000
     77      -9.2111      2.00000
     78      -9.2110      2.00000
     79      -9.2103      2.00000
     80      -9.2095      2.00000
     81      -7.8638      2.00000
     82      -7.8629      2.00000
     83      -7.6346      2.00000
     84      -7.6335      2.00000
     85      -7.6332      2.00000
     86      -7.6326      2.00000
     87      -7.6311      2.00000
     88      -7.6310      2.00000
     89      -7.3933      2.00000
     90      -7.3933      2.00000
     91      -7.3928      2.00000
     92      -7.3923      2.00000
     93      -7.3919      2.00000
     94      -7.3917      2.00000
     95      -6.4996      2.00000
     96      -6.4984      2.00000
     97      -6.4981      2.00000
     98      -6.4976      2.00000
     99      -6.4973      2.00000
    100      -6.4967      2.00000
    101      -6.1727      2.00000
    102      -6.1705      2.00000
    103      -4.5211      2.00000
    104      -4.5207      2.00000
    105      -4.5206      2.00000
    106      -4.5200      2.00000
    107      -4.5178      2.00000
    108      -4.5176      2.00000
    109      -1.7257      0.00000
    110      -1.7254      0.00000
    111      -1.7236      0.00000
    112      -1.7233      0.00000
    113      -1.7231      0.00000
    114      -1.7230      0.00000
    115      -0.8972      0.00000
    116      -0.2588      0.00000
    117       0.1312      0.00000
    118       0.1321      0.00000
    119       0.1327      0.00000
    120       0.1337      0.00000
    121       0.1339      0.00000
    122       0.1364      0.00000
    123       0.1455      0.00000
    124       0.2115      0.00000
    125       0.2682      0.00000
    126       0.2993      0.00000
    127       0.4986      0.00000
    128       0.5658      0.00000
    129       0.5786      0.00000
    130       0.5815      0.00000
    131       0.6948      0.00000
    132       0.8223      0.00000
    133       1.0458      0.00000
    134       1.1313      0.00000
    135       1.1471      0.00000
    136       1.2053      0.00000
    137       1.2062      0.00000
    138       1.2196      0.00000
    139       1.2322      0.00000
    140       1.3495      0.00000
    141       1.6185      0.00000
    142       1.6505      0.00000
    143       1.6675      0.00000
    144       1.6729      0.00000
    145       1.6873      0.00000
    146       1.8068      0.00000
    147       1.8625      0.00000
    148       1.8629      0.00000
    149       1.8641      0.00000
    150       1.8646      0.00000
    151       1.8647      0.00000
    152       1.8651      0.00000
    153       2.0173      0.00000
    154       2.0962      0.00000
    155       2.1351      0.00000
    156       2.1733      0.00000
    157       2.1932      0.00000
    158       2.3100      0.00000
    159       2.3498      0.00000
    160       2.4371      0.00000
    161       2.5397      0.00000
    162       2.8149      0.00000
    163       3.2713      0.00000
    164       4.2916      0.00000
    165       4.5213      0.00000
    166       4.5439      0.00000
    167       4.5543      0.00000
    168       4.5599      0.00000


--------------------------------------------------------------------------------------------------------


 soft charge-density along one line, spin component           1
         0         1         2         3         4         5         6         7         8         9
 total charge-density along one line
 
 pseudopotential strength for first ion, spin component:           1
 12.687  21.351  -0.000   0.000   0.000  -0.000   0.000   0.000
 21.351  35.929  -0.000   0.000   0.000  -0.000   0.000   0.000
 -0.000  -0.000  -3.244  -0.000   0.000  -5.814  -0.000   0.000
  0.000   0.000  -0.000  -3.251  -0.000  -0.000  -5.828  -0.000
  0.000   0.000   0.000  -0.000  -3.244   0.000  -0.000  -5.814
 -0.000  -0.000  -5.814  -0.000   0.000 -10.398  -0.000   0.000
  0.000   0.000  -0.000  -5.828  -0.000  -0.000 -10.423  -0.000
  0.000   0.000   0.000  -0.000  -5.814   0.000  -0.000 -10.398
 total augmentation occupancy for first ion, spin component:           1
  6.917  -2.317  -0.000  -0.002  -0.000   0.000   0.001   0.000
 -2.317   0.818   0.000   0.001  -0.000  -0.000  -0.000   0.000
 -0.000   0.000   6.628  -0.007   0.000  -2.167   0.003  -0.000
 -0.002   0.001  -0.007   2.819  -0.000   0.003  -0.689   0.000
 -0.000  -0.000   0.000  -0.000   6.627  -0.000   0.000  -2.167
  0.000  -0.000  -2.167   0.003  -0.000   0.724  -0.001   0.000
  0.001  -0.000   0.003  -0.689   0.000  -0.001   0.176  -0.000
  0.000   0.000  -0.000   0.000  -2.167   0.000  -0.000   0.724


------------------------ aborting loop because EDIFF is reached ----------------------------------------


    FORLOC:  cpu time    0.1350: real time    0.1358
    FORNL :  cpu time    3.5890: real time    3.6162
    FORCOR:  cpu time    7.8677: real time    7.9213
    OFIELD:  cpu time    0.0029: real time    0.0029

 VOLUME and BASIS-vectors are now :
 -----------------------------------------------------------------------------
  energy-cutoff  :     1000.00
  volume of cell :     3288.85
      direct lattice vectors                 reciprocal lattice vectors
    12.325000000  0.000000000  0.000000000     0.081135903  0.046843835  0.000000000
    -6.162500000 10.673763102  0.000000000     0.000000000  0.093687670  0.000000000
     0.000000000  0.000000000 25.000000000     0.000000000  0.000000000  0.040000000

  length of vectors
    12.325000000 12.325000000 25.000000000     0.093687670  0.093687670  0.040000000


 FORCES acting on ions:
    Electron-Ion                     Ewald-Force                    Non-Local-Force
 -----------------------------------------------------------------------------------------------
   0.443E+01 0.385E+01 0.240E+02   -.443E+01 -.385E+01 -.240E+02   0.864E-02 -.128E-02 0.831E-02
   0.652E+01 0.317E+01 0.275E+02   -.653E+01 -.317E+01 -.275E+02   0.993E-02 -.502E-02 -.495E-02
   0.283E+01 0.756E+01 0.302E+02   -.283E+01 -.757E+01 -.302E+02   -.881E-03 0.192E-01 0.857E-02
   0.380E+01 0.551E+01 0.380E+02   -.381E+01 -.551E+01 -.380E+02   0.181E-01 0.386E-02 0.488E-02
   0.473E+01 0.112E+01 0.242E+02   -.473E+01 -.112E+01 -.242E+02   0.284E-02 -.868E-02 0.114E-03
   0.486E+01 -.942E+00 0.245E+02   -.486E+01 0.946E+00 -.245E+02   -.698E-02 0.154E-02 -.808E-02
   0.714E+01 0.262E+01 0.357E+02   -.715E+01 -.261E+01 -.357E+02   0.217E-01 -.242E-01 0.111E-02
   0.691E+01 -.247E+01 0.370E+02   -.693E+01 0.248E+01 -.370E+02   0.238E-02 -.116E-01 -.718E-02
   -.336E+01 0.681E+01 0.304E+02   0.337E+01 -.682E+01 -.304E+02   -.672E-02 -.685E-02 -.681E-02
   -.516E+01 0.434E+01 0.372E+02   0.517E+01 -.435E+01 -.372E+02   -.364E-01 0.222E-01 0.895E-02
   0.122E+01 -.119E+01 0.216E+02   -.122E+01 0.119E+01 -.216E+02   0.152E-02 -.200E-02 -.335E-02
   0.105E+01 -.874E+00 0.208E+02   -.104E+01 0.872E+00 -.208E+02   -.994E-02 0.451E-02 0.336E-02
   0.276E+01 -.592E+01 0.397E+02   -.277E+01 0.593E+01 -.397E+02   0.372E-01 -.153E-01 0.408E-02
   0.153E+01 -.757E+01 0.313E+02   -.154E+01 0.757E+01 -.313E+02   0.102E-01 0.119E-02 -.178E-01
   -.426E+01 0.263E+01 0.236E+02   0.426E+01 -.263E+01 -.236E+02   0.750E-02 -.350E-02 0.184E-02
   -.587E+01 0.173E+01 0.253E+02   0.587E+01 -.174E+01 -.253E+02   -.516E-02 0.829E-02 -.105E-01
   -.743E+00 -.294E+00 0.202E+02   0.750E+00 0.291E+00 -.202E+02   -.372E-02 0.152E-02 0.125E-02
   0.351E+00 0.260E+01 0.209E+02   -.348E+00 -.260E+01 -.209E+02   -.529E-02 0.321E-02 0.928E-02
   -.114E+01 -.703E+01 0.271E+02   0.114E+01 0.703E+01 -.271E+02   0.107E-01 -.542E-02 0.228E-02
   -.592E+00 -.391E+01 0.222E+02   0.586E+00 0.392E+01 -.222E+02   0.314E-02 -.374E-02 -.137E-02
   0.652E+01 -.288E+01 0.288E+02   -.652E+01 0.288E+01 -.288E+02   0.189E-02 -.550E-02 -.244E-01
   0.430E+01 -.359E+01 0.255E+02   -.431E+01 0.359E+01 -.255E+02   -.658E-02 0.568E-02 -.883E-02
   -.132E+01 0.255E+01 0.429E+02   0.133E+01 -.255E+01 -.429E+02   -.150E-01 0.149E-01 0.263E-01
   -.182E+01 -.400E+01 0.421E+02   0.182E+01 0.400E+01 -.421E+02   0.151E-01 -.212E-01 0.128E-01
   0.224E+01 -.901E+00 0.217E+02   -.223E+01 0.899E+00 -.217E+02   0.101E-02 -.154E-02 -.721E-02
   0.494E+00 0.197E+01 0.217E+02   -.491E+00 -.197E+01 -.218E+02   -.823E-02 0.514E-02 0.233E-02
   -.763E+01 0.105E+01 0.319E+02   0.765E+01 -.105E+01 -.319E+02   0.341E-02 0.122E-01 -.285E-02
   -.731E+01 -.292E+01 0.305E+02   0.732E+01 0.291E+01 -.305E+02   -.167E-01 0.122E-01 0.597E-02
   0.256E+01 -.514E+01 0.261E+02   -.257E+01 0.514E+01 -.261E+02   0.862E-02 0.115E-02 -.124E-01
   0.226E+00 -.214E+01 0.226E+02   -.230E+00 0.214E+01 -.226E+02   -.299E-02 0.285E-02 -.631E-02
   -.544E+01 -.570E+01 0.342E+02   0.544E+01 0.570E+01 -.342E+02   -.181E-01 -.116E-01 0.153E-02
   -.364E+01 -.671E+01 0.279E+02   0.364E+01 0.672E+01 -.279E+02   0.704E-03 -.748E-02 0.845E-02
   0.291E+00 0.115E+01 0.207E+02   -.295E+00 -.115E+01 -.207E+02   0.792E-02 -.587E-02 0.513E-02
   0.759E+00 0.114E+01 0.215E+02   -.763E+00 -.113E+01 -.215E+02   -.109E-02 0.333E-02 -.400E-02
   -.299E+01 0.460E+00 0.225E+02   0.299E+01 -.462E+00 -.225E+02   0.393E-02 -.136E-02 0.221E-02
   -.263E+01 -.110E+01 0.222E+02   0.263E+01 0.110E+01 -.222E+02   -.742E-02 0.419E-02 0.112E-02
   -.514E+01 -.267E+01 0.241E+02   0.515E+01 0.267E+01 -.241E+02   -.678E-02 0.180E-02 0.350E-02
   -.323E+01 -.258E+01 0.219E+02   0.323E+01 0.258E+01 -.219E+02   -.724E-02 0.158E-02 0.989E-02
   -.296E+01 -.381E+01 0.228E+02   0.296E+01 0.382E+01 -.228E+02   -.583E-02 -.170E-02 0.709E-02
   -.448E+00 -.972E+00 0.210E+02   0.448E+00 0.973E+00 -.210E+02   0.256E-02 -.586E-03 0.838E-02
   0.111E+01 0.275E+01 0.214E+02   -.111E+01 -.275E+01 -.214E+02   -.460E-02 0.425E-02 0.817E-02
   0.346E+01 0.541E+01 0.246E+02   -.346E+01 -.542E+01 -.247E+02   0.281E-02 0.219E-02 0.117E-01
   0.305E+00 0.467E+01 0.225E+02   -.298E+00 -.468E+01 -.225E+02   -.371E-02 0.438E-02 0.111E-02
   -.796E-01 0.748E+01 0.278E+02   0.876E-01 -.749E+01 -.278E+02   -.136E-01 0.672E-02 0.739E-02
   -.881E+00 0.170E+01 0.224E+02   0.884E+00 -.171E+01 -.224E+02   0.291E-02 -.281E-02 -.286E-02
   -.346E+01 0.428E+01 0.249E+02   0.347E+01 -.428E+01 -.249E+02   -.969E-02 0.213E-02 -.702E-02
   -.741E+00 -.194E+01 0.215E+02   0.737E+00 0.194E+01 -.215E+02   0.934E-02 -.235E-02 0.329E-02
   -.176E+01 0.673E+00 0.209E+02   0.176E+01 -.671E+00 -.209E+02   -.121E-02 0.254E-02 -.623E-02
   0.177E+00 -.121E+01 0.208E+02   -.180E+00 0.121E+01 -.208E+02   0.621E-02 -.395E-02 0.599E-02
   0.192E+01 0.138E+01 0.209E+02   -.192E+01 -.138E+01 -.209E+02   0.334E-02 0.100E-02 0.309E-02
   0.286E-01 -.704E-02 -.329E+03   -.295E-01 0.851E-02 0.329E+03   -.336E-02 0.227E-02 -.116E-01
   -.229E+03 0.156E+03 -.507E+03   0.279E+03 -.190E+03 0.510E+03   -.513E+02 0.349E+02 -.347E+01
   0.229E+03 -.156E+03 -.485E+03   -.279E+03 0.190E+03 0.482E+03   0.513E+02 -.349E+02 0.306E+01
 -----------------------------------------------------------------------------------------------
   -.313E-02 0.111E-01 0.374E+00   0.171E-12 -.142E-12 0.000E+00   0.299E-02 -.110E-01 -.373E+00
 
 
 POSITION                                       TOTAL-FORCE (eV/Angst)
 -----------------------------------------------------------------------------------
     11.98348      0.00342      0.01417         0.002798     -0.001258     -0.000689
     -0.34154      1.42665      0.01100        -0.002000     -0.000004     -0.002541
      2.12355      0.00315      0.01249        -0.001406      0.008389     -0.004621
      2.12326      1.42653      0.00641         0.011118      0.000575     -0.004153
     10.75099      2.13819      0.01213         0.000202     -0.005040      0.000264
     -1.57382      3.56123      0.01110        -0.007924      0.005018     -0.001299
      0.89078      2.13854      0.00548         0.007533     -0.016851      0.004777
      0.89099      3.56147      0.00181        -0.013071     -0.001309      0.013933
      4.58864      0.00346      0.01135         0.004474     -0.016505     -0.002286
      4.58894      1.42623      0.00646        -0.020184      0.011274      0.016625
      9.51854      4.27281      0.01369         0.006805     -0.003353      0.000365
     -2.80632      5.69591      0.01434        -0.006209      0.003265      0.000937
      2.12300      4.27302      0.00000         0.021605     -0.003545      0.023324
      2.12335      5.69594      0.00581        -0.001505      0.009970     -0.001208
      7.05344      0.00333      0.01399         0.008636     -0.004833      0.000032
      7.05353      1.42635      0.01368        -0.001392      0.004353     -0.003096
      8.28610      6.40752      0.01601         0.003373     -0.001576     -0.000578
     -4.03885      7.83070      0.01636        -0.001905      0.000925      0.000046
      3.35586      6.40753      0.01007         0.004310      0.000612     -0.000857
      3.35599      7.83072      0.01320        -0.003469      0.000566     -0.000372
     -0.34146      4.27290      0.00723        -0.002039     -0.001006     -0.003450
     -0.34138      5.69591      0.00946        -0.008554      0.005701     -0.000770
      3.35624      2.13791      0.00222        -0.011783      0.010383      0.021488
      3.35573      3.56155      0.00139         0.012192     -0.013756      0.013499
     -1.57395      6.40758      0.01311         0.005999     -0.004118     -0.000495
     -1.57385      7.83068      0.01438        -0.004524      0.003666      0.000303
      5.82093      2.13784      0.01033         0.016962      0.004403     -0.001414
      5.82114      3.56097      0.01156        -0.004895      0.007141     -0.002396
      0.89092      6.40755      0.00907         0.003994      0.001966     -0.001785
      0.89106      7.83068      0.01235        -0.006976      0.003297      0.000463
      4.58871      4.27293      0.00850        -0.010621     -0.005399     -0.007840
      4.58852      5.69606      0.01149         0.001849      0.000428     -0.003089
      9.51845      0.00337      0.01490         0.004499     -0.004496      0.000374
      9.51855      1.42644      0.01438        -0.005021      0.005705     -0.000158
      8.28593      2.13803      0.01453         0.006060     -0.003633      0.000834
      8.28613      3.56115      0.01464        -0.004035      0.001895      0.000267
      7.05356      4.27269      0.01457         0.003636     -0.000966     -0.000006
      7.05362      5.69588      0.01553        -0.002251      0.001309      0.000122
      5.82112      6.40755      0.01489        -0.002293      0.001906      0.000297
      5.82102      7.83073      0.01579         0.002602      0.000482     -0.000101
      7.05363      8.54227      0.01631        -0.004491      0.000735      0.001308
     -5.27149      9.96549      0.01495        -0.000617     -0.002548     -0.001511
     -2.80638      8.54234      0.01558         0.003488     -0.002000     -0.000717
     -2.80627      9.96553      0.01362        -0.005291     -0.000400     -0.002930
     -0.34149      8.54239      0.01378         0.005773     -0.004335      0.000439
     -0.34138      9.96550      0.01354        -0.005379      0.000056     -0.000707
      2.12343      8.54232      0.01336         0.005563     -0.001505      0.000928
      2.12354      9.96544      0.01469        -0.005669      0.003992     -0.001678
      4.58846      8.54235      0.01505         0.003490     -0.002782      0.001112
      4.58853      9.96550      0.01517        -0.003322      0.003282      0.000446
      3.04930      2.68154      5.00000        -0.004259      0.003658      0.009431
      4.02070      2.02068      5.06442        -0.647974      0.440472     -0.070924
      2.07767      3.34267      4.94055         0.652101     -0.444208      0.010055
 -----------------------------------------------------------------------------------
    total drift:                               -0.000133      0.000112      0.001355


--------------------------------------------------------------------------------------------------------



  FREE ENERGIE OF THE ION-ELECTRON SYSTEM (eV)
  ---------------------------------------------------
  free  energy   TOTEN  =      -411.66595767 eV

  energy  without entropy=     -411.66595767  energy(sigma->0) =     -411.66595767
 


--------------------------------------------------------------------------------------------------------


    POTLOK:  cpu time    8.4786: real time    8.5344


--------------------------------------------------------------------------------------------------------


 writing wavefunctions
     LOOP+:  cpu time  724.7774: real time  730.9480
    4ORBIT:  cpu time    0.0000: real time    0.0000

 total amount of memory used by VASP MPI-rank0   551512. kBytes
=======================================================================

   base      :      30000. kBytes
   nonl-proj :     230539. kBytes
   fftplans  :      40716. kBytes
   grid      :     216018. kBytes
   one-center:        162. kBytes
   wavefun   :      34077. kBytes
 
  
  
 General timing and accounting informations for this job:
 ========================================================
  
                  Total CPU time used (sec):      768.767
                            User time (sec):      728.577
                          System time (sec):       40.191
                         Elapsed time (sec):      776.126
  
                   Maximum memory used (kb):     1364696.
                   Average memory used (kb):          N/A
  
                          Minor page faults:       454616
                          Major page faults:           94
                 Voluntary context switches:         3982
