 vasp.6.2.1 16May21 (build Nov 06 2021 14:46:37) complex                        
  
 executed on             LinuxIFC date 2025.04.16  17:47:42
 running on  112 total cores
 distrk:  each k-point on   56 cores,    2 groups
 distr:  one band on NCORE=   1 cores,   56 groups


--------------------------------------------------------------------------------------------------------


 INCAR:
   ALGO = Conjugate
   KPAR = 2
   NCORE = 32
   ISMEAR = 0
   SIGMA = 0.01
   PREC = Accurate
   EDIFF = 1E-7
   ENCUT = 1000
   ISIF = 0
   GGA = BO
   PARAM1 = 0.1833333333
   PARAM2 = 0.2200000000
   LUSE_VDW = .TRUE.
   AGGAC = 0.0000
   LASPH = .TRUE.
   SYMPREC = 1E-7

 POTCAR:    PAW_PBE C_h 06Feb2004                 
 POTCAR:    PAW_PBE O_h 06Feb2004                 
 -----------------------------------------------------------------------------
|                                                                             |
|           W    W    AA    RRRRR   N    N  II  N    N   GGGG   !!!           |
|           W    W   A  A   R    R  NN   N  II  NN   N  G    G  !!!           |
|           W    W  A    A  R    R  N N  N  II  N N  N  G       !!!           |
|           W WW W  AAAAAA  RRRRR   N  N N  II  N  N N  G  GGG   !            |
|           WW  WW  A    A  R   R   N   NN  II  N   NN  G    G                |
|           W    W  A    A  R    R  N    N  II  N    N   GGGG   !!!           |
|                                                                             |
|     The value NCORE = 32 specified in the INCAR file was overwritten,       |
|     because it was not compatible with the 56 processes available:          |
|     NCORE = 1                                                               |
|     was used instead, please check that this makes sense for your           |
|     machine.                                                                |
|                                                                             |
 -----------------------------------------------------------------------------

 -----------------------------------------------------------------------------
|                                                                             |
|           W    W    AA    RRRRR   N    N  II  N    N   GGGG   !!!           |
|           W    W   A  A   R    R  NN   N  II  NN   N  G    G  !!!           |
|           W    W  A    A  R    R  N N  N  II  N N  N  G       !!!           |
|           W WW W  AAAAAA  RRRRR   N  N N  II  N  N N  G  GGG   !            |
|           WW  WW  A    A  R   R   N   NN  II  N   NN  G    G                |
|           W    W  A    A  R    R  N    N  II  N    N   GGGG   !!!           |
|                                                                             |
|     For optimal performance we recommend to set                             |
|       NCORE = 2 up to number-of-cores-per-socket                            |
|     NCORE specifies how many cores store one orbital (NPAR=cpu/NCORE).      |
|     This setting can greatly improve the performance of VASP for DFT.       |
|     The default, NCORE=1 might be grossly inefficient on modern             |
|     multi-core architectures or massively parallel machines. Do your        |
|     own testing! More info at https://www.vasp.at/wiki/index.php/NCORE      |
|     Unfortunately you need to use the default for GW and RPA                |
|     calculations (for HF NCORE is supported but not extensively tested      |
|     yet).                                                                   |
|                                                                             |
 -----------------------------------------------------------------------------

 -----------------------------------------------------------------------------
|                                                                             |
|               ----> ADVICE to this user running VASP <----                  |
|                                                                             |
|     You have switched on vdW-DFT.                                           |
|     This routine was written and supplied by Jiri Klimes. We recommend      |
|     that you carefully read and cite the following publications:            |
|       J. Klimes, D.R. Bowler, A. Michelides                                 |
|          J. Phys.: Cond Matt. 22 022201 (2010)                              |
|       J. Klimes, D.R. Bowler, A. Michelides                                 |
|          Phys. Rev. B. 83, 195131 (2011)                                    |
|     and references therein.                                                 |
|                                                                             |
 -----------------------------------------------------------------------------

 POTCAR:    PAW_PBE C_h 06Feb2004                 
   VRHFIN =C: s2p2                                                                                  
   LEXCH  = PE                                                                                      
   EATOM  =   147.1560 eV,   10.8157 Ry                                                             
                                                                                                    
   TITEL  = PAW_PBE C_h 06Feb2004                                                                   
   LULTRA =        F    use ultrasoft PP ?                                                          
   IUNSCR =        1    unscreen: 0-lin 1-nonlin 2-no                                               
   RPACOR =    0.800    partial core radius                                                         
   POMASS =   12.011; ZVAL   =    4.000    mass and valenz                                          
   RCORE  =    1.100    outmost cutoff radius                                                       
   RWIGS  =    1.630; RWIGS  =    0.863    wigner-seitz radius (au A)                               
   ENMAX  =  700.000; ENMIN  =  500.000 eV                                                          
   ICORE  =        2    local potential                                                             
   LCOR   =        T    correct aug charges                                                         
   LPAW   =        T    paw PP                                                                      
   EAUG   =  946.768                                                                                
   DEXC   =    0.000                                                                                
   RMAX   =    1.128    core radius for proj-oper                                                   
   RAUG   =    1.300    factor for augmentation sphere                                              
   RDEP   =    1.162    radius for radial grids                                                     
   RDEPT  =    1.088    core radius for aug-charge                                                  
                                                                                                    
   Atomic configuration                                                                             
    4 entries                                                                                       
     n  l   j            E        occ.                                                              
     1  0  0.50      -273.3789   2.0000                                                             
     2  0  0.50       -13.7508   2.0000                                                             
     2  1  0.50        -5.2854   2.0000                                                             
     3  2  1.50        -5.4423   0.0000                                                             
   Description                                                                                      
     l       E           TYP  RCUT    TYP  RCUT                                                     
     0    -13.7508458     23  1.100                                                                 
     0     -8.2022199     23  1.100                                                                 
     1     -5.2854383     23  1.100                                                                 
     1      1.1560700     23  1.100                                                                 
     2     -5.4423304      7  1.100                                                                 
  local pseudopotential read in
  partial core-charges read in
  partial kinetic energy density read in
  atomic valenz-charges read in
  non local Contribution for L=           0  read in
    real space projection operators read in
  non local Contribution for L=           0  read in
    real space projection operators read in
  non local Contribution for L=           1  read in
    real space projection operators read in
  non local Contribution for L=           1  read in
    real space projection operators read in
    PAW grid and wavefunctions read in
 
   number of l-projection  operators is LMAX  =           4
   number of lm-projection operators is LMMAX =           8
 
 POTCAR:    PAW_PBE O_h 06Feb2004                 
   VRHFIN =O: s2p4                                                                                  
   LEXCH  = PE                                                                                      
   EATOM  =   432.3788 eV,   31.7789 Ry                                                             
                                                                                                    
   TITEL  = PAW_PBE O_h 06Feb2004                                                                   
   LULTRA =        F    use ultrasoft PP ?                                                          
   IUNSCR =        1    unscreen: 0-lin 1-nonlin 2-no                                               
   RPACOR =    0.800    partial core radius                                                         
   POMASS =   16.000; ZVAL   =    6.000    mass and valenz                                          
   RCORE  =    1.100    outmost cutoff radius                                                       
   RWIGS  =    1.400; RWIGS  =    0.741    wigner-seitz radius (au A)                               
   ENMAX  =  700.000; ENMIN  =  500.000 eV                                                          
   ICORE  =        2    local potential                                                             
   LCOR   =        T    correct aug charges                                                         
   LPAW   =        T    paw PP                                                                      
   EAUG   =  888.804                                                                                
   DEXC   =    0.000                                                                                
   RMAX   =    1.128    core radius for proj-oper                                                   
   RAUG   =    1.300    factor for augmentation sphere                                              
   RDEP   =    1.125    radius for radial grids                                                     
   RDEPT  =    1.088    core radius for aug-charge                                                  
                                                                                                    
   Atomic configuration                                                                             
    4 entries                                                                                       
     n  l   j            E        occ.                                                              
     1  0  0.50      -514.6923   2.0000                                                             
     2  0  0.50       -23.9615   2.0000                                                             
     2  1  0.50        -9.0305   4.0000                                                             
     3  2  1.50        -9.5241   0.0000                                                             
   Description                                                                                      
     l       E           TYP  RCUT    TYP  RCUT                                                     
     0    -23.9615319     23  1.100                                                                 
     0    -25.3221145     23  1.100                                                                 
     1     -9.0304911     23  1.100                                                                 
     1     -5.4802209     23  1.100                                                                 
     2     -9.5240782      7  1.100                                                                 
  local pseudopotential read in
  partial core-charges read in
  partial kinetic energy density read in
  atomic valenz-charges read in
  non local Contribution for L=           0  read in
    real space projection operators read in
  non local Contribution for L=           0  read in
    real space projection operators read in
  non local Contribution for L=           1  read in
    real space projection operators read in
  non local Contribution for L=           1  read in
    real space projection operators read in
    PAW grid and wavefunctions read in
 
   number of l-projection  operators is LMAX  =           4
   number of lm-projection operators is LMMAX =           8
 
 -----------------------------------------------------------------------------
|                                                                             |
|               ----> ADVICE to this user running VASP <----                  |
|                                                                             |
|     You have a (more or less) 'large supercell' and for larger cells it     |
|     might be more efficient to use real-space projection operators.         |
|     Therefore, try LREAL= Auto in the INCAR file.                           |
|     Mind: For very accurate calculation, you might also keep the            |
|     reciprocal projection scheme (i.e. LREAL=.FALSE.).                      |
|                                                                             |
 -----------------------------------------------------------------------------

 -----------------------------------------------------------------------------
|                                                                             |
|               ----> ADVICE to this user running VASP <----                  |
|                                                                             |
|     You enforced a specific xc type in the INCAR file but a different       |
|     type was found in the POTCAR file.                                      |
|     I HOPE YOU KNOW WHAT YOU ARE DOING!                                     |
|                                                                             |
 -----------------------------------------------------------------------------

  PAW_PBE C_h 06Feb2004                 :
 energy of atom  1       EATOM= -147.1560
 kinetic energy error for atom=    0.0031 (will be added to EATOM!!)
  PAW_PBE O_h 06Feb2004                 :
 energy of atom  2       EATOM= -432.3788
 kinetic energy error for atom=    0.0171 (will be added to EATOM!!)
 
 
 POSCAR:  C  O
  positions in cartesian coordinates
  No initial velocities read in
 exchange correlation table for  LEXCH =       42
   RHO(1)=    0.500       N(1)  =     2000
   RHO(2)=  100.500       N(2)  =     4000
 


--------------------------------------------------------------------------------------------------------


 ion  position               nearest neighbor table
   1  0.972  0.000  0.001-  50 1.42   2 1.42  42 1.42
   2  0.039  0.134  0.000-   5 1.42   7 1.42   1 1.42
   3  0.172  0.000  0.000-  42 1.42  44 1.42   4 1.42
   4  0.239  0.134  0.000-   7 1.42   3 1.42  23 1.42
   5  0.972  0.200  0.000-   6 1.42   2 1.42  34 1.42
   6  0.039  0.334  0.000-   5 1.42  21 1.42  11 1.42
   7  0.172  0.200  0.000-   8 1.42   2 1.42   4 1.42
   8  0.239  0.334  0.000-  13 1.42   7 1.42  21 1.42
   9  0.372  0.000  0.000-  10 1.42  44 1.42  46 1.42
  10  0.439  0.134  0.000-  27 1.42   9 1.42  23 1.42
  11  0.972  0.400  0.001-  12 1.42  36 1.42   6 1.42
  12  0.039  0.534  0.001-  25 1.42  11 1.42  17 1.42
  13  0.372  0.400  0.000-   8 1.42  14 1.42  24 1.42
  14  0.439  0.534  0.000-  13 1.42  29 1.42  19 1.42
  15  0.572  0.000  0.001-  46 1.42  16 1.42  48 1.42
  16  0.639  0.134  0.001-  15 1.42  35 1.42  27 1.42
  17  0.972  0.600  0.001-  38 1.42  18 1.42  12 1.42
  18  0.039  0.734  0.001-  43 1.42  41 1.42  17 1.42
  19  0.572  0.600  0.000-  14 1.42  20 1.42  32 1.42
  20  0.639  0.734  0.001-  49 1.42  19 1.42  47 1.42
  21  0.172  0.400  0.000-  22 1.42   8 1.42   6 1.42
  22  0.239  0.534  0.000-  21 1.42  29 1.42  25 1.42
  23  0.372  0.200  0.000-  10 1.42   4 1.42  24 1.42
  24  0.439  0.334  0.000-  13 1.42  31 1.42  23 1.42
  25  0.172  0.600  0.001-  26 1.42  12 1.42  22 1.42
  26  0.239  0.734  0.001-  25 1.42  45 1.42  43 1.42
  27  0.572  0.200  0.000-  10 1.42  28 1.42  16 1.42
  28  0.639  0.334  0.000-  27 1.42  37 1.42  31 1.42
  29  0.372  0.600  0.000-  22 1.42  14 1.42  30 1.42
  30  0.439  0.734  0.000-  47 1.42  29 1.42  45 1.42
  31  0.572  0.400  0.000-  32 1.42  28 1.42  24 1.42
  32  0.639  0.534  0.000-  31 1.42  39 1.42  19 1.42
  33  0.772  0.000  0.001-  34 1.42  48 1.42  50 1.42
  34  0.839  0.134  0.001-  33 1.42   5 1.42  35 1.42
  35  0.772  0.200  0.001-  36 1.42  16 1.42  34 1.42
  36  0.839  0.334  0.001-  35 1.42  11 1.42  37 1.42
  37  0.772  0.400  0.001-  28 1.42  38 1.42  36 1.42
  38  0.839  0.534  0.001-  17 1.42  37 1.42  39 1.42
  39  0.772  0.600  0.001-  40 1.42  38 1.42  32 1.42
  40  0.839  0.734  0.001-  39 1.42  49 1.42  41 1.42
  41  0.972  0.800  0.001-  18 1.42  42 1.42  40 1.42
  42  0.039  0.934  0.001-   3 1.42  41 1.42   1 1.42
  43  0.172  0.800  0.001-  18 1.42  44 1.42  26 1.42
  44  0.239  0.934  0.001-   9 1.42  43 1.42   3 1.42
  45  0.372  0.800  0.001-  26 1.42  46 1.42  30 1.42
  46  0.439  0.934  0.001-  15 1.42  45 1.42   9 1.42
  47  0.572  0.800  0.001-  30 1.42  48 1.42  20 1.42
  48  0.639  0.934  0.001-  47 1.42  33 1.42  15 1.42
  49  0.772  0.800  0.001-  50 1.42  20 1.42  40 1.42
  50  0.839  0.934  0.001-  49 1.42   1 1.42  33 1.42
  51  0.373  0.251  0.133-  52 1.18  53 1.18
  52  0.421  0.189  0.136-  51 1.18
  53  0.325  0.313  0.131-  51 1.18
 
  LATTYP: Found a hexagonal cell.
 ALAT       =    12.3250000000
 C/A-ratio  =     2.0283975659
  
  Lattice vectors:
  
 A1 = (  12.3250000000,   0.0000000000,   0.0000000000)
 A2 = (  -6.1625000000,  10.6737631016,   0.0000000000)
 A3 = (   0.0000000000,   0.0000000000,  25.0000000000)


Analysis of symmetry for initial positions (statically):
=====================================================================
 Subroutine PRICEL returns:
 Original cell was already a primitive cell.
 

 Routine SETGRP: Setting up the symmetry group for a 
 hexagonal supercell.


 Subroutine GETGRP returns: Found  1 space group operations
 (whereof  1 operations were pure point group operations)
 out of a pool of 24 trial point group operations.


The static configuration has the point symmetry C_1 .


Analysis of symmetry for dynamics (positions and initial velocities):
=====================================================================
 Subroutine PRICEL returns:
 Original cell was already a primitive cell.
 

 Routine SETGRP: Setting up the symmetry group for a 
 hexagonal supercell.


 Subroutine GETGRP returns: Found  1 space group operations
 (whereof  1 operations were pure point group operations)
 out of a pool of 24 trial point group operations.


The dynamic configuration has the point symmetry C_1 .


 Subroutine INISYM returns: Found  1 space group operations
 (whereof  1 operations are pure point group operations),
 and found     1 'primitive' translations


----------------------------------------------------------------------------------------

                                     Primitive cell                                     

  volume of cell :    3288.8533

  direct lattice vectors                    reciprocal lattice vectors
    12.325000000  0.000000000  0.000000000     0.081135903  0.046843835  0.000000000
    -6.162500000 10.673763102  0.000000000     0.000000000  0.093687670  0.000000000
     0.000000000  0.000000000 25.000000000     0.000000000  0.000000000  0.040000000

  length of vectors
    12.325000000 12.325000000 25.000000000     0.093687670  0.093687670  0.040000000

  position of ions in fractional coordinates (direct lattice)
     0.972450841  0.000320818  0.000566711
     0.039118382  0.133659505  0.000440173
     0.172443627  0.000295449  0.000499628
     0.239096278  0.133647917  0.000256468
     0.972452058  0.200322012  0.000485219
     0.039128360  0.333643771  0.000444150
     0.172451764  0.200354552  0.000219167
     0.239124359  0.333665720  0.000072260
     0.372465565  0.000324403  0.000453913
     0.439137473  0.133619939  0.000258338
     0.972449824  0.400309362  0.000547611
     0.039124981  0.533636789  0.000573410
     0.372416176  0.400329481  0.000000000
     0.439099602  0.533638981  0.000232414
     0.572443676  0.000312125  0.000559580
     0.639110207  0.133631751  0.000547275
     0.972452703  0.600305653  0.000640289
     0.039124495  0.733640359  0.000654513
     0.572433471  0.600306242  0.000402895
     0.639111888  0.733641879  0.000527905
     0.172454630  0.400318228  0.000289045
     0.239120185  0.533636548  0.000378509
     0.372459750  0.200295993  0.000088997
     0.439107096  0.333673419  0.000055762
     0.172452155  0.600311506  0.000524340
     0.239123371  0.733638574  0.000575129
     0.572431082  0.200289171  0.000413296
     0.639112773  0.333618630  0.000462376
     0.372439808  0.600308022  0.000362844
     0.439116090  0.733637858  0.000494190
     0.572469358  0.400320504  0.000339918
     0.639119408  0.533650873  0.000459610
     0.772445723  0.000315427  0.000596161
     0.839116277  0.133640203  0.000575306
     0.772440513  0.200307432  0.000581033
     0.839120241  0.333635728  0.000585467
     0.772446320  0.400298367  0.000582978
     0.839118980  0.533633964  0.000621100
     0.772456143  0.600308173  0.000595712
     0.839115033  0.733643180  0.000631512
     0.972455313  0.800305582  0.000652233
     0.039114714  0.933643289  0.000598051
     0.172457971  0.800312211  0.000623372
     0.239134551  0.933647193  0.000544850
     0.372451396  0.800316674  0.000551399
     0.439124489  0.933644769  0.000541430
     0.572441101  0.800310054  0.000534535
     0.639115067  0.933638985  0.000587644
     0.772445098  0.800313187  0.000602062
     0.839116614  0.933644338  0.000606830
     0.373021009  0.251226878  0.133483986
     0.420879805  0.189313152  0.136060860
     0.325156981  0.313167186  0.131105791

  ion indices of the primitive-cell ions
   primitive index   ion index
                 1           1
                 2           2
                 3           3
                 4           4
                 5           5
                 6           6
                 7           7
                 8           8
                 9           9
                10          10
                11          11
                12          12
                13          13
                14          14
                15          15
                16          16
                17          17
                18          18
                19          19
                20          20
                21          21
                22          22
                23          23
                24          24
                25          25
                26          26
                27          27
                28          28
                29          29
                30          30
                31          31
                32          32
                33          33
                34          34
                35          35
                36          36
                37          37
                38          38
                39          39
                40          40
                41          41
                42          42
                43          43
                44          44
                45          45
                46          46
                47          47
                48          48
                49          49
                50          50
                51          51
                52          52
                53          53

----------------------------------------------------------------------------------------

 
 
 KPOINTS: auto                                    

Automatic generation of k-mesh.
 Grid dimensions read from file:
 generate k-points for:    1    1    1

 Generating k-lattice:

  Cartesian coordinates                     Fractional coordinates (reciprocal lattice)
     0.081135903  0.046843835  0.000000000     1.000000000 -0.000000000  0.000000000
     0.000000000  0.093687670  0.000000000     0.000000000  1.000000000  0.000000000
     0.000000000  0.000000000  0.040000000     0.000000000  0.000000000  1.000000000

  Length of vectors
     0.093687670  0.093687670  0.040000000

  Shift w.r.t. Gamma in fractional coordinates (k-lattice)
     0.000000000  0.000000000  0.000000000

 
 Subroutine IBZKPT returns following result:
 ===========================================
 
 Found      1 irreducible k-points:
 
 Following reciprocal coordinates:
            Coordinates               Weight
  0.000000  0.000000  0.000000      1.000000
 
 Following cartesian coordinates:
            Coordinates               Weight
  0.000000  0.000000  0.000000      1.000000
 


--------------------------------------------------------------------------------------------------------




 Dimension of arrays:
   k-points           NKPTS =      1   k-points in BZ     NKDIM =      1   number of bands    NBANDS=    168
   number of dos      NEDOS =    301   number of ions     NIONS =     53
   non local maximal  LDIM  =      4   non local SUM 2l+1 LMDIM =      8
   total plane-waves  NPLWV = ******
   max r-space proj   IRMAX =      1   max aug-charges    IRDMAX=  10008
   dimension x,y,z NGX =   128 NGY =  128 NGZ =  270
   dimension x,y,z NGXF=   256 NGYF=  256 NGZF=  540
   support grid    NGXF=   256 NGYF=  256 NGZF=  540
   ions per type =              51   2
   NGX,Y,Z   is equivalent  to a cutoff of  17.27, 17.27, 17.95 a.u.
   NGXF,Y,Z  is equivalent  to a cutoff of  34.53, 34.53, 35.91 a.u.

 SYSTEM =  unknown system                          
 POSCAR =   C  O                                   

 Startparameter for this run:
   NWRITE =      2    write-flag & timer
   PREC   = accura    normal or accurate (medium, high low for compatibility)
   ISTART =      0    job   : 0-new  1-cont  2-samecut
   ICHARG =      2    charge: 1-file 2-atom 10-const
   ISPIN  =      1    spin polarized calculation?
   LNONCOLLINEAR =      F non collinear calculations
   LSORBIT =      F    spin-orbit coupling
   INIWAV =      1    electr: 0-lowe 1-rand  2-diag
   LASPH  =      T    aspherical Exc in radial PAW
 Electronic Relaxation 1
   ENCUT  = 1000.0 eV  73.50 Ry    8.57 a.u.  31.78 31.78 64.46*2*pi/ulx,y,z
   ENINI  = 1000.0     initial cutoff
   ENAUG  =  946.8 eV  augmentation charge cutoff
   NELM   =     60;   NELMIN=  2; NELMDL= -5     # of ELM steps 
   EDIFF  = 0.1E-06   stopping-criterion for ELM
   LREAL  =      F    real-space projection
   NLSPLINE    = F    spline interpolate recip. space projectors
   LCOMPAT=      F    compatible to vasp.4.4
   GGA_COMPAT  = T    GGA compatible to vasp.4.4-vasp.4.6
   LMAXPAW     = -100 max onsite density
   LMAXMIX     =    2 max onsite mixed and CHGCAR
   VOSKOWN=      0    Vosko Wilk Nusair interpolation
   ROPT   =    0.00000   0.00000
 Ionic relaxation
   EDIFFG = 0.1E-05   stopping-criterion for IOM
   NSW    =      0    number of steps for IOM
   NBLOCK =      1;   KBLOCK =      1    inner block; outer block 
   IBRION =     -1    ionic relax: 0-MD 1-quasi-New 2-CG
   NFREE  =      0    steps in history (QN), initial steepest desc. (CG)
   ISIF   =      0    stress and relaxation
   IWAVPR =     10    prediction:  0-non 1-charg 2-wave 3-comb
   ISYM   =      2    0-nonsym 1-usesym 2-fastsym
   LCORR  =      T    Harris-Foulkes like correction to forces

   POTIM  = 0.5000    time-step for ionic-motion
   TEIN   =    0.0    initial temperature
   TEBEG  =    0.0;   TEEND  =   0.0 temperature during run
   SMASS  =  -3.00    Nose mass-parameter (am)
   estimated Nose-frequenzy (Omega)   =  0.10E-29 period in steps = 0.13E+47 mass=  -0.347E-26a.u.
   SCALEE = 1.0000    scale energy and forces
   NPACO  =    256;   APACO  = 16.0  distance and # of slots for P.C.
   PSTRESS=    0.0 pullay stress

  Mass of Ions in am
   POMASS =  12.01 16.00
  Ionic Valenz
   ZVAL   =   4.00  6.00
  Atomic Wigner-Seitz radii
   RWIGS  =  -1.00 -1.00
  virtual crystal weights 
   VCA    =   1.00  1.00
   NELECT =     216.0000    total number of electrons
   NUPDOWN=      -1.0000    fix difference up-down

 DOS related values:
   EMIN   =  10.00;   EMAX   =-10.00  energy-range for DOS
   EFERMI =   0.00
   ISMEAR =     0;   SIGMA  =   0.01  broadening in eV -4-tet -1-fermi 0-gaus

 Electronic relaxation 2 (details)
   IALGO  =     58    algorithm
   LDIAG  =      T    sub-space diagonalisation (order eigenvalues)
   LSUBROT=      F    optimize rotation matrix (better conditioning)
   TURBO    =      0    0=normal 1=particle mesh
   IRESTART =      0    0=no restart 2=restart with 2 vectors
   NREBOOT  =      0    no. of reboots
   NMIN     =      0    reboot dimension
   EREF     =   0.00    reference energy to select bands
   IMIX   =      4    mixing-type and parameters
     AMIX     =   0.40;   BMIX     =  1.00
     AMIX_MAG =   1.60;   BMIX_MAG =  1.00
     AMIN     =   0.10
     WC   =   100.;   INIMIX=   1;  MIXPRE=   1;  MAXMIX= -45

 Intra band minimization:
   WEIMIN = 0.0000     energy-eigenvalue tresh-hold
   EBREAK =  0.15E-09  absolut break condition
   DEPER  =   0.30     relativ break condition  

   TIME   =   0.40     timestep for ELM

  volume/ion in A,a.u.               =      62.05       418.76
  Fermi-wavevector in a.u.,A,eV,Ry     =   0.660508  1.248179  5.935820  0.436270
  Thomas-Fermi vector in A             =   1.732977
 
 Write flags
   LWAVE        =      T    write WAVECAR
   LDOWNSAMPLE  =      F    k-point downsampling of WAVECAR
   LCHARG       =      T    write CHGCAR
   LVTOT        =      F    write LOCPOT, total local potential
   LVHAR        =      F    write LOCPOT, Hartree potential only
   LELF         =      F    write electronic localiz. function (ELF)
   LORBIT       =      0    0 simple, 1 ext, 2 COOP (PROOUT), +10 PAW based schemes


 Dipole corrections
   LMONO  =      F    monopole corrections only (constant potential shift)
   LDIPOL =      F    correct potential (dipole corrections)
   IDIPOL =      0    1-x, 2-y, 3-z, 4-all directions 
   EPSILON=  1.0000000 bulk dielectric constant

 Exchange correlation treatment:
   GGA     =    BO    GGA type
   LEXCH   =    42    internal setting for exchange type
   VOSKOWN=      0    Vosko Wilk Nusair interpolation
   LHFCALC =     F    Hartree Fock is set to
   LHFONE  =     F    Hartree Fock one center treatment
   AEXX    =    0.0000 exact exchange contribution

 vdW DFT:
   LUSE_VDW   =     T    switch on vdW DFT
   Zab_VDW    =-.8491    correlation parameter
   PARAM1     =0.1833
   PARAM2     =0.2200
   PARAM3     =0.0000
   -- rVV10 --
   BPARAM     = 6.3000
   CPARAM     = 0.0093

 Linear response parameters
   LEPSILON=     F    determine dielectric tensor
   LRPA    =     F    only Hartree local field effects (RPA)
   LNABLA  =     F    use nabla operator in PAW spheres
   LVEL    =     F    velocity operator in full k-point grid
   LINTERFAST=   F  fast interpolation
   KINTER  =     0    interpolate to denser k-point grid
   CSHIFT  =0.1000    complex shift for real part using Kramers Kronig
   OMEGAMAX=  -1.0    maximum frequency
   DEG_THRESHOLD= 0.2000000E-02 threshold for treating states as degnerate
   RTIME   =   -0.100 relaxation time in fs
  (WPLASMAI=    0.000 imaginary part of plasma frequency in eV, 0.658/RTIME)
   DFIELD  = 0.0000000 0.0000000 0.0000000 field for delta impulse in time
 
 Orbital magnetization related:
   ORBITALMAG=     F  switch on orbital magnetization
   LCHIMAG   =     F  perturbation theory with respect to B field
   DQ        =  0.001000  dq finite difference perturbation B field
   LLRAUG    =     F  two centre corrections for induced B field



--------------------------------------------------------------------------------------------------------


 Static calculation
 charge density and potential will be updated during run
 non-spin polarized calculation
 Conjugate gradient for all bands (Freysoldt, et al. PRB 79, 241103 (2009))
 preconditioned conjugated gradient                                        
 perform sub-space diagonalisation
    before iterative eigenvector-optimisation
 modified Broyden-mixing scheme, WC =      100.0
 initial mixing is a Kerker type mixing with AMIX =  0.4000 and BMIX =      1.0000
 Hartree-type preconditioning will be used
 using additional bands           60
 reciprocal scheme for non local part
 use partial core corrections
 no Harris-corrections to forces 
 use gradient corrections 
 use of overlap-Matrix (Vanderbilt PP)
 Gauss-broadening in eV      SIGMA  =   0.01


--------------------------------------------------------------------------------------------------------


  energy-cutoff  :     1000.00
  volume of cell :     3288.85
      direct lattice vectors                 reciprocal lattice vectors
    12.325000000  0.000000000  0.000000000     0.081135903  0.046843835  0.000000000
    -6.162500000 10.673763102  0.000000000     0.000000000  0.093687670  0.000000000
     0.000000000  0.000000000 25.000000000     0.000000000  0.000000000  0.040000000

  length of vectors
    12.325000000 12.325000000 25.000000000     0.093687670  0.093687670  0.040000000


 
 k-points in units of 2pi/SCALE and weight: auto                                    
   0.00000000  0.00000000  0.00000000       1.000
 
 k-points in reciprocal lattice and weights: auto                                    
   0.00000000  0.00000000  0.00000000       1.000
 
 position of ions in fractional coordinates (direct lattice) 
   0.97245084  0.00032082  0.00056671
   0.03911838  0.13365950  0.00044017
   0.17244363  0.00029545  0.00049963
   0.23909628  0.13364792  0.00025647
   0.97245206  0.20032201  0.00048522
   0.03912836  0.33364377  0.00044415
   0.17245176  0.20035455  0.00021917
   0.23912436  0.33366572  0.00007226
   0.37246557  0.00032440  0.00045391
   0.43913747  0.13361994  0.00025834
   0.97244982  0.40030936  0.00054761
   0.03912498  0.53363679  0.00057341
   0.37241618  0.40032948  0.00000000
   0.43909960  0.53363898  0.00023241
   0.57244368  0.00031213  0.00055958
   0.63911021  0.13363175  0.00054727
   0.97245270  0.60030565  0.00064029
   0.03912449  0.73364036  0.00065451
   0.57243347  0.60030624  0.00040289
   0.63911189  0.73364188  0.00052791
   0.17245463  0.40031823  0.00028904
   0.23912018  0.53363655  0.00037851
   0.37245975  0.20029599  0.00008900
   0.43910710  0.33367342  0.00005576
   0.17245216  0.60031151  0.00052434
   0.23912337  0.73363857  0.00057513
   0.57243108  0.20028917  0.00041330
   0.63911277  0.33361863  0.00046238
   0.37243981  0.60030802  0.00036284
   0.43911609  0.73363786  0.00049419
   0.57246936  0.40032050  0.00033992
   0.63911941  0.53365087  0.00045961
   0.77244572  0.00031543  0.00059616
   0.83911628  0.13364020  0.00057531
   0.77244051  0.20030743  0.00058103
   0.83912024  0.33363573  0.00058547
   0.77244632  0.40029837  0.00058298
   0.83911898  0.53363396  0.00062110
   0.77245614  0.60030817  0.00059571
   0.83911503  0.73364318  0.00063151
   0.97245531  0.80030558  0.00065223
   0.03911471  0.93364329  0.00059805
   0.17245797  0.80031221  0.00062337
   0.23913455  0.93364719  0.00054485
   0.37245140  0.80031667  0.00055140
   0.43912449  0.93364477  0.00054143
   0.57244110  0.80031005  0.00053453
   0.63911507  0.93363899  0.00058764
   0.77244510  0.80031319  0.00060206
   0.83911661  0.93364434  0.00060683
   0.37302101  0.25122688  0.13348399
   0.42087980  0.18931315  0.13606086
   0.32515698  0.31316719  0.13110579
 
 position of ions in cartesian coordinates  (Angst):
  11.98347958  0.00342433  0.01416777
  -0.34154264  1.42664989  0.01100432
   2.12354700  0.00315355  0.01249070
   2.12325634  1.42652621  0.00641170
  10.75098721  2.13818970  0.01213047
  -1.57382270  3.56123457  0.01110375
   0.89078307  2.13853702  0.00547917
   0.89099273  3.56146885  0.00180651
   4.58863896  0.00346260  0.01134782
   4.58893648  1.42622757  0.00645846
   9.51853763  4.27280730  0.01369027
  -2.80632132  5.69591267  0.01433526
   2.12299894  4.27302204  0.00000000
   2.12335237  5.69593607  0.00581036
   7.05344483  0.00333155  0.01398950
   7.05352764  1.42635365  0.01368187
   8.28609598  6.40752033  0.01600723
  -4.03884931  7.83070339  0.01636283
   3.35585531  6.40752662  0.01007237
   3.35598594  7.83071962  0.01319763
  -0.34145776  4.27290193  0.00722612
  -0.34137895  5.69591010  0.00946273
   3.35624236  2.13791198  0.00222492
   3.35573251  3.56155103  0.00139405
  -1.57394684  6.40758280  0.01310850
  -1.57385216  7.83068434  0.01437823
   5.82093107  2.13783916  0.01033241
   5.82114012  3.56096622  0.01155939
   0.89092245  6.40754561  0.00907111
   0.89106251  7.83067670  0.01235474
   4.58870974  4.27292622  0.00849795
   4.58852320  5.69606300  0.01149026
   9.51844972  0.00336679  0.01490402
   9.51855036  1.42644387  0.01438264
   8.28593477  2.13803408  0.01452582
   8.28612680  3.56114872  0.01463668
   7.05356221  4.27268994  0.01457444
   7.05362213  5.69588251  0.01552751
   5.82112285  6.40754723  0.01489279
   5.82101669  7.83073350  0.01578780
   7.05362858  8.54227219  0.01630582
  -5.27148792  9.96548729  0.01495127
  -2.80637951  8.54234295  0.01558431
  -2.80626749  9.96552896  0.01362126
  -0.34148805  8.54239058  0.01378498
  -0.34137657  9.96550309  0.01353576
   2.12342586  8.54231992  0.01336337
   2.12354296  9.96544135  0.01469111
   4.58845581  8.54235337  0.01505154
   4.58852904  9.96549848  0.01517076
   3.04929830  2.68153618  3.33709964
   4.02070129  2.02068374  3.40152150
   2.07766701  3.34267235  3.27764477
 


--------------------------------------------------------------------------------------------------------


 k-point   1 :   0.0000 0.0000 0.0000  plane waves:  236157

 maximum and minimum number of plane-waves per node :    236157   236157

 maximum number of plane-waves:    236157
 maximum index in each direction: 
   IXMAX=   31   IYMAX=   31   IZMAX=   64
   IXMIN=  -31   IYMIN=  -31   IZMIN=  -64


 serial   3D FFT for wavefunctions
 parallel 3D FFT for charge:
    minimum data exchange during FFTs selected (reduces bandwidth)


 total amount of memory used by VASP MPI-rank0   551512. kBytes
=======================================================================

   base      :      30000. kBytes
   nonl-proj :     230539. kBytes
   fftplans  :      40716. kBytes
   grid      :     216018. kBytes
   one-center:        162. kBytes
   wavefun   :      34077. kBytes
 
     INWAV:  cpu time    0.0000: real time    0.0000
 Broyden mixing: mesh for mixing (old mesh)
   NGX = 63   NGY = 63   NGZ =129
  (NGX  =256   NGY  =256   NGZ  =540)
  gives a total of 512001 points

 initial charge density was supplied:
 charge density of overlapping atoms calculated
 number of electron     216.0000000 magnetization 
 keeping initial charge density in first step


--------------------------------------------------------------------------------------------------------


 Maximum index for augmentation-charges          471 (set IRDMAX)


--------------------------------------------------------------------------------------------------------


 First call to EWALD:  gamma=   0.119
 Maximum number of real-space cells 4x 4x 2
 Maximum number of reciprocal cells 2x 2x 4

    FEWALD:  cpu time    0.0028: real time    0.0028


--------------------------------------- Iteration      1(   1)  ---------------------------------------


vdW kernel read from vdw_kernel.bindat
  0.0000  0.2424  0.5071  0.7962  1.1119  1.4567  1.8333  2.2446  2.6937  3.1842
  3.7199  4.3049  4.9438  5.6415  6.4036  7.2358  8.1446  9.1372 10.2212 11.4050
 12.6979 14.1099 15.6519 17.3360 19.1751 21.1837 23.3773 25.7729 28.3892 31.2465
 34.3669 37.7748 41.4965 45.5611 50.0000
 
    POTLOK:  cpu time    8.2534: real time    8.3560
    SETDIJ:  cpu time    0.2493: real time    0.2503
    TRIAL :  cpu time   15.3259: real time   15.4496
    CORREC:  cpu time    0.0006: real time    0.0008
    --------------------------------------------
      LOOP:  cpu time   23.8389: real time   24.0907

 eigenvalue-minimisations  :   336
 total energy-change (2. order) : 0.2651757E+04  (-0.1071990E+05)
 number of electron     216.0000000 magnetization 
 augmentation part      216.0000000 magnetization 

 Free energy of the ion-electron system (eV)
  ---------------------------------------------------
  alpha Z        PSCENC =        47.94900195
  Ewald energy   TEWEN  =     47232.99051633
  -Hartree energ DENC   =    -53301.77898108
  -exchange      EXHF   =         0.00000000
  -V(xc)+E(xc)   XCENC  =       398.34377777
  PAW double counting   =      6564.79108649    -6260.84737255
  entropy T*S    EENTRO =        -0.00000115
  eigenvalues    EBANDS =      -490.77448310
  atomic energy  EATOM  =      8461.08393172
  ---------------------------------------------------
  free energy    TOTEN  =      2651.75747638 eV

  energy without entropy =     2651.75747753  energy(sigma->0) =     2651.75747696


--------------------------------------------------------------------------------------------------------




--------------------------------------- Iteration      1(   2)  ---------------------------------------


    TRIAL :  cpu time   23.0226: real time   23.2101
    CORREC:  cpu time    0.0001: real time    0.0001
    --------------------------------------------
      LOOP:  cpu time   23.0447: real time   23.2380

 eigenvalue-minimisations  :   560
 total energy-change (2. order) :-0.2390705E+04  (-0.2221677E+04)
 number of electron     216.0000000 magnetization 
 augmentation part      216.0000000 magnetization 

 Free energy of the ion-electron system (eV)
  ---------------------------------------------------
  alpha Z        PSCENC =        47.94900195
  Ewald energy   TEWEN  =     47232.99051633
  -Hartree energ DENC   =    -53301.77898108
  -exchange      EXHF   =         0.00000000
  -V(xc)+E(xc)   XCENC  =       398.34377777
  PAW double counting   =      6564.79108649    -6260.84737255
  entropy T*S    EENTRO =        -0.00000000
  eigenvalues    EBANDS =     -2881.47958479
  atomic energy  EATOM  =      8461.08393172
  ---------------------------------------------------
  free energy    TOTEN  =       261.05237583 eV

  energy without entropy =      261.05237583  energy(sigma->0) =      261.05237583


--------------------------------------------------------------------------------------------------------




--------------------------------------- Iteration      1(   3)  ---------------------------------------


    TRIAL :  cpu time   19.1111: real time   19.2804
    CORREC:  cpu time    0.0001: real time    0.0001
    --------------------------------------------
      LOOP:  cpu time   19.1561: real time   19.3260

 eigenvalue-minimisations  :   448
 total energy-change (2. order) :-0.6806096E+03  (-0.6777470E+03)
 number of electron     216.0000000 magnetization 
 augmentation part      216.0000000 magnetization 

 Free energy of the ion-electron system (eV)
  ---------------------------------------------------
  alpha Z        PSCENC =        47.94900195
  Ewald energy   TEWEN  =     47232.99051633
  -Hartree energ DENC   =    -53301.77898108
  -exchange      EXHF   =         0.00000000
  -V(xc)+E(xc)   XCENC  =       398.34377777
  PAW double counting   =      6564.79108649    -6260.84737255
  entropy T*S    EENTRO =        -0.00000000
  eigenvalues    EBANDS =     -3562.08916277
  atomic energy  EATOM  =      8461.08393172
  ---------------------------------------------------
  free energy    TOTEN  =      -419.55720214 eV

  energy without entropy =     -419.55720214  energy(sigma->0) =     -419.55720214


--------------------------------------------------------------------------------------------------------




--------------------------------------- Iteration      1(   4)  ---------------------------------------


    TRIAL :  cpu time   19.1282: real time   19.2889
    CORREC:  cpu time    0.0002: real time    0.0002
    --------------------------------------------
      LOOP:  cpu time   19.1716: real time   19.3498

 eigenvalue-minimisations  :   448
 total energy-change (2. order) :-0.2585524E+02  (-0.2571929E+02)
 number of electron     216.0000000 magnetization 
 augmentation part      216.0000000 magnetization 

 Free energy of the ion-electron system (eV)
  ---------------------------------------------------
  alpha Z        PSCENC =        47.94900195
  Ewald energy   TEWEN  =     47232.99051633
  -Hartree energ DENC   =    -53301.77898108
  -exchange      EXHF   =         0.00000000
  -V(xc)+E(xc)   XCENC  =       398.34377777
  PAW double counting   =      6564.79108649    -6260.84737255
  entropy T*S    EENTRO =        -0.00000000
  eigenvalues    EBANDS =     -3587.94440588
  atomic energy  EATOM  =      8461.08393172
  ---------------------------------------------------
  free energy    TOTEN  =      -445.41244525 eV

  energy without entropy =     -445.41244525  energy(sigma->0) =     -445.41244525


--------------------------------------------------------------------------------------------------------




--------------------------------------- Iteration      1(   5)  ---------------------------------------


    TRIAL :  cpu time   19.1019: real time   19.2905
    CORREC:  cpu time    0.0001: real time    0.0001
    CHARGE:  cpu time    0.8108: real time    0.8174
    --------------------------------------------
      LOOP:  cpu time   19.9484: real time   20.1451

 eigenvalue-minimisations  :   448
 total energy-change (2. order) :-0.8544880E+00  (-0.8521456E+00)
 number of electron     216.0000000 magnetization 
 augmentation part       -0.2198702 magnetization 

 Free energy of the ion-electron system (eV)
  ---------------------------------------------------
  alpha Z        PSCENC =        47.94900195
  Ewald energy   TEWEN  =     47232.99051633
  -Hartree energ DENC   =    -53301.77898108
  -exchange      EXHF   =         0.00000000
  -V(xc)+E(xc)   XCENC  =       398.34377777
  PAW double counting   =      6564.79108649    -6260.84737255
  entropy T*S    EENTRO =        -0.00000000
  eigenvalues    EBANDS =     -3588.79889384
  atomic energy  EATOM  =      8461.08393172
  ---------------------------------------------------
  free energy    TOTEN  =      -446.26693321 eV

  energy without entropy =     -446.26693321  energy(sigma->0) =     -446.26693321


--------------------------------------------------------------------------------------------------------




--------------------------------------- Iteration      1(   6)  ---------------------------------------


    POTLOK:  cpu time    7.8634: real time    7.9247
    SETDIJ:  cpu time    0.3749: real time    0.3762
    TRIAL :  cpu time    6.8876: real time    6.9456
    CORREC:  cpu time    9.7193: real time    9.7828
    CHARGE:  cpu time    0.8047: real time    0.8099
    --------------------------------------------
      LOOP:  cpu time   25.6993: real time   25.8897

 eigenvalue-minimisations  :     0
 total energy-change (2. order) : 0.5494900E+02  (-0.1762453E+02)
 number of electron     216.0000000 magnetization 
 augmentation part       -0.3317995 magnetization 

 Free energy of the ion-electron system (eV)
  ---------------------------------------------------
  alpha Z        PSCENC =        47.94900195
  Ewald energy   TEWEN  =     47232.99051633
  -Hartree energ DENC   =    -54780.52567256
  -exchange      EXHF   =         0.00000000
  -V(xc)+E(xc)   XCENC  =       448.00792768
  PAW double counting   =     71568.83236339   -71273.04559791
  entropy T*S    EENTRO =        -0.00000000
  eigenvalues    EBANDS =     -2096.61040608
  atomic energy  EATOM  =      8461.08393172
  ---------------------------------------------------
  free energy    TOTEN  =      -391.31793548 eV

  energy without entropy =     -391.31793548  energy(sigma->0) =     -391.31793548


--------------------------------------------------------------------------------------------------------




--------------------------------------- Iteration      1(   7)  ---------------------------------------


    POTLOK:  cpu time    7.8982: real time    7.9529
    SETDIJ:  cpu time    0.3286: real time    0.3297
    TRIAL :  cpu time    6.8831: real time    6.9362
    CORREC:  cpu time    9.7665: real time    9.8333
    CHARGE:  cpu time    0.8002: real time    0.8061
    --------------------------------------------
      LOOP:  cpu time   25.6965: real time   25.8947

 eigenvalue-minimisations  :     0
 total energy-change (2. order) :-0.1766578E+02  (-0.1958673E+01)
 number of electron     216.0000000 magnetization 
 augmentation part       -0.3799607 magnetization 

 Free energy of the ion-electron system (eV)
  ---------------------------------------------------
  alpha Z        PSCENC =        47.94900195
  Ewald energy   TEWEN  =     47232.99051633
  -Hartree energ DENC   =    -54243.33575478
  -exchange      EXHF   =         0.00000000
  -V(xc)+E(xc)   XCENC  =       430.08206497
  PAW double counting   =     86553.88824663   -86254.85678115
  entropy T*S    EENTRO =        -0.00000000
  eigenvalues    EBANDS =     -2636.78494287
  atomic energy  EATOM  =      8461.08393172
  ---------------------------------------------------
  free energy    TOTEN  =      -408.98371719 eV

  energy without entropy =     -408.98371719  energy(sigma->0) =     -408.98371719


--------------------------------------------------------------------------------------------------------




--------------------------------------- Iteration      1(   8)  ---------------------------------------


    POTLOK:  cpu time    7.8992: real time    7.9506
    SETDIJ:  cpu time    0.3323: real time    0.3334
    TRIAL :  cpu time    6.8845: real time    6.9375
    CORREC:  cpu time    9.7784: real time    9.8472
    CHARGE:  cpu time    0.8027: real time    0.8080
    --------------------------------------------
      LOOP:  cpu time   25.7938: real time   25.9755

 eigenvalue-minimisations  :     0
 total energy-change (2. order) :-0.1959004E+01  (-0.5479795E+00)
 number of electron     216.0000000 magnetization 
 augmentation part       -0.3949177 magnetization 

 Free energy of the ion-electron system (eV)
  ---------------------------------------------------
  alpha Z        PSCENC =        47.94900195
  Ewald energy   TEWEN  =     47232.99051633
  -Hartree energ DENC   =    -54218.64409557
  -exchange      EXHF   =         0.00000000
  -V(xc)+E(xc)   XCENC  =       429.51619223
  PAW double counting   =     90982.41048933   -90682.95037913
  entropy T*S    EENTRO =        -0.00000000
  eigenvalues    EBANDS =     -2663.29837850
  atomic energy  EATOM  =      8461.08393172
  ---------------------------------------------------
  free energy    TOTEN  =      -410.94272164 eV

  energy without entropy =     -410.94272164  energy(sigma->0) =     -410.94272164


--------------------------------------------------------------------------------------------------------




--------------------------------------- Iteration      1(   9)  ---------------------------------------


    POTLOK:  cpu time    7.8955: real time    7.9492
    SETDIJ:  cpu time    0.3041: real time    0.3052
    TRIAL :  cpu time    6.8720: real time    6.9305
    CORREC:  cpu time    9.6990: real time    9.7778
    CHARGE:  cpu time    0.8041: real time    0.8105
    --------------------------------------------
      LOOP:  cpu time   25.6349: real time   25.8356

 eigenvalue-minimisations  :     0
 total energy-change (2. order) :-0.5477495E+00  (-0.2035017E+00)
 number of electron     216.0000000 magnetization 
 augmentation part       -0.3996340 magnetization 

 Free energy of the ion-electron system (eV)
  ---------------------------------------------------
  alpha Z        PSCENC =        47.94900195
  Ewald energy   TEWEN  =     47232.99051633
  -Hartree energ DENC   =    -54230.58625604
  -exchange      EXHF   =         0.00000000
  -V(xc)+E(xc)   XCENC  =       429.60796957
  PAW double counting   =     94061.73862887   -93762.08516062
  entropy T*S    EENTRO =        -0.00000000
  eigenvalues    EBANDS =     -2652.18910293
  atomic energy  EATOM  =      8461.08393172
  ---------------------------------------------------
  free energy    TOTEN  =      -411.49047115 eV

  energy without entropy =     -411.49047115  energy(sigma->0) =     -411.49047115


--------------------------------------------------------------------------------------------------------




--------------------------------------- Iteration      1(  10)  ---------------------------------------


    POTLOK:  cpu time    7.9012: real time    7.9544
    SETDIJ:  cpu time    0.3090: real time    0.3100
    TRIAL :  cpu time    6.8791: real time    6.9315
    CORREC:  cpu time    9.7189: real time    9.7809
    CHARGE:  cpu time    0.8035: real time    0.8087
    --------------------------------------------
      LOOP:  cpu time   25.6754: real time   25.8661

 eigenvalue-minimisations  :     0
 total energy-change (2. order) :-0.2029449E+00  (-0.8900887E-01)
 number of electron     216.0000000 magnetization 
 augmentation part       -0.3972261 magnetization 

 Free energy of the ion-electron system (eV)
  ---------------------------------------------------
  alpha Z        PSCENC =        47.94900195
  Ewald energy   TEWEN  =     47232.99051633
  -Hartree energ DENC   =    -54227.88105338
  -exchange      EXHF   =         0.00000000
  -V(xc)+E(xc)   XCENC  =       429.46898769
  PAW double counting   =     94825.84705147   -94526.08384872
  entropy T*S    EENTRO =        -0.00000000
  eigenvalues    EBANDS =     -2655.06800310
  atomic energy  EATOM  =      8461.08393172
  ---------------------------------------------------
  free energy    TOTEN  =      -411.69341604 eV

  energy without entropy =     -411.69341604  energy(sigma->0) =     -411.69341604


--------------------------------------------------------------------------------------------------------




--------------------------------------- Iteration      1(  11)  ---------------------------------------


    POTLOK:  cpu time    7.9354: real time    7.9930
    SETDIJ:  cpu time    0.3077: real time    0.3088
    TRIAL :  cpu time    6.8698: real time    6.9283
    CORREC:  cpu time    9.7526: real time    9.8254
    CHARGE:  cpu time    0.8009: real time    0.8060
    --------------------------------------------
      LOOP:  cpu time   25.7068: real time   25.9050

 eigenvalue-minimisations  :     0
 total energy-change (2. order) :-0.8865588E-01  (-0.3378637E-01)
 number of electron     216.0000000 magnetization 
 augmentation part       -0.3948781 magnetization 

 Free energy of the ion-electron system (eV)
  ---------------------------------------------------
  alpha Z        PSCENC =        47.94900195
  Ewald energy   TEWEN  =     47232.99051633
  -Hartree energ DENC   =    -54220.17362842
  -exchange      EXHF   =         0.00000000
  -V(xc)+E(xc)   XCENC  =       429.35521363
  PAW double counting   =     94437.01786664   -94137.25591336
  entropy T*S    EENTRO =        -0.00000000
  eigenvalues    EBANDS =     -2662.74906041
  atomic energy  EATOM  =      8461.08393172
  ---------------------------------------------------
  free energy    TOTEN  =      -411.78207192 eV

  energy without entropy =     -411.78207192  energy(sigma->0) =     -411.78207192


--------------------------------------------------------------------------------------------------------




--------------------------------------- Iteration      1(  12)  ---------------------------------------


    POTLOK:  cpu time    7.9236: real time    7.9794
    SETDIJ:  cpu time    0.2727: real time    0.2736
    TRIAL :  cpu time    6.8762: real time    6.9311
    CORREC:  cpu time    9.7372: real time    9.8002
    CHARGE:  cpu time    0.8029: real time    0.8080
    --------------------------------------------
      LOOP:  cpu time   25.6391: real time   25.8461

 eigenvalue-minimisations  :     0
 total energy-change (2. order) :-0.3377475E-01  (-0.1002314E-01)
 number of electron     216.0000000 magnetization 
 augmentation part       -0.3944767 magnetization 

 Free energy of the ion-electron system (eV)
  ---------------------------------------------------
  alpha Z        PSCENC =        47.94900195
  Ewald energy   TEWEN  =     47232.99051633
  -Hartree energ DENC   =    -54216.21510558
  -exchange      EXHF   =         0.00000000
  -V(xc)+E(xc)   XCENC  =       429.28465810
  PAW double counting   =     93990.50101664   -93690.76900824
  entropy T*S    EENTRO =        -0.00000000
  eigenvalues    EBANDS =     -2666.64085759
  atomic energy  EATOM  =      8461.08393172
  ---------------------------------------------------
  free energy    TOTEN  =      -411.81584666 eV

  energy without entropy =     -411.81584666  energy(sigma->0) =     -411.81584666


--------------------------------------------------------------------------------------------------------




--------------------------------------- Iteration      1(  13)  ---------------------------------------


    POTLOK:  cpu time    7.9042: real time    7.9558
    SETDIJ:  cpu time    0.3074: real time    0.3085
    TRIAL :  cpu time    6.8732: real time    6.9268
    CORREC:  cpu time    9.7378: real time    9.8026
    CHARGE:  cpu time    0.8016: real time    0.8067
    --------------------------------------------
      LOOP:  cpu time   25.6839: real time   25.8612

 eigenvalue-minimisations  :     0
 total energy-change (2. order) :-0.1006659E-01  (-0.2607744E-02)
 number of electron     216.0000000 magnetization 
 augmentation part       -0.3941954 magnetization 

 Free energy of the ion-electron system (eV)
  ---------------------------------------------------
  alpha Z        PSCENC =        47.94900195
  Ewald energy   TEWEN  =     47232.99051633
  -Hartree energ DENC   =    -54215.26737464
  -exchange      EXHF   =         0.00000000
  -V(xc)+E(xc)   XCENC  =       429.25047581
  PAW double counting   =     93775.63920389   -93475.92063234
  entropy T*S    EENTRO =        -0.00000000
  eigenvalues    EBANDS =     -2667.55103597
  atomic energy  EATOM  =      8461.08393172
  ---------------------------------------------------
  free energy    TOTEN  =      -411.82591325 eV

  energy without entropy =     -411.82591325  energy(sigma->0) =     -411.82591325


--------------------------------------------------------------------------------------------------------




--------------------------------------- Iteration      1(  14)  ---------------------------------------


    POTLOK:  cpu time    7.8937: real time    7.9487
    SETDIJ:  cpu time    0.3157: real time    0.3167
    TRIAL :  cpu time    6.8764: real time    6.9292
    CORREC:  cpu time    9.7905: real time    9.8616
    CHARGE:  cpu time    0.8055: real time    0.8106
    --------------------------------------------
      LOOP:  cpu time   25.7293: real time   25.9182

 eigenvalue-minimisations  :     0
 total energy-change (2. order) :-0.2630343E-02  (-0.6605832E-03)
 number of electron     216.0000000 magnetization 
 augmentation part       -0.3941100 magnetization 

 Free energy of the ion-electron system (eV)
  ---------------------------------------------------
  alpha Z        PSCENC =        47.94900195
  Ewald energy   TEWEN  =     47232.99051633
  -Hartree energ DENC   =    -54215.16723226
  -exchange      EXHF   =         0.00000000
  -V(xc)+E(xc)   XCENC  =       429.24420010
  PAW double counting   =     93735.05503150   -93435.34228436
  entropy T*S    EENTRO =        -0.00000000
  eigenvalues    EBANDS =     -2667.64170859
  atomic energy  EATOM  =      8461.08393172
  ---------------------------------------------------
  free energy    TOTEN  =      -411.82854360 eV

  energy without entropy =     -411.82854360  energy(sigma->0) =     -411.82854360


--------------------------------------------------------------------------------------------------------




--------------------------------------- Iteration      1(  15)  ---------------------------------------


    POTLOK:  cpu time    7.8701: real time    7.9208
    SETDIJ:  cpu time    0.3612: real time    0.3624
    TRIAL :  cpu time    6.8765: real time    6.9323
    CORREC:  cpu time    9.7393: real time    9.8064
    CHARGE:  cpu time    0.8032: real time    0.8082
    --------------------------------------------
      LOOP:  cpu time   25.7057: real time   25.8863

 eigenvalue-minimisations  :     0
 total energy-change (2. order) :-0.6694317E-03  (-0.1830794E-03)
 number of electron     216.0000000 magnetization 
 augmentation part       -0.3940123 magnetization 

 Free energy of the ion-electron system (eV)
  ---------------------------------------------------
  alpha Z        PSCENC =        47.94900195
  Ewald energy   TEWEN  =     47232.99051633
  -Hartree energ DENC   =    -54214.96597450
  -exchange      EXHF   =         0.00000000
  -V(xc)+E(xc)   XCENC  =       429.23439854
  PAW double counting   =     93733.87463588   -93434.16218065
  entropy T*S    EENTRO =        -0.00000000
  eigenvalues    EBANDS =     -2667.83354230
  atomic energy  EATOM  =      8461.08393172
  ---------------------------------------------------
  free energy    TOTEN  =      -411.82921303 eV

  energy without entropy =     -411.82921303  energy(sigma->0) =     -411.82921303


--------------------------------------------------------------------------------------------------------




--------------------------------------- Iteration      1(  16)  ---------------------------------------


    POTLOK:  cpu time    7.8887: real time    7.9419
    SETDIJ:  cpu time    0.3329: real time    0.3341
    TRIAL :  cpu time    6.8853: real time    6.9405
    CORREC:  cpu time    9.7067: real time    9.7753
    CHARGE:  cpu time    0.8036: real time    0.8088
    --------------------------------------------
      LOOP:  cpu time   25.6596: real time   25.8474

 eigenvalue-minimisations  :     0
 total energy-change (2. order) :-0.1878103E-03  (-0.6051686E-04)
 number of electron     216.0000000 magnetization 
 augmentation part       -0.3939166 magnetization 

 Free energy of the ion-electron system (eV)
  ---------------------------------------------------
  alpha Z        PSCENC =        47.94900195
  Ewald energy   TEWEN  =     47232.99051633
  -Hartree energ DENC   =    -54215.03631135
  -exchange      EXHF   =         0.00000000
  -V(xc)+E(xc)   XCENC  =       429.23530128
  PAW double counting   =     93717.71553291   -93418.00346273
  entropy T*S    EENTRO =        -0.00000000
  eigenvalues    EBANDS =     -2667.76391096
  atomic energy  EATOM  =      8461.08393172
  ---------------------------------------------------
  free energy    TOTEN  =      -411.82940084 eV

  energy without entropy =     -411.82940084  energy(sigma->0) =     -411.82940084


--------------------------------------------------------------------------------------------------------




--------------------------------------- Iteration      1(  17)  ---------------------------------------


    POTLOK:  cpu time    7.8965: real time    7.9472
    SETDIJ:  cpu time    0.3043: real time    0.3053
    TRIAL :  cpu time    6.8917: real time    6.9431
    CORREC:  cpu time    9.7160: real time    9.7787
    CHARGE:  cpu time    0.8040: real time    0.8090
    --------------------------------------------
      LOOP:  cpu time   25.6731: real time   25.8456

 eigenvalue-minimisations  :     0
 total energy-change (2. order) :-0.6295895E-04  (-0.2171125E-04)
 number of electron     216.0000000 magnetization 
 augmentation part       -0.3939176 magnetization 

 Free energy of the ion-electron system (eV)
  ---------------------------------------------------
  alpha Z        PSCENC =        47.94900195
  Ewald energy   TEWEN  =     47232.99051633
  -Hartree energ DENC   =    -54215.18295625
  -exchange      EXHF   =         0.00000000
  -V(xc)+E(xc)   XCENC  =       429.23975840
  PAW double counting   =     93702.02003880   -93402.30842255
  entropy T*S    EENTRO =        -0.00000000
  eigenvalues    EBANDS =     -2667.62133221
  atomic energy  EATOM  =      8461.08393172
  ---------------------------------------------------
  free energy    TOTEN  =      -411.82946380 eV

  energy without entropy =     -411.82946380  energy(sigma->0) =     -411.82946380


--------------------------------------------------------------------------------------------------------




--------------------------------------- Iteration      1(  18)  ---------------------------------------


    POTLOK:  cpu time    7.8803: real time    7.9320
    SETDIJ:  cpu time    0.3165: real time    0.3176
    TRIAL :  cpu time    6.8712: real time    6.9278
    CORREC:  cpu time    9.7199: real time    9.7994
    CHARGE:  cpu time    0.8024: real time    0.8084
    --------------------------------------------
      LOOP:  cpu time   25.6360: real time   25.8353

 eigenvalue-minimisations  :     0
 total energy-change (2. order) :-0.2304409E-04  (-0.8357988E-05)
 number of electron     216.0000000 magnetization 
 augmentation part       -0.3939345 magnetization 

 Free energy of the ion-electron system (eV)
  ---------------------------------------------------
  alpha Z        PSCENC =        47.94900195
  Ewald energy   TEWEN  =     47232.99051633
  -Hartree energ DENC   =    -54215.20351896
  -exchange      EXHF   =         0.00000000
  -V(xc)+E(xc)   XCENC  =       429.23976210
  PAW double counting   =     93698.54847679   -93398.83636238
  entropy T*S    EENTRO =        -0.00000000
  eigenvalues    EBANDS =     -2667.60129439
  atomic energy  EATOM  =      8461.08393172
  ---------------------------------------------------
  free energy    TOTEN  =      -411.82948684 eV

  energy without entropy =     -411.82948684  energy(sigma->0) =     -411.82948684


--------------------------------------------------------------------------------------------------------




--------------------------------------- Iteration      1(  19)  ---------------------------------------


    POTLOK:  cpu time    7.8638: real time    7.9285
    SETDIJ:  cpu time    0.3613: real time    0.3626
    TRIAL :  cpu time    6.8687: real time    6.9298
    CORREC:  cpu time    9.7360: real time    9.8174
    CHARGE:  cpu time    0.8046: real time    0.8106
    --------------------------------------------
      LOOP:  cpu time   25.6691: real time   25.9122

 eigenvalue-minimisations  :     0
 total energy-change (2. order) :-0.8988005E-05  (-0.3613492E-05)
 number of electron     216.0000000 magnetization 
 augmentation part       -0.3939555 magnetization 

 Free energy of the ion-electron system (eV)
  ---------------------------------------------------
  alpha Z        PSCENC =        47.94900195
  Ewald energy   TEWEN  =     47232.99051633
  -Hartree energ DENC   =    -54215.23046058
  -exchange      EXHF   =         0.00000000
  -V(xc)+E(xc)   XCENC  =       429.24065460
  PAW double counting   =     93702.36495386   -93402.65260166
  entropy T*S    EENTRO =        -0.00000000
  eigenvalues    EBANDS =     -2667.57549205
  atomic energy  EATOM  =      8461.08393172
  ---------------------------------------------------
  free energy    TOTEN  =      -411.82949583 eV

  energy without entropy =     -411.82949583  energy(sigma->0) =     -411.82949583


--------------------------------------------------------------------------------------------------------




--------------------------------------- Iteration      1(  20)  ---------------------------------------


    POTLOK:  cpu time    7.9114: real time    7.9644
    SETDIJ:  cpu time    0.2731: real time    0.2741
    TRIAL :  cpu time    6.8798: real time    6.9342
    CORREC:  cpu time    9.7071: real time    9.7771
    CHARGE:  cpu time    0.8021: real time    0.8073
    --------------------------------------------
      LOOP:  cpu time   25.6257: real time   25.8163

 eigenvalue-minimisations  :     0
 total energy-change (2. order) :-0.3850961E-05  (-0.1570625E-05)
 number of electron     216.0000000 magnetization 
 augmentation part       -0.3939716 magnetization 

 Free energy of the ion-electron system (eV)
  ---------------------------------------------------
  alpha Z        PSCENC =        47.94900195
  Ewald energy   TEWEN  =     47232.99051633
  -Hartree energ DENC   =    -54215.25277124
  -exchange      EXHF   =         0.00000000
  -V(xc)+E(xc)   XCENC  =       429.24130185
  PAW double counting   =     93707.25389055   -93407.54141156
  entropy T*S    EENTRO =        -0.00000000
  eigenvalues    EBANDS =     -2667.55395928
  atomic energy  EATOM  =      8461.08393172
  ---------------------------------------------------
  free energy    TOTEN  =      -411.82949968 eV

  energy without entropy =     -411.82949968  energy(sigma->0) =     -411.82949968


--------------------------------------------------------------------------------------------------------




--------------------------------------- Iteration      1(  21)  ---------------------------------------


    POTLOK:  cpu time    7.8955: real time    7.9481
    SETDIJ:  cpu time    0.3266: real time    0.3278
    TRIAL :  cpu time    6.8586: real time    6.9310
    CORREC:  cpu time    9.7229: real time    9.7882
    CHARGE:  cpu time    0.8059: real time    0.8110
    --------------------------------------------
      LOOP:  cpu time   25.6686: real time   25.8664

 eigenvalue-minimisations  :     0
 total energy-change (2. order) :-0.1630440E-05  (-0.6623611E-06)
 number of electron     216.0000000 magnetization 
 augmentation part       -0.3939688 magnetization 

 Free energy of the ion-electron system (eV)
  ---------------------------------------------------
  alpha Z        PSCENC =        47.94900195
  Ewald energy   TEWEN  =     47232.99051633
  -Hartree energ DENC   =    -54215.25402696
  -exchange      EXHF   =         0.00000000
  -V(xc)+E(xc)   XCENC  =       429.24111306
  PAW double counting   =     93709.94573367   -93410.23315492
  entropy T*S    EENTRO =        -0.00000000
  eigenvalues    EBANDS =     -2667.55261616
  atomic energy  EATOM  =      8461.08393172
  ---------------------------------------------------
  free energy    TOTEN  =      -411.82950131 eV

  energy without entropy =     -411.82950131  energy(sigma->0) =     -411.82950131


--------------------------------------------------------------------------------------------------------




--------------------------------------- Iteration      1(  22)  ---------------------------------------


    POTLOK:  cpu time    7.9136: real time    7.9658
    SETDIJ:  cpu time    0.3993: real time    0.4008
    TRIAL :  cpu time    6.8873: real time    6.9401
    CORREC:  cpu time    9.7222: real time    9.7884
    CHARGE:  cpu time    0.8064: real time    0.8115
    --------------------------------------------
      LOOP:  cpu time   25.7610: real time   25.9442

 eigenvalue-minimisations  :     0
 total energy-change (2. order) :-0.6438495E-06  (-0.3416796E-06)
 number of electron     216.0000000 magnetization 
 augmentation part       -0.3939677 magnetization 

 Free energy of the ion-electron system (eV)
  ---------------------------------------------------
  alpha Z        PSCENC =        47.94900195
  Ewald energy   TEWEN  =     47232.99051633
  -Hartree energ DENC   =    -54215.25874897
  -exchange      EXHF   =         0.00000000
  -V(xc)+E(xc)   XCENC  =       429.24126198
  PAW double counting   =     93709.95708566   -93410.24458418
  entropy T*S    EENTRO =        -0.00000000
  eigenvalues    EBANDS =     -2667.54796645
  atomic energy  EATOM  =      8461.08393172
  ---------------------------------------------------
  free energy    TOTEN  =      -411.82950196 eV

  energy without entropy =     -411.82950196  energy(sigma->0) =     -411.82950196


--------------------------------------------------------------------------------------------------------




--------------------------------------- Iteration      1(  23)  ---------------------------------------


    POTLOK:  cpu time    7.8782: real time    7.9329
    SETDIJ:  cpu time    0.3244: real time    0.3257
    TRIAL :  cpu time    6.8659: real time    6.9285
    CORREC:  cpu time    9.6662: real time    9.7595
    CHARGE:  cpu time    0.8003: real time    0.8064
    --------------------------------------------
      LOOP:  cpu time   25.5772: real time   25.7996

 eigenvalue-minimisations  :     0
 total energy-change (2. order) :-0.2588640E-06  (-0.2526068E-06)
 number of electron     216.0000000 magnetization 
 augmentation part       -0.3939646 magnetization 

 Free energy of the ion-electron system (eV)
  ---------------------------------------------------
  alpha Z        PSCENC =        47.94900195
  Ewald energy   TEWEN  =     47232.99051633
  -Hartree energ DENC   =    -54215.25060343
  -exchange      EXHF   =         0.00000000
  -V(xc)+E(xc)   XCENC  =       429.24097012
  PAW double counting   =     93708.69476063   -93408.98227784
  entropy T*S    EENTRO =        -0.00000000
  eigenvalues    EBANDS =     -2667.55580169
  atomic energy  EATOM  =      8461.08393172
  ---------------------------------------------------
  free energy    TOTEN  =      -411.82950221 eV

  energy without entropy =     -411.82950221  energy(sigma->0) =     -411.82950221


--------------------------------------------------------------------------------------------------------




--------------------------------------- Iteration      1(  24)  ---------------------------------------


    POTLOK:  cpu time    7.8675: real time    7.9325
    SETDIJ:  cpu time    0.3773: real time    0.3788
    TRIAL :  cpu time    6.8758: real time    6.9387
    CORREC:  cpu time    9.7103: real time    9.7898
    CHARGE:  cpu time    0.8025: real time    0.8085
    --------------------------------------------
      LOOP:  cpu time   25.6717: real time   25.8910

 eigenvalue-minimisations  :     0
 total energy-change (2. order) : 0.9404903E-07  (-0.2372593E-06)
 number of electron     216.0000000 magnetization 
 augmentation part       -0.3939704 magnetization 

 Free energy of the ion-electron system (eV)
  ---------------------------------------------------
  alpha Z        PSCENC =        47.94900195
  Ewald energy   TEWEN  =     47232.99051633
  -Hartree energ DENC   =    -54215.24787037
  -exchange      EXHF   =         0.00000000
  -V(xc)+E(xc)   XCENC  =       429.24108363
  PAW double counting   =     93707.14366027   -93407.43126418
  entropy T*S    EENTRO =        -0.00000000
  eigenvalues    EBANDS =     -2667.55856147
  atomic energy  EATOM  =      8461.08393172
  ---------------------------------------------------
  free energy    TOTEN  =      -411.82950212 eV

  energy without entropy =     -411.82950212  energy(sigma->0) =     -411.82950212


--------------------------------------------------------------------------------------------------------




--------------------------------------- Iteration      1(  25)  ---------------------------------------


    POTLOK:  cpu time    7.8653: real time    7.9410
    SETDIJ:  cpu time    0.3082: real time    0.3094
    TRIAL :  cpu time    6.8682: real time    6.9302
    CORREC:  cpu time    9.7129: real time    9.7935
    CHARGE:  cpu time    0.8027: real time    0.8090
    --------------------------------------------
      LOOP:  cpu time   25.6142: real time   25.8443

 eigenvalue-minimisations  :     0
 total energy-change (2. order) :-0.2192537E-06  (-0.1034381E-06)
 number of electron     216.0000000 magnetization 
 augmentation part       -0.3939718 magnetization 

 Free energy of the ion-electron system (eV)
  ---------------------------------------------------
  alpha Z        PSCENC =        47.94900195
  Ewald energy   TEWEN  =     47232.99051633
  -Hartree energ DENC   =    -54215.24355171
  -exchange      EXHF   =         0.00000000
  -V(xc)+E(xc)   XCENC  =       429.24083738
  PAW double counting   =     93707.45845617   -93407.74598710
  entropy T*S    EENTRO =        -0.00000000
  eigenvalues    EBANDS =     -2667.56270708
  atomic energy  EATOM  =      8461.08393172
  ---------------------------------------------------
  free energy    TOTEN  =      -411.82950234 eV

  energy without entropy =     -411.82950234  energy(sigma->0) =     -411.82950234


--------------------------------------------------------------------------------------------------------




--------------------------------------- Iteration      1(  26)  ---------------------------------------


    POTLOK:  cpu time    7.8853: real time    7.9546
    SETDIJ:  cpu time    0.3203: real time    0.3215
    TRIAL :  cpu time    6.8663: real time    6.9295
    CORREC:  cpu time    9.7756: real time    9.8451
    EDDIAG:  cpu time    1.1055: real time    1.1138
    CHARGE:  cpu time    0.8011: real time    0.8062
    --------------------------------------------
      LOOP:  cpu time   26.8069: real time   27.0290

 eigenvalue-minimisations  :     0
 total energy-change (2. order) :-0.6319897E-07  (-0.4141937E-07)
 number of electron     216.0000000 magnetization 
 augmentation part       -0.3939733 magnetization 

 Free energy of the ion-electron system (eV)
  ---------------------------------------------------
  alpha Z        PSCENC =        47.94900195
  Ewald energy   TEWEN  =     47232.99051633
  -Hartree energ DENC   =    -54215.24729791
  -exchange      EXHF   =         0.00000000
  -V(xc)+E(xc)   XCENC  =       429.24098449
  PAW double counting   =     93708.04183050   -93408.32935341
  entropy T*S    EENTRO =        -0.00000000
  eigenvalues    EBANDS =     -2667.55911607
  atomic energy  EATOM  =      8461.08393172
  ---------------------------------------------------
  free energy    TOTEN  =      -411.82950240 eV

  energy without entropy =     -411.82950240  energy(sigma->0) =     -411.82950240


--------------------------------------------------------------------------------------------------------


  average scaling for gradient   0.8989


 average (electrostatic) potential at core
  the test charge radii are     0.5770  0.5955
  (the norm of the test charge is              1.0000)
       1 -86.3416       2 -86.3372       3 -86.3470       4 -86.3531       5 -86.3340
       6 -86.3310       7 -86.3418       8 -86.3283       9 -86.3335      10 -86.3374
      11 -86.3333      12 -86.3369      13 -86.3355      14 -86.3327      15 -86.3310
      16 -86.3311      17 -86.3364      18 -86.3384      19 -86.3408      20 -86.3365
      21 -86.3272      22 -86.3291      23 -86.3526      24 -86.3516      25 -86.3325
[...]
      9     -21.5334      2.00000
     10     -19.7112      2.00000
     11     -19.7103      2.00000
     12     -19.7065      2.00000
     13     -19.7061      2.00000
     14     -19.7048      2.00000
     15     -19.7047      2.00000
     16     -18.8188      2.00000
     17     -18.8179      2.00000
     18     -18.8168      2.00000
     19     -18.8152      2.00000
     20     -18.8147      2.00000
     21     -18.8144      2.00000
     22     -16.6763      2.00000
     23     -16.6755      2.00000
     24     -16.6736      2.00000
     25     -16.6732      2.00000
     26     -16.6700      2.00000
     27     -16.6697      2.00000
     28     -15.6823      2.00000
     29     -15.6818      2.00000
     30     -15.6792      2.00000
     31     -15.6788      2.00000
     32     -15.6781      2.00000
     33     -15.6779      2.00000
     34     -14.3426      2.00000
     35     -14.3424      2.00000
     36     -14.3420      2.00000
     37     -14.3410      2.00000
     38     -14.3408      2.00000
     39     -14.3402      2.00000
     40     -12.6255      2.00000
     41     -11.9895      2.00000
     42     -11.9893      2.00000
     43     -11.9876      2.00000
     44     -11.9873      2.00000
     45     -11.9873      2.00000
     46     -11.9870      2.00000
     47     -11.8797      2.00000
     48     -11.8792      2.00000
     49     -11.8776      2.00000
     50     -11.8773      2.00000
     51     -11.8749      2.00000
     52     -11.8747      2.00000
     53     -11.4867      2.00000
     54     -11.4324      2.00000
     55     -11.3900      2.00000
     56     -10.6209      2.00000
     57     -10.5134      2.00000
     58     -10.5133      2.00000
     59     -10.5130      2.00000
     60     -10.5126      2.00000
     61     -10.5116      2.00000
     62     -10.5114      2.00000
     63      -9.5265      2.00000
     64      -9.5197      2.00000
     65      -9.5195      2.00000
     66      -9.5154      2.00000
     67      -9.5141      2.00000
     68      -9.5088      2.00000
     69      -9.2757      2.00000
     70      -9.2728      2.00000
     71      -9.2723      2.00000
     72      -9.2713      2.00000
     73      -9.2708      2.00000
     74      -9.2696      2.00000
     75      -9.2147      2.00000
     76      -9.2143      2.00000
     77      -9.2141      2.00000
     78      -9.2122      2.00000
     79      -9.2116      2.00000
     80      -9.2106      2.00000
     81      -7.8978      2.00000
     82      -7.8694      2.00000
     83      -7.6368      2.00000
     84      -7.6367      2.00000
     85      -7.6362      2.00000
     86      -7.6349      2.00000
     87      -7.6321      2.00000
     88      -7.6321      2.00000
     89      -7.4016      2.00000
     90      -7.4001      2.00000
     91      -7.3914      2.00000
     92      -7.3910      2.00000
     93      -7.3895      2.00000
     94      -7.3599      2.00000
     95      -6.5073      2.00000
     96      -6.5046      2.00000
     97      -6.5013      2.00000
     98      -6.4969      2.00000
     99      -6.4955      2.00000
    100      -6.4863      2.00000
    101      -6.1749      2.00000
    102      -6.1726      2.00000
    103      -4.5297      2.00000
    104      -4.5269      2.00000
    105      -4.5238      2.00000
    106      -4.5224      2.00000
    107      -4.5173      2.00000
    108      -4.5168      2.00000
    109      -1.7356      0.00000
    110      -1.7343      0.00000
    111      -1.7266      0.00000
    112      -1.7252      0.00000
    113      -1.7233      0.00000
    114      -1.7222      0.00000
    115      -0.8952      0.00000
    116      -0.2149      0.00000
    117       0.1181      0.00000
    118       0.1230      0.00000
    119       0.1256      0.00000
    120       0.1321      0.00000
    121       0.1333      0.00000
    122       0.1351      0.00000
    123       0.1658      0.00000
    124       0.2485      0.00000
    125       0.2664      0.00000
    126       0.3220      0.00000
    127       0.5591      0.00000
    128       0.5722      0.00000
    129       0.5786      0.00000
    130       0.5918      0.00000
    131       0.6915      0.00000
    132       0.8581      0.00000
    133       1.0117      0.00000
    134       1.1409      0.00000
    135       1.1712      0.00000
    136       1.2052      0.00000
    137       1.2124      0.00000
    138       1.2283      0.00000
    139       1.3321      0.00000
    140       1.4350      0.00000
    141       1.6177      0.00000
    142       1.6491      0.00000
    143       1.6607      0.00000
    144       1.6654      0.00000
    145       1.6726      0.00000
    146       1.8467      0.00000
    147       1.8543      0.00000
    148       1.8560      0.00000
    149       1.8627      0.00000
    150       1.8644      0.00000
    151       1.8651      0.00000
    152       1.8700      0.00000
    153       2.0649      0.00000
    154       2.1174      0.00000
    155       2.1474      0.00000
    156       2.1610      0.00000
    157       2.2152      0.00000
    158       2.2782      0.00000
    159       2.3303      0.00000
    160       2.3695      0.00000
    161       2.4957      0.00000
    162       2.5932      0.00000
    163       3.9285      0.00000
    164       4.1983      0.00000
    165       4.5084      0.00000
    166       4.5442      0.00000
    167       4.5540      0.00000
    168       4.5552      0.00000


--------------------------------------------------------------------------------------------------------


 soft charge-density along one line, spin component           1
         0         1         2         3         4         5         6         7         8         9
 total charge-density along one line
 
 pseudopotential strength for first ion, spin component:           1
 12.688  21.351  -0.000   0.000   0.000  -0.000   0.000   0.000
 21.351  35.929  -0.000   0.000   0.000  -0.000   0.000   0.000
 -0.000  -0.000  -3.244  -0.000   0.000  -5.814  -0.000   0.000
  0.000   0.000  -0.000  -3.252  -0.000  -0.000  -5.828  -0.000
  0.000   0.000   0.000  -0.000  -3.244   0.000  -0.000  -5.814
 -0.000  -0.000  -5.814  -0.000   0.000 -10.398  -0.000   0.000
  0.000   0.000  -0.000  -5.828  -0.000  -0.000 -10.423  -0.000
  0.000   0.000   0.000  -0.000  -5.814   0.000  -0.000 -10.398
 total augmentation occupancy for first ion, spin component:           1
  6.916  -2.317  -0.000  -0.002   0.000   0.000   0.001  -0.000
 -2.317   0.818   0.000   0.001  -0.000  -0.000  -0.000   0.000
 -0.000   0.000   6.627  -0.007   0.000  -2.167   0.003  -0.000
 -0.002   0.001  -0.007   2.819  -0.000   0.003  -0.689   0.000
  0.000  -0.000   0.000  -0.000   6.627  -0.000   0.000  -2.167
  0.000  -0.000  -2.167   0.003  -0.000   0.724  -0.001   0.000
  0.001  -0.000   0.003  -0.689   0.000  -0.001   0.176  -0.000
 -0.000   0.000  -0.000   0.000  -2.167   0.000  -0.000   0.724


------------------------ aborting loop because EDIFF is reached ----------------------------------------


    FORLOC:  cpu time    0.1356: real time    0.1365
    FORNL :  cpu time    3.5882: real time    3.6162
    FORCOR:  cpu time    7.8976: real time    7.9634
    OFIELD:  cpu time    0.0029: real time    0.0029

 VOLUME and BASIS-vectors are now :
 -----------------------------------------------------------------------------
  energy-cutoff  :     1000.00
  volume of cell :     3288.85
      direct lattice vectors                 reciprocal lattice vectors
    12.325000000  0.000000000  0.000000000     0.081135903  0.046843835  0.000000000
    -6.162500000 10.673763102  0.000000000     0.000000000  0.093687670  0.000000000
     0.000000000  0.000000000 25.000000000     0.000000000  0.000000000  0.040000000

  length of vectors
    12.325000000 12.325000000 25.000000000     0.093687670  0.093687670  0.040000000


 FORCES acting on ions:
    Electron-Ion                     Ewald-Force                    Non-Local-Force
 -----------------------------------------------------------------------------------------------
   0.103E+02 0.901E+01 0.256E+02   -.103E+02 -.901E+01 -.257E+02   0.139E-01 -.498E-02 0.130E-01
   0.167E+02 0.824E+01 0.329E+02   -.167E+02 -.822E+01 -.329E+02   0.189E-01 -.123E-01 -.480E-02
   0.812E+01 0.209E+02 0.402E+02   -.812E+01 -.209E+02 -.402E+02   -.225E-02 0.422E-01 0.336E-01
   0.126E+02 0.185E+02 0.621E+02   -.127E+02 -.185E+02 -.622E+02   0.475E-01 0.186E-01 0.731E-01
   0.112E+02 0.264E+01 0.258E+02   -.112E+02 -.263E+01 -.257E+02   0.411E-02 -.159E-01 -.337E-02
   0.117E+02 -.202E+01 0.263E+02   -.117E+02 0.203E+01 -.263E+02   -.179E-01 -.318E-02 -.128E-01
   0.219E+02 0.877E+01 0.539E+02   -.219E+02 -.872E+01 -.539E+02   0.495E-01 -.554E-01 -.252E-02
   0.215E+02 -.734E+01 0.570E+02   -.215E+02 0.737E+01 -.569E+02   0.949E-02 -.284E-01 -.764E-01
   -.908E+01 0.192E+02 0.410E+02   0.911E+01 -.192E+02 -.410E+02   -.199E-01 -.646E-02 -.299E-01
   -.162E+02 0.138E+02 0.602E+02   0.163E+02 -.139E+02 -.601E+02   -.691E-01 0.409E-01 -.474E-01
   0.275E+01 -.246E+01 0.211E+02   -.274E+01 0.245E+01 -.211E+02   -.437E-02 0.291E-02 -.528E-02
   0.221E+01 -.180E+01 0.197E+02   -.220E+01 0.180E+01 -.197E+02   -.149E-01 0.647E-02 0.183E-02
   0.835E+01 -.196E+02 0.645E+02   -.843E+01 0.196E+02 -.644E+02   0.819E-01 -.275E-01 -.556E-01
   0.394E+01 -.210E+02 0.410E+02   -.397E+01 0.210E+02 -.409E+02   0.250E-01 0.164E-02 -.330E-01
   -.997E+01 0.626E+01 0.252E+02   0.996E+01 -.626E+01 -.252E+02   0.139E-01 -.739E-02 -.510E-02
   -.147E+02 0.416E+01 0.291E+02   0.147E+02 -.417E+01 -.291E+02   -.196E-02 0.107E-01 -.218E-01
   -.152E+01 -.619E+00 0.190E+02   0.152E+01 0.616E+00 -.190E+02   -.608E-02 0.113E-02 0.113E-02
   0.825E+00 0.555E+01 0.202E+02   -.819E+00 -.555E+01 -.202E+02   -.857E-02 0.404E-02 0.910E-02
   -.301E+01 -.176E+02 0.316E+02   0.299E+01 0.176E+02 -.316E+02   0.253E-01 -.735E-02 0.942E-02
   -.131E+01 -.859E+01 0.222E+02   0.130E+01 0.860E+01 -.222E+02   0.605E-02 -.576E-02 -.128E-02
   0.172E+02 -.751E+01 0.355E+02   -.172E+02 0.751E+01 -.354E+02   -.529E-02 -.529E-02 -.446E-01
   0.103E+02 -.889E+01 0.281E+02   -.103E+02 0.888E+01 -.281E+02   -.122E-01 0.150E-01 -.156E-01
   -.413E+01 0.903E+01 0.779E+02   0.418E+01 -.907E+01 -.780E+02   -.548E-01 0.455E-01 0.776E-01
   -.696E+01 -.143E+02 0.740E+02   0.692E+01 0.144E+02 -.741E+02   0.386E-01 -.579E-01 0.701E-01
   0.483E+01 -.212E+01 0.212E+02   -.481E+01 0.211E+01 -.212E+02   -.862E-02 0.166E-02 -.946E-02
   0.909E+00 0.432E+01 0.214E+02   -.901E+00 -.433E+01 -.214E+02   -.127E-01 0.636E-02 -.396E-03
   -.220E+02 0.262E+01 0.451E+02   0.220E+02 -.265E+01 -.451E+02   -.379E-02 0.272E-01 -.314E-01
   -.202E+02 -.858E+01 0.409E+02   0.203E+02 0.855E+01 -.410E+02   -.361E-01 0.293E-01 0.146E-01
   0.628E+01 -.128E+02 0.294E+02   -.629E+01 0.128E+02 -.294E+02   0.113E-01 0.745E-02 -.197E-01
   0.584E+00 -.479E+01 0.226E+02   -.594E+00 0.478E+01 -.225E+02   0.123E-02 0.837E-02 -.888E-02
   -.163E+02 -.175E+02 0.502E+02   0.163E+02 0.176E+02 -.503E+02   -.413E-01 -.256E-01 0.502E-01
   -.941E+01 -.172E+02 0.337E+02   0.942E+01 0.172E+02 -.337E+02   -.215E-03 -.244E-01 0.229E-01
   0.572E+00 0.234E+01 0.196E+02   -.578E+00 -.233E+01 -.196E+02   0.118E-01 -.821E-02 0.395E-02
   0.161E+01 0.236E+01 0.210E+02   -.162E+01 -.235E+01 -.210E+02   0.478E-03 -.232E-02 -.578E-02
   -.696E+01 0.883E+00 0.229E+02   0.696E+01 -.890E+00 -.229E+02   0.947E-02 0.189E-02 -.138E-02
   -.600E+01 -.240E+01 0.223E+02   0.600E+01 0.240E+01 -.223E+02   -.110E-01 0.815E-02 -.184E-02
   -.122E+02 -.634E+01 0.262E+02   0.122E+02 0.634E+01 -.262E+02   -.147E-01 0.431E-02 0.285E-02
   -.707E+01 -.573E+01 0.220E+02   0.708E+01 0.573E+01 -.220E+02   -.110E-01 0.313E-02 0.109E-01
   -.663E+01 -.866E+01 0.235E+02   0.664E+01 0.867E+01 -.235E+02   -.108E-01 -.670E-02 0.883E-02
   -.978E+00 -.207E+01 0.201E+02   0.976E+00 0.207E+01 -.201E+02   0.262E-02 -.222E-02 0.855E-02
   0.249E+01 0.598E+01 0.210E+02   -.249E+01 -.599E+01 -.210E+02   -.459E-02 0.897E-02 0.851E-02
   0.824E+01 0.129E+02 0.272E+02   -.825E+01 -.129E+02 -.273E+02   0.101E-01 0.104E-01 0.172E-01
   0.662E+00 0.106E+02 0.233E+02   -.651E+00 -.106E+02 -.233E+02   -.827E-02 0.798E-02 -.179E-03
   0.709E-01 0.196E+02 0.346E+02   -.417E-01 -.196E+02 -.346E+02   -.322E-01 0.119E-01 0.116E-01
   -.201E+01 0.400E+01 0.225E+02   0.202E+01 -.399E+01 -.225E+02   0.121E-02 -.731E-02 -.614E-02
   -.845E+01 0.107E+02 0.279E+02   0.845E+01 -.107E+02 -.279E+02   -.999E-02 -.145E-02 -.165E-01
   -.147E+01 -.410E+01 0.209E+02   0.146E+01 0.410E+01 -.209E+02   0.142E-01 -.254E-02 0.147E-02
   -.380E+01 0.154E+01 0.200E+02   0.378E+01 -.153E+01 -.200E+02   0.705E-02 -.452E-03 -.815E-02
   0.304E+00 -.255E+01 0.198E+02   -.307E+00 0.255E+01 -.198E+02   0.819E-02 -.396E-02 0.601E-02
   0.402E+01 0.295E+01 0.200E+02   -.403E+01 -.294E+01 -.200E+02   0.619E-02 0.191E-02 0.349E-02
   0.128E+00 -.907E-01 -.402E+03   -.117E+00 0.838E-01 0.402E+03   -.949E-02 0.561E-02 -.337E-01
   -.229E+03 0.156E+03 -.617E+03   0.279E+03 -.190E+03 0.620E+03   -.512E+02 0.348E+02 -.335E+01
   0.229E+03 -.156E+03 -.594E+03   -.279E+03 0.190E+03 0.591E+03   0.512E+02 -.348E+02 0.317E+01
 -----------------------------------------------------------------------------------------------
   0.277E-01 -.324E-02 0.228E+00   0.114E-12 -.853E-13 0.568E-12   -.277E-01 0.321E-02 -.227E+00
 
 
 POSITION                                       TOTAL-FORCE (eV/Angst)
 -----------------------------------------------------------------------------------
     11.98348      0.00342      0.01417         0.002051      0.000062      0.000237
     -0.34154      1.42665      0.01100         0.000050      0.001561      0.001066
      2.12355      0.00315      0.01249         0.001440     -0.001916      0.003706
      2.12326      1.42653      0.00641         0.000005      0.002456      0.006355
     10.75099      2.13819      0.01213         0.000775     -0.004132      0.002316
     -1.57382      3.56123      0.01110        -0.004668      0.006530      0.000821
      0.89078      2.13854      0.00548        -0.000293     -0.000513      0.004204
      0.89099      3.56147      0.00181        -0.007218      0.004813      0.000583
      4.58864      0.00346      0.01135         0.005961     -0.002111      0.000206
      4.58894      1.42623      0.00646        -0.004535      0.002746      0.000844
      9.51854      4.27281      0.01369         0.007312     -0.006236      0.000605
     -2.80632      5.69591      0.01434        -0.007753      0.004287      0.001205
      2.12300      4.27302      0.00000         0.001443      0.002709      0.000828
      2.12335      5.69594      0.00581        -0.003236     -0.003657      0.001690
      7.05344      0.00333      0.01399         0.005990     -0.002781      0.002189
      7.05353      1.42635      0.01368        -0.004883      0.004847      0.000115
      8.28610      6.40752      0.01601         0.003607     -0.001922     -0.000296
     -4.03885      7.83070      0.01636        -0.002363      0.002363      0.000278
      3.35586      6.40753      0.01007         0.001694     -0.000103      0.002202
      3.35599      7.83072      0.01320        -0.002962      0.000369      0.000455
     -0.34146      4.27290      0.00723         0.007951     -0.005903      0.000348
     -0.34138      5.69591      0.00946        -0.006684      0.002864      0.002748
      3.35624      2.13791      0.00222         0.003132      0.000128      0.007250
      3.35573      3.56155      0.00139        -0.001017     -0.000773      0.007137
     -1.57395      6.40758      0.01311         0.009108     -0.003932     -0.000335
     -1.57385      7.83068      0.01438        -0.004760      0.004139      0.000769
      5.82093      2.13784      0.01033         0.005280     -0.003845     -0.000744
      5.82114      3.56097      0.01156        -0.002241      0.000497      0.003174
      0.89092      6.40755      0.00907         0.004218     -0.000486      0.002050
      0.89106      7.83068      0.01235        -0.008232      0.000541      0.000770
      4.58871      4.27293      0.00850        -0.000579     -0.004380      0.004106
      4.58852      5.69606      0.01149         0.000970      0.005773      0.001448
      9.51845      0.00337      0.01490         0.005386     -0.005394      0.000593
      9.51855      1.42644      0.01438        -0.004465      0.008241     -0.000006
      8.28593      2.13803      0.01453         0.003618     -0.005107      0.001628
      8.28613      3.56115      0.01464        -0.004498      0.001642      0.000954
      7.05356      4.27269      0.01457         0.003317     -0.000618      0.001693
      7.05362      5.69588      0.01553        -0.002521      0.000607      0.000408
      5.82112      6.40755      0.01489        -0.000942      0.001652      0.000698
      5.82102      7.83073      0.01579         0.001278      0.001559     -0.000035
      7.05363      8.54227      0.01631        -0.003075     -0.000761      0.001522
     -5.27149      9.96549      0.01495        -0.001640     -0.002712     -0.000288
     -2.80638      8.54234      0.01558         0.002766     -0.001484      0.000329
     -2.80627      9.96553      0.01362        -0.002332      0.000994      0.001536
     -0.34149      8.54239      0.01378         0.006011     -0.001894      0.001014
     -0.34138      9.96550      0.01354        -0.006889      0.002842      0.002153
      2.12343      8.54232      0.01336         0.006237     -0.001444      0.001209
      2.12354      9.96544      0.01469        -0.007595      0.004248     -0.001632
      4.58846      8.54235      0.01505         0.004640     -0.003814      0.001277
      4.58853      9.96550      0.01517        -0.003365      0.003303      0.000914
      3.04930      2.68154      3.33710         0.001588     -0.001512     -0.032778
      4.02070      2.02068      3.40152        -0.607714      0.417477     -0.061584
      2.07767      3.34267      3.27764         0.610632     -0.421820      0.022063
 -----------------------------------------------------------------------------------
    total drift:                               -0.000012     -0.000032      0.001421


--------------------------------------------------------------------------------------------------------



  FREE ENERGIE OF THE ION-ELECTRON SYSTEM (eV)
  ---------------------------------------------------
  free  energy   TOTEN  =      -411.82950240 eV

  energy  without entropy=     -411.82950240  energy(sigma->0) =     -411.82950240
 


--------------------------------------------------------------------------------------------------------


    POTLOK:  cpu time    8.4788: real time    8.5319


--------------------------------------------------------------------------------------------------------


 writing wavefunctions
     LOOP+:  cpu time  695.5280: real time  701.4045
    4ORBIT:  cpu time    0.0000: real time    0.0000

 total amount of memory used by VASP MPI-rank0   551512. kBytes
=======================================================================

   base      :      30000. kBytes
   nonl-proj :     230539. kBytes
   fftplans  :      40716. kBytes
   grid      :     216018. kBytes
   one-center:        162. kBytes
   wavefun   :      34077. kBytes
 
  
  
 General timing and accounting informations for this job:
 ========================================================
  
                  Total CPU time used (sec):      740.597
                            User time (sec):      699.867
                          System time (sec):       40.730
                         Elapsed time (sec):      747.720
  
                   Maximum memory used (kb):     1318412.
                   Average memory used (kb):          N/A
  
                          Minor page faults:       411829
                          Major page faults:          261
                 Voluntary context switches:         3781
