 vasp.6.2.1 16May21 (build Nov 06 2021 14:46:37) complex                        
  
 executed on             LinuxIFC date 2025.03.03  18:08:52
 running on  112 total cores
 distrk:  each k-point on   56 cores,    2 groups
 distr:  one band on NCORE=   1 cores,   56 groups


--------------------------------------------------------------------------------------------------------


 INCAR:
   ALGO = Conjugate
   KPAR = 2
   NCORE = 32
   ISMEAR = 0
   SIGMA = 0.01
   PREC = Accurate
   EDIFF = 1E-7
   ENCUT = 1000
   ISIF = 0
   GGA = BO
   PARAM1 = 0.1833333333
   PARAM2 = 0.2200000000
   LUSE_VDW = .TRUE.
   AGGAC = 0.0000
   LASPH = .TRUE.
   SYMPREC = 1E-7

 POTCAR:    PAW_PBE C_h 06Feb2004                 
 POTCAR:    PAW_PBE O_h 06Feb2004                 
 -----------------------------------------------------------------------------
|                                                                             |
|           W    W    AA    RRRRR   N    N  II  N    N   GGGG   !!!           |
|           W    W   A  A   R    R  NN   N  II  NN   N  G    G  !!!           |
|           W    W  A    A  R    R  N N  N  II  N N  N  G       !!!           |
|           W WW W  AAAAAA  RRRRR   N  N N  II  N  N N  G  GGG   !            |
|           WW  WW  A    A  R   R   N   NN  II  N   NN  G    G                |
|           W    W  A    A  R    R  N    N  II  N    N   GGGG   !!!           |
|                                                                             |
|     The value NCORE = 32 specified in the INCAR file was overwritten,       |
|     because it was not compatible with the 56 processes available:          |
|     NCORE = 1                                                               |
|     was used instead, please check that this makes sense for your           |
|     machine.                                                                |
|                                                                             |
 -----------------------------------------------------------------------------

 -----------------------------------------------------------------------------
|                                                                             |
|           W    W    AA    RRRRR   N    N  II  N    N   GGGG   !!!           |
|           W    W   A  A   R    R  NN   N  II  NN   N  G    G  !!!           |
|           W    W  A    A  R    R  N N  N  II  N N  N  G       !!!           |
|           W WW W  AAAAAA  RRRRR   N  N N  II  N  N N  G  GGG   !            |
|           WW  WW  A    A  R   R   N   NN  II  N   NN  G    G                |
|           W    W  A    A  R    R  N    N  II  N    N   GGGG   !!!           |
|                                                                             |
|     For optimal performance we recommend to set                             |
|       NCORE = 2 up to number-of-cores-per-socket                            |
|     NCORE specifies how many cores store one orbital (NPAR=cpu/NCORE).      |
|     This setting can greatly improve the performance of VASP for DFT.       |
|     The default, NCORE=1 might be grossly inefficient on modern             |
|     multi-core architectures or massively parallel machines. Do your        |
|     own testing! More info at https://www.vasp.at/wiki/index.php/NCORE      |
|     Unfortunately you need to use the default for GW and RPA                |
|     calculations (for HF NCORE is supported but not extensively tested      |
|     yet).                                                                   |
|                                                                             |
 -----------------------------------------------------------------------------

 -----------------------------------------------------------------------------
|                                                                             |
|               ----> ADVICE to this user running VASP <----                  |
|                                                                             |
|     You have switched on vdW-DFT.                                           |
|     This routine was written and supplied by Jiri Klimes. We recommend      |
|     that you carefully read and cite the following publications:            |
|       J. Klimes, D.R. Bowler, A. Michelides                                 |
|          J. Phys.: Cond Matt. 22 022201 (2010)                              |
|       J. Klimes, D.R. Bowler, A. Michelides                                 |
|          Phys. Rev. B. 83, 195131 (2011)                                    |
|     and references therein.                                                 |
|                                                                             |
 -----------------------------------------------------------------------------

 POTCAR:    PAW_PBE C_h 06Feb2004                 
   VRHFIN =C: s2p2                                                                                  
   LEXCH  = PE                                                                                      
   EATOM  =   147.1560 eV,   10.8157 Ry                                                             
                                                                                                    
   TITEL  = PAW_PBE C_h 06Feb2004                                                                   
   LULTRA =        F    use ultrasoft PP ?                                                          
   IUNSCR =        1    unscreen: 0-lin 1-nonlin 2-no                                               
   RPACOR =    0.800    partial core radius                                                         
   POMASS =   12.011; ZVAL   =    4.000    mass and valenz                                          
   RCORE  =    1.100    outmost cutoff radius                                                       
   RWIGS  =    1.630; RWIGS  =    0.863    wigner-seitz radius (au A)                               
   ENMAX  =  700.000; ENMIN  =  500.000 eV                                                          
   ICORE  =        2    local potential                                                             
   LCOR   =        T    correct aug charges                                                         
   LPAW   =        T    paw PP                                                                      
   EAUG   =  946.768                                                                                
   DEXC   =    0.000                                                                                
   RMAX   =    1.128    core radius for proj-oper                                                   
   RAUG   =    1.300    factor for augmentation sphere                                              
   RDEP   =    1.162    radius for radial grids                                                     
   RDEPT  =    1.088    core radius for aug-charge                                                  
                                                                                                    
   Atomic configuration                                                                             
    4 entries                                                                                       
     n  l   j            E        occ.                                                              
     1  0  0.50      -273.3789   2.0000                                                             
     2  0  0.50       -13.7508   2.0000                                                             
     2  1  0.50        -5.2854   2.0000                                                             
     3  2  1.50        -5.4423   0.0000                                                             
   Description                                                                                      
     l       E           TYP  RCUT    TYP  RCUT                                                     
     0    -13.7508458     23  1.100                                                                 
     0     -8.2022199     23  1.100                                                                 
     1     -5.2854383     23  1.100                                                                 
     1      1.1560700     23  1.100                                                                 
     2     -5.4423304      7  1.100                                                                 
  local pseudopotential read in
  partial core-charges read in
  partial kinetic energy density read in
  atomic valenz-charges read in
  non local Contribution for L=           0  read in
    real space projection operators read in
  non local Contribution for L=           0  read in
    real space projection operators read in
  non local Contribution for L=           1  read in
    real space projection operators read in
  non local Contribution for L=           1  read in
    real space projection operators read in
    PAW grid and wavefunctions read in
 
   number of l-projection  operators is LMAX  =           4
   number of lm-projection operators is LMMAX =           8
 
 POTCAR:    PAW_PBE O_h 06Feb2004                 
   VRHFIN =O: s2p4                                                                                  
   LEXCH  = PE                                                                                      
   EATOM  =   432.3788 eV,   31.7789 Ry                                                             
                                                                                                    
   TITEL  = PAW_PBE O_h 06Feb2004                                                                   
   LULTRA =        F    use ultrasoft PP ?                                                          
   IUNSCR =        1    unscreen: 0-lin 1-nonlin 2-no                                               
   RPACOR =    0.800    partial core radius                                                         
   POMASS =   16.000; ZVAL   =    6.000    mass and valenz                                          
   RCORE  =    1.100    outmost cutoff radius                                                       
   RWIGS  =    1.400; RWIGS  =    0.741    wigner-seitz radius (au A)                               
   ENMAX  =  700.000; ENMIN  =  500.000 eV                                                          
   ICORE  =        2    local potential                                                             
   LCOR   =        T    correct aug charges                                                         
   LPAW   =        T    paw PP                                                                      
   EAUG   =  888.804                                                                                
   DEXC   =    0.000                                                                                
   RMAX   =    1.128    core radius for proj-oper                                                   
   RAUG   =    1.300    factor for augmentation sphere                                              
   RDEP   =    1.125    radius for radial grids                                                     
   RDEPT  =    1.088    core radius for aug-charge                                                  
                                                                                                    
   Atomic configuration                                                                             
    4 entries                                                                                       
     n  l   j            E        occ.                                                              
     1  0  0.50      -514.6923   2.0000                                                             
     2  0  0.50       -23.9615   2.0000                                                             
     2  1  0.50        -9.0305   4.0000                                                             
     3  2  1.50        -9.5241   0.0000                                                             
   Description                                                                                      
     l       E           TYP  RCUT    TYP  RCUT                                                     
     0    -23.9615319     23  1.100                                                                 
     0    -25.3221145     23  1.100                                                                 
     1     -9.0304911     23  1.100                                                                 
     1     -5.4802209     23  1.100                                                                 
     2     -9.5240782      7  1.100                                                                 
  local pseudopotential read in
  partial core-charges read in
  partial kinetic energy density read in
  atomic valenz-charges read in
  non local Contribution for L=           0  read in
    real space projection operators read in
  non local Contribution for L=           0  read in
    real space projection operators read in
  non local Contribution for L=           1  read in
    real space projection operators read in
  non local Contribution for L=           1  read in
    real space projection operators read in
    PAW grid and wavefunctions read in
 
   number of l-projection  operators is LMAX  =           4
   number of lm-projection operators is LMMAX =           8
 
 -----------------------------------------------------------------------------
|                                                                             |
|               ----> ADVICE to this user running VASP <----                  |
|                                                                             |
|     You have a (more or less) 'large supercell' and for larger cells it     |
|     might be more efficient to use real-space projection operators.         |
|     Therefore, try LREAL= Auto in the INCAR file.                           |
|     Mind: For very accurate calculation, you might also keep the            |
|     reciprocal projection scheme (i.e. LREAL=.FALSE.).                      |
|                                                                             |
 -----------------------------------------------------------------------------

 -----------------------------------------------------------------------------
|                                                                             |
|               ----> ADVICE to this user running VASP <----                  |
|                                                                             |
|     You enforced a specific xc type in the INCAR file but a different       |
|     type was found in the POTCAR file.                                      |
|     I HOPE YOU KNOW WHAT YOU ARE DOING!                                     |
|                                                                             |
 -----------------------------------------------------------------------------

  PAW_PBE C_h 06Feb2004                 :
 energy of atom  1       EATOM= -147.1560
 kinetic energy error for atom=    0.0031 (will be added to EATOM!!)
  PAW_PBE O_h 06Feb2004                 :
 energy of atom  2       EATOM= -432.3788
 kinetic energy error for atom=    0.0171 (will be added to EATOM!!)
 
 
 POSCAR:  C  O
  positions in cartesian coordinates
  No initial velocities read in
 exchange correlation table for  LEXCH =       42
   RHO(1)=    0.500       N(1)  =     2000
   RHO(2)=  100.500       N(2)  =     4000
 


--------------------------------------------------------------------------------------------------------


 ion  position               nearest neighbor table
   1  0.972  0.000  0.001-  50 1.42   2 1.42  42 1.42
   2  0.039  0.134  0.001-   5 1.42   7 1.42   1 1.42
   3  0.172  0.000  0.001-  42 1.42  44 1.42   4 1.42
   4  0.239  0.134  0.000-   7 1.42   3 1.42  23 1.42
   5  0.972  0.200  0.001-   6 1.42   2 1.42  34 1.42
   6  0.039  0.334  0.001-   5 1.42  21 1.42  11 1.42
   7  0.172  0.200  0.000-   8 1.42   2 1.42   4 1.42
   8  0.239  0.334  0.000-  13 1.42   7 1.42  21 1.42
   9  0.372  0.000  0.001-  10 1.42  44 1.42  46 1.42
  10  0.439  0.134  0.000-  27 1.42   9 1.42  23 1.42
  11  0.972  0.400  0.001-  12 1.42  36 1.42   6 1.42
  12  0.039  0.534  0.001-  25 1.42  11 1.42  17 1.42
  13  0.372  0.400  0.000-   8 1.42  14 1.42  24 1.42
  14  0.439  0.534  0.000-  13 1.42  29 1.42  19 1.42
  15  0.572  0.000  0.001-  46 1.42  16 1.42  48 1.42
  16  0.639  0.134  0.001-  15 1.42  35 1.42  27 1.42
  17  0.972  0.600  0.001-  38 1.42  18 1.42  12 1.42
  18  0.039  0.734  0.001-  43 1.42  41 1.42  17 1.42
  19  0.572  0.600  0.001-  14 1.42  20 1.42  32 1.42
  20  0.639  0.734  0.001-  49 1.42  19 1.42  47 1.42
  21  0.172  0.400  0.000-  22 1.42   8 1.42   6 1.42
  22  0.239  0.534  0.000-  21 1.42  29 1.42  25 1.42
  23  0.372  0.200  0.000-  10 1.42   4 1.42  24 1.42
  24  0.439  0.334  0.000-  13 1.42  31 1.42  23 1.42
  25  0.172  0.600  0.001-  26 1.42  12 1.42  22 1.42
  26  0.239  0.734  0.001-  25 1.42  45 1.42  43 1.42
  27  0.572  0.200  0.001-  10 1.42  28 1.42  16 1.42
  28  0.639  0.334  0.001-  27 1.42  37 1.42  31 1.42
  29  0.372  0.600  0.000-  22 1.42  14 1.42  30 1.42
  30  0.439  0.734  0.001-  47 1.42  29 1.42  45 1.42
  31  0.572  0.400  0.000-  32 1.42  28 1.42  24 1.42
  32  0.639  0.534  0.001-  31 1.42  39 1.42  19 1.42
  33  0.772  0.000  0.001-  34 1.42  48 1.42  50 1.42
  34  0.839  0.134  0.001-  33 1.42   5 1.42  35 1.42
  35  0.772  0.200  0.001-  36 1.42  16 1.42  34 1.42
  36  0.839  0.334  0.001-  35 1.42  11 1.42  37 1.42
  37  0.772  0.400  0.001-  28 1.42  38 1.42  36 1.42
  38  0.839  0.534  0.001-  17 1.42  37 1.42  39 1.42
  39  0.772  0.600  0.001-  40 1.42  38 1.42  32 1.42
  40  0.839  0.734  0.001-  39 1.42  49 1.42  41 1.42
  41  0.972  0.800  0.001-  18 1.42  42 1.42  40 1.42
  42  0.039  0.934  0.001-   3 1.42  41 1.42   1 1.42
  43  0.172  0.800  0.001-  18 1.42  44 1.42  26 1.42
  44  0.239  0.934  0.001-   9 1.42  43 1.42   3 1.42
  45  0.372  0.800  0.001-  26 1.42  46 1.42  30 1.42
  46  0.439  0.934  0.001-  15 1.42  45 1.42   9 1.42
  47  0.572  0.800  0.001-  30 1.42  48 1.42  20 1.42
  48  0.639  0.934  0.001-  47 1.42  33 1.42  15 1.42
  49  0.772  0.800  0.001-  50 1.42  20 1.42  40 1.42
  50  0.839  0.934  0.001-  49 1.42   1 1.42  33 1.42
  51  0.373  0.251  0.265-  52 1.18  53 1.18
  52  0.421  0.189  0.268-  51 1.18
  53  0.325  0.313  0.262-  51 1.18
 
  LATTYP: Found a hexagonal cell.
 ALAT       =    12.3250000000
 C/A-ratio  =     1.6227180527
  
  Lattice vectors:
  
 A1 = (  12.3250000000,   0.0000000000,   0.0000000000)
 A2 = (  -6.1625000000,  10.6737631016,   0.0000000000)
 A3 = (   0.0000000000,   0.0000000000,  20.0000000000)


Analysis of symmetry for initial positions (statically):
=====================================================================
 Subroutine PRICEL returns:
 Original cell was already a primitive cell.
 

 Routine SETGRP: Setting up the symmetry group for a 
 hexagonal supercell.


 Subroutine GETGRP returns: Found  1 space group operations
 (whereof  1 operations were pure point group operations)
 out of a pool of 24 trial point group operations.


The static configuration has the point symmetry C_1 .


Analysis of symmetry for dynamics (positions and initial velocities):
=====================================================================
 Subroutine PRICEL returns:
 Original cell was already a primitive cell.
 

 Routine SETGRP: Setting up the symmetry group for a 
 hexagonal supercell.


 Subroutine GETGRP returns: Found  1 space group operations
 (whereof  1 operations were pure point group operations)
 out of a pool of 24 trial point group operations.


The dynamic configuration has the point symmetry C_1 .


 Subroutine INISYM returns: Found  1 space group operations
 (whereof  1 operations are pure point group operations),
 and found     1 'primitive' translations


----------------------------------------------------------------------------------------

                                     Primitive cell                                     

  volume of cell :    2631.0826

  direct lattice vectors                    reciprocal lattice vectors
    12.325000000  0.000000000  0.000000000     0.081135903  0.046843835  0.000000000
    -6.162500000 10.673763102  0.000000000     0.000000000  0.093687670  0.000000000
     0.000000000  0.000000000 20.000000000     0.000000000  0.000000000  0.050000000

  length of vectors
    12.325000000 12.325000000 20.000000000     0.093687670  0.093687670  0.050000000

  position of ions in fractional coordinates (direct lattice)
     0.972450841  0.000320818  0.000708389
     0.039118382  0.133659505  0.000550216
     0.172443627  0.000295449  0.000624535
     0.239096278  0.133647917  0.000320585
     0.972452058  0.200322012  0.000606523
     0.039128360  0.333643771  0.000555187
     0.172451764  0.200354552  0.000273959
     0.239124359  0.333665720  0.000090325
     0.372465565  0.000324403  0.000567391
     0.439137473  0.133619939  0.000322923
     0.972449824  0.400309362  0.000684513
     0.039124981  0.533636789  0.000716763
     0.372416176  0.400329481  0.000000000
     0.439099602  0.533638981  0.000290518
     0.572443676  0.000312125  0.000699475
     0.639110207  0.133631751  0.000684093
     0.972452703  0.600305653  0.000800361
     0.039124495  0.733640359  0.000818141
     0.572433471  0.600306242  0.000503618
     0.639111888  0.733641879  0.000659881
     0.172454630  0.400318228  0.000361306
     0.239120185  0.533636548  0.000473136
     0.372459750  0.200295993  0.000111246
     0.439107096  0.333673419  0.000069702
     0.172452155  0.600311506  0.000655425
     0.239123371  0.733638574  0.000718912
     0.572431082  0.200289171  0.000516621
     0.639112773  0.333618630  0.000577970
     0.372439808  0.600308022  0.000453556
     0.439116090  0.733637858  0.000617737
     0.572469358  0.400320504  0.000424897
     0.639119408  0.533650873  0.000574513
     0.772445723  0.000315427  0.000745201
     0.839116277  0.133640203  0.000719132
     0.772440513  0.200307432  0.000726291
     0.839120241  0.333635728  0.000731834
     0.772446320  0.400298367  0.000728722
     0.839118980  0.533633964  0.000776376
     0.772456143  0.600308173  0.000744639
     0.839115033  0.733643180  0.000789390
     0.972455313  0.800305582  0.000815291
     0.039114714  0.933643289  0.000747563
     0.172457971  0.800312211  0.000779216
     0.239134551  0.933647193  0.000681063
     0.372451396  0.800316674  0.000689249
     0.439124489  0.933644769  0.000676788
     0.572441101  0.800310054  0.000668168
     0.639115067  0.933638985  0.000734556
     0.772445098  0.800313187  0.000752577
     0.839116614  0.933644338  0.000758538
     0.373021009  0.251226878  0.264865773
     0.420879805  0.189313152  0.268086866
     0.325156981  0.313167186  0.261893030

  ion indices of the primitive-cell ions
   primitive index   ion index
                 1           1
                 2           2
                 3           3
                 4           4
                 5           5
                 6           6
                 7           7
                 8           8
                 9           9
                10          10
                11          11
                12          12
                13          13
                14          14
                15          15
                16          16
                17          17
                18          18
                19          19
                20          20
                21          21
                22          22
                23          23
                24          24
                25          25
                26          26
                27          27
                28          28
                29          29
                30          30
                31          31
                32          32
                33          33
                34          34
                35          35
                36          36
                37          37
                38          38
                39          39
                40          40
                41          41
                42          42
                43          43
                44          44
                45          45
                46          46
                47          47
                48          48
                49          49
                50          50
                51          51
                52          52
                53          53

----------------------------------------------------------------------------------------

 
 
 KPOINTS: auto                                    

Automatic generation of k-mesh.
 Grid dimensions read from file:
 generate k-points for:    1    1    1

 Generating k-lattice:

  Cartesian coordinates                     Fractional coordinates (reciprocal lattice)
     0.081135903  0.046843835  0.000000000     1.000000000 -0.000000000  0.000000000
     0.000000000  0.093687670  0.000000000     0.000000000  1.000000000  0.000000000
     0.000000000  0.000000000  0.050000000     0.000000000  0.000000000  1.000000000

  Length of vectors
     0.093687670  0.093687670  0.050000000

  Shift w.r.t. Gamma in fractional coordinates (k-lattice)
     0.000000000  0.000000000  0.000000000

 
 Subroutine IBZKPT returns following result:
 ===========================================
 
 Found      1 irreducible k-points:
 
 Following reciprocal coordinates:
            Coordinates               Weight
  0.000000  0.000000  0.000000      1.000000
 
 Following cartesian coordinates:
            Coordinates               Weight
  0.000000  0.000000  0.000000      1.000000
 


--------------------------------------------------------------------------------------------------------




 Dimension of arrays:
   k-points           NKPTS =      1   k-points in BZ     NKDIM =      1   number of bands    NBANDS=    168
   number of dos      NEDOS =    301   number of ions     NIONS =     53
   non local maximal  LDIM  =      4   non local SUM 2l+1 LMDIM =      8
   total plane-waves  NPLWV = ******
   max r-space proj   IRMAX =      1   max aug-charges    IRDMAX=   9736
   dimension x,y,z NGX =   128 NGY =  128 NGZ =  210
   dimension x,y,z NGXF=   256 NGYF=  256 NGZF=  420
   support grid    NGXF=   256 NGYF=  256 NGZF=  420
   ions per type =              51   2
   NGX,Y,Z   is equivalent  to a cutoff of  17.27, 17.27, 17.46 a.u.
   NGXF,Y,Z  is equivalent  to a cutoff of  34.53, 34.53, 34.91 a.u.

 SYSTEM =  unknown system                          
 POSCAR =   C  O                                   

 Startparameter for this run:
   NWRITE =      2    write-flag & timer
   PREC   = accura    normal or accurate (medium, high low for compatibility)
   ISTART =      0    job   : 0-new  1-cont  2-samecut
   ICHARG =      2    charge: 1-file 2-atom 10-const
   ISPIN  =      1    spin polarized calculation?
   LNONCOLLINEAR =      F non collinear calculations
   LSORBIT =      F    spin-orbit coupling
   INIWAV =      1    electr: 0-lowe 1-rand  2-diag
   LASPH  =      T    aspherical Exc in radial PAW
 Electronic Relaxation 1
   ENCUT  = 1000.0 eV  73.50 Ry    8.57 a.u.  31.78 31.78 51.57*2*pi/ulx,y,z
   ENINI  = 1000.0     initial cutoff
   ENAUG  =  946.8 eV  augmentation charge cutoff
   NELM   =     60;   NELMIN=  2; NELMDL= -5     # of ELM steps 
   EDIFF  = 0.1E-06   stopping-criterion for ELM
   LREAL  =      F    real-space projection
   NLSPLINE    = F    spline interpolate recip. space projectors
   LCOMPAT=      F    compatible to vasp.4.4
   GGA_COMPAT  = T    GGA compatible to vasp.4.4-vasp.4.6
   LMAXPAW     = -100 max onsite density
   LMAXMIX     =    2 max onsite mixed and CHGCAR
   VOSKOWN=      0    Vosko Wilk Nusair interpolation
   ROPT   =    0.00000   0.00000
 Ionic relaxation
   EDIFFG = 0.1E-05   stopping-criterion for IOM
   NSW    =      0    number of steps for IOM
   NBLOCK =      1;   KBLOCK =      1    inner block; outer block 
   IBRION =     -1    ionic relax: 0-MD 1-quasi-New 2-CG
   NFREE  =      0    steps in history (QN), initial steepest desc. (CG)
   ISIF   =      0    stress and relaxation
   IWAVPR =     10    prediction:  0-non 1-charg 2-wave 3-comb
   ISYM   =      2    0-nonsym 1-usesym 2-fastsym
   LCORR  =      T    Harris-Foulkes like correction to forces

   POTIM  = 0.5000    time-step for ionic-motion
   TEIN   =    0.0    initial temperature
   TEBEG  =    0.0;   TEEND  =   0.0 temperature during run
   SMASS  =  -3.00    Nose mass-parameter (am)
   estimated Nose-frequenzy (Omega)   =  0.10E-29 period in steps = 0.13E+47 mass=  -0.347E-26a.u.
   SCALEE = 1.0000    scale energy and forces
   NPACO  =    256;   APACO  = 16.0  distance and # of slots for P.C.
   PSTRESS=    0.0 pullay stress

  Mass of Ions in am
   POMASS =  12.01 16.00
  Ionic Valenz
   ZVAL   =   4.00  6.00
  Atomic Wigner-Seitz radii
   RWIGS  =  -1.00 -1.00
  virtual crystal weights 
   VCA    =   1.00  1.00
   NELECT =     216.0000    total number of electrons
   NUPDOWN=      -1.0000    fix difference up-down

 DOS related values:
   EMIN   =  10.00;   EMAX   =-10.00  energy-range for DOS
   EFERMI =   0.00
   ISMEAR =     0;   SIGMA  =   0.01  broadening in eV -4-tet -1-fermi 0-gaus

 Electronic relaxation 2 (details)
   IALGO  =     58    algorithm
   LDIAG  =      T    sub-space diagonalisation (order eigenvalues)
   LSUBROT=      F    optimize rotation matrix (better conditioning)
   TURBO    =      0    0=normal 1=particle mesh
   IRESTART =      0    0=no restart 2=restart with 2 vectors
   NREBOOT  =      0    no. of reboots
   NMIN     =      0    reboot dimension
   EREF     =   0.00    reference energy to select bands
   IMIX   =      4    mixing-type and parameters
     AMIX     =   0.40;   BMIX     =  1.00
     AMIX_MAG =   1.60;   BMIX_MAG =  1.00
     AMIN     =   0.10
     WC   =   100.;   INIMIX=   1;  MIXPRE=   1;  MAXMIX= -45

 Intra band minimization:
   WEIMIN = 0.0000     energy-eigenvalue tresh-hold
   EBREAK =  0.15E-09  absolut break condition
   DEPER  =   0.30     relativ break condition  

   TIME   =   0.40     timestep for ELM

  volume/ion in A,a.u.               =      49.64       335.01
  Fermi-wavevector in a.u.,A,eV,Ry     =   0.711510  1.344560  6.887909  0.506247
  Thomas-Fermi vector in A             =   1.798641
 
 Write flags
   LWAVE        =      T    write WAVECAR
   LDOWNSAMPLE  =      F    k-point downsampling of WAVECAR
   LCHARG       =      T    write CHGCAR
   LVTOT        =      F    write LOCPOT, total local potential
   LVHAR        =      F    write LOCPOT, Hartree potential only
   LELF         =      F    write electronic localiz. function (ELF)
   LORBIT       =      0    0 simple, 1 ext, 2 COOP (PROOUT), +10 PAW based schemes


 Dipole corrections
   LMONO  =      F    monopole corrections only (constant potential shift)
   LDIPOL =      F    correct potential (dipole corrections)
   IDIPOL =      0    1-x, 2-y, 3-z, 4-all directions 
   EPSILON=  1.0000000 bulk dielectric constant

 Exchange correlation treatment:
   GGA     =    BO    GGA type
   LEXCH   =    42    internal setting for exchange type
   VOSKOWN=      0    Vosko Wilk Nusair interpolation
   LHFCALC =     F    Hartree Fock is set to
   LHFONE  =     F    Hartree Fock one center treatment
   AEXX    =    0.0000 exact exchange contribution

 vdW DFT:
   LUSE_VDW   =     T    switch on vdW DFT
   Zab_VDW    =-.8491    correlation parameter
   PARAM1     =0.1833
   PARAM2     =0.2200
   PARAM3     =0.0000
   -- rVV10 --
   BPARAM     = 6.3000
   CPARAM     = 0.0093

 Linear response parameters
   LEPSILON=     F    determine dielectric tensor
   LRPA    =     F    only Hartree local field effects (RPA)
   LNABLA  =     F    use nabla operator in PAW spheres
   LVEL    =     F    velocity operator in full k-point grid
   LINTERFAST=   F  fast interpolation
   KINTER  =     0    interpolate to denser k-point grid
   CSHIFT  =0.1000    complex shift for real part using Kramers Kronig
   OMEGAMAX=  -1.0    maximum frequency
   DEG_THRESHOLD= 0.2000000E-02 threshold for treating states as degnerate
   RTIME   =   -0.100 relaxation time in fs
  (WPLASMAI=    0.000 imaginary part of plasma frequency in eV, 0.658/RTIME)
   DFIELD  = 0.0000000 0.0000000 0.0000000 field for delta impulse in time
 
 Orbital magnetization related:
   ORBITALMAG=     F  switch on orbital magnetization
   LCHIMAG   =     F  perturbation theory with respect to B field
   DQ        =  0.001000  dq finite difference perturbation B field
   LLRAUG    =     F  two centre corrections for induced B field



--------------------------------------------------------------------------------------------------------


 Static calculation
 charge density and potential will be updated during run
 non-spin polarized calculation
 Conjugate gradient for all bands (Freysoldt, et al. PRB 79, 241103 (2009))
 preconditioned conjugated gradient                                        
 perform sub-space diagonalisation
    before iterative eigenvector-optimisation
 modified Broyden-mixing scheme, WC =      100.0
 initial mixing is a Kerker type mixing with AMIX =  0.4000 and BMIX =      1.0000
 Hartree-type preconditioning will be used
 using additional bands           60
 reciprocal scheme for non local part
 use partial core corrections
 no Harris-corrections to forces 
 use gradient corrections 
 use of overlap-Matrix (Vanderbilt PP)
 Gauss-broadening in eV      SIGMA  =   0.01


--------------------------------------------------------------------------------------------------------


  energy-cutoff  :     1000.00
  volume of cell :     2631.08
      direct lattice vectors                 reciprocal lattice vectors
    12.325000000  0.000000000  0.000000000     0.081135903  0.046843835  0.000000000
    -6.162500000 10.673763102  0.000000000     0.000000000  0.093687670  0.000000000
     0.000000000  0.000000000 20.000000000     0.000000000  0.000000000  0.050000000

  length of vectors
    12.325000000 12.325000000 20.000000000     0.093687670  0.093687670  0.050000000


 
 k-points in units of 2pi/SCALE and weight: auto                                    
   0.00000000  0.00000000  0.00000000       1.000
 
 k-points in reciprocal lattice and weights: auto                                    
   0.00000000  0.00000000  0.00000000       1.000
 
 position of ions in fractional coordinates (direct lattice) 
   0.97245084  0.00032082  0.00070839
   0.03911838  0.13365950  0.00055022
   0.17244363  0.00029545  0.00062454
   0.23909628  0.13364792  0.00032058
   0.97245206  0.20032201  0.00060652
   0.03912836  0.33364377  0.00055519
   0.17245176  0.20035455  0.00027396
   0.23912436  0.33366572  0.00009033
   0.37246557  0.00032440  0.00056739
   0.43913747  0.13361994  0.00032292
   0.97244982  0.40030936  0.00068451
   0.03912498  0.53363679  0.00071676
   0.37241618  0.40032948  0.00000000
   0.43909960  0.53363898  0.00029052
   0.57244368  0.00031213  0.00069947
   0.63911021  0.13363175  0.00068409
   0.97245270  0.60030565  0.00080036
   0.03912449  0.73364036  0.00081814
   0.57243347  0.60030624  0.00050362
   0.63911189  0.73364188  0.00065988
   0.17245463  0.40031823  0.00036131
   0.23912018  0.53363655  0.00047314
   0.37245975  0.20029599  0.00011125
   0.43910710  0.33367342  0.00006970
   0.17245216  0.60031151  0.00065542
   0.23912337  0.73363857  0.00071891
   0.57243108  0.20028917  0.00051662
   0.63911277  0.33361863  0.00057797
   0.37243981  0.60030802  0.00045356
   0.43911609  0.73363786  0.00061774
   0.57246936  0.40032050  0.00042490
   0.63911941  0.53365087  0.00057451
   0.77244572  0.00031543  0.00074520
   0.83911628  0.13364020  0.00071913
   0.77244051  0.20030743  0.00072629
   0.83912024  0.33363573  0.00073183
   0.77244632  0.40029837  0.00072872
   0.83911898  0.53363396  0.00077638
   0.77245614  0.60030817  0.00074464
   0.83911503  0.73364318  0.00078939
   0.97245531  0.80030558  0.00081529
   0.03911471  0.93364329  0.00074756
   0.17245797  0.80031221  0.00077922
   0.23913455  0.93364719  0.00068106
   0.37245140  0.80031667  0.00068925
   0.43912449  0.93364477  0.00067679
   0.57244110  0.80031005  0.00066817
   0.63911507  0.93363899  0.00073456
   0.77244510  0.80031319  0.00075258
   0.83911661  0.93364434  0.00075854
   0.37302101  0.25122688  0.26486577
   0.42087980  0.18931315  0.26808687
   0.32515698  0.31316719  0.26189303
 
 position of ions in cartesian coordinates  (Angst):
  11.98347958  0.00342433  0.01416777
  -0.34154264  1.42664989  0.01100432
   2.12354700  0.00315355  0.01249070
   2.12325634  1.42652621  0.00641170
  10.75098721  2.13818970  0.01213047
  -1.57382270  3.56123457  0.01110375
   0.89078307  2.13853702  0.00547917
   0.89099273  3.56146885  0.00180651
   4.58863896  0.00346260  0.01134782
   4.58893648  1.42622757  0.00645846
   9.51853763  4.27280730  0.01369027
  -2.80632132  5.69591267  0.01433526
   2.12299894  4.27302204  0.00000000
   2.12335237  5.69593607  0.00581036
   7.05344483  0.00333155  0.01398950
   7.05352764  1.42635365  0.01368187
   8.28609598  6.40752033  0.01600723
  -4.03884931  7.83070339  0.01636283
   3.35585531  6.40752662  0.01007237
   3.35598594  7.83071962  0.01319763
  -0.34145776  4.27290193  0.00722612
  -0.34137895  5.69591010  0.00946273
   3.35624236  2.13791198  0.00222492
   3.35573251  3.56155103  0.00139405
  -1.57394684  6.40758280  0.01310850
  -1.57385216  7.83068434  0.01437823
   5.82093107  2.13783916  0.01033241
   5.82114012  3.56096622  0.01155939
   0.89092245  6.40754561  0.00907111
   0.89106251  7.83067670  0.01235474
   4.58870974  4.27292622  0.00849795
   4.58852320  5.69606300  0.01149026
   9.51844972  0.00336679  0.01490402
   9.51855036  1.42644387  0.01438264
   8.28593477  2.13803408  0.01452582
   8.28612680  3.56114872  0.01463668
   7.05356221  4.27268994  0.01457444
   7.05362213  5.69588251  0.01552751
   5.82112285  6.40754723  0.01489279
   5.82101669  7.83073350  0.01578780
   7.05362858  8.54227219  0.01630582
  -5.27148792  9.96548729  0.01495127
  -2.80637951  8.54234295  0.01558431
  -2.80626749  9.96552896  0.01362126
  -0.34148805  8.54239058  0.01378498
  -0.34137657  9.96550309  0.01353576
   2.12342586  8.54231992  0.01336337
   2.12354296  9.96544135  0.01469111
   4.58845581  8.54235337  0.01505154
   4.58852904  9.96549848  0.01517076
   3.04929830  2.68153618  5.29731547
   4.02070129  2.02068374  5.36173733
   2.07766701  3.34267235  5.23786060
 


--------------------------------------------------------------------------------------------------------


 k-point   1 :   0.0000 0.0000 0.0000  plane waves:  189031

 maximum and minimum number of plane-waves per node :    189031   189031

 maximum number of plane-waves:    189031
 maximum index in each direction: 
   IXMAX=   31   IYMAX=   31   IZMAX=   51
   IXMIN=  -31   IYMIN=  -31   IZMIN=  -51


 serial   3D FFT for wavefunctions
 parallel 3D FFT for charge:
    minimum data exchange during FFTs selected (reduces bandwidth)


 total amount of memory used by VASP MPI-rank0   441788. kBytes
=======================================================================

   base      :      30000. kBytes
   nonl-proj :     184518. kBytes
   fftplans  :      31725. kBytes
   grid      :     168095. kBytes
   one-center:        162. kBytes
   wavefun   :      27288. kBytes
 
     INWAV:  cpu time    0.0000: real time    0.0000
 Broyden mixing: mesh for mixing (old mesh)
   NGX = 63   NGY = 63   NGZ =103
  (NGX  =256   NGY  =256   NGZ  =420)
  gives a total of 408807 points

 initial charge density was supplied:
 charge density of overlapping atoms calculated
 number of electron     216.0000000 magnetization 
 keeping initial charge density in first step


--------------------------------------------------------------------------------------------------------


 Maximum index for augmentation-charges          459 (set IRDMAX)


--------------------------------------------------------------------------------------------------------


 First call to EWALD:  gamma=   0.128
 Maximum number of real-space cells 3x 3x 2
 Maximum number of reciprocal cells 3x 3x 4

    FEWALD:  cpu time    0.0025: real time    0.0025


--------------------------------------- Iteration      1(   1)  ---------------------------------------


vdW kernel read from vdw_kernel.bindat
  0.0000  0.2424  0.5071  0.7962  1.1119  1.4567  1.8333  2.2446  2.6937  3.1842
  3.7199  4.3049  4.9438  5.6415  6.4036  7.2358  8.1446  9.1372 10.2212 11.4050
 12.6979 14.1099 15.6519 17.3360 19.1751 21.1837 23.3773 25.7729 28.3892 31.2465
 34.3669 37.7748 41.4965 45.5611 50.0000
 
    POTLOK:  cpu time    6.3451: real time    6.3957
    SETDIJ:  cpu time    0.0826: real time    0.0829
    TRIAL :  cpu time   11.9474: real time   12.0408
    CORREC:  cpu time    0.0006: real time    0.0008
    --------------------------------------------
      LOOP:  cpu time   18.3852: real time   18.5438

 eigenvalue-minimisations  :   336
 total energy-change (2. order) : 0.2527192E+04  (-0.1170837E+05)
 number of electron     216.0000000 magnetization 
 augmentation part      216.0000000 magnetization 

 Free energy of the ion-electron system (eV)
  ---------------------------------------------------
  alpha Z        PSCENC =        59.93625244
  Ewald energy   TEWEN  =     31652.86799389
  -Hartree energ DENC   =    -37828.31078546
  -exchange      EXHF   =         0.00000000
  -V(xc)+E(xc)   XCENC  =       398.23458427
  PAW double counting   =      6564.79108649    -6260.84737255
  entropy T*S    EENTRO =        -0.00000000
  eigenvalues    EBANDS =      -520.56405372
  atomic energy  EATOM  =      8461.08393172
  ---------------------------------------------------
  free energy    TOTEN  =      2527.19163708 eV

  energy without entropy =     2527.19163708  energy(sigma->0) =     2527.19163708


--------------------------------------------------------------------------------------------------------




--------------------------------------- Iteration      1(   2)  ---------------------------------------


    TRIAL :  cpu time   17.9711: real time   18.1359
    CORREC:  cpu time    0.0001: real time    0.0001
    --------------------------------------------
      LOOP:  cpu time   18.0338: real time   18.2012

 eigenvalue-minimisations  :   560
 total energy-change (2. order) :-0.2360336E+04  (-0.2214430E+04)
 number of electron     216.0000000 magnetization 
 augmentation part      216.0000000 magnetization 

 Free energy of the ion-electron system (eV)
  ---------------------------------------------------
  alpha Z        PSCENC =        59.93625244
  Ewald energy   TEWEN  =     31652.86799389
  -Hartree energ DENC   =    -37828.31078546
  -exchange      EXHF   =         0.00000000
  -V(xc)+E(xc)   XCENC  =       398.23458427
  PAW double counting   =      6564.79108649    -6260.84737255
  entropy T*S    EENTRO =        -0.00000000
  eigenvalues    EBANDS =     -2880.90048734
  atomic energy  EATOM  =      8461.08393172
  ---------------------------------------------------
  free energy    TOTEN  =       166.85520346 eV

  energy without entropy =      166.85520346  energy(sigma->0) =      166.85520346


--------------------------------------------------------------------------------------------------------




--------------------------------------- Iteration      1(   3)  ---------------------------------------


    TRIAL :  cpu time   13.4359: real time   13.5422
    CORREC:  cpu time    0.0001: real time    0.0001
    --------------------------------------------
      LOOP:  cpu time   13.4657: real time   13.5723

 eigenvalue-minimisations  :   392
 total energy-change (2. order) :-0.5824541E+03  (-0.5794301E+03)
 number of electron     216.0000000 magnetization 
 augmentation part      216.0000000 magnetization 

 Free energy of the ion-electron system (eV)
  ---------------------------------------------------
  alpha Z        PSCENC =        59.93625244
  Ewald energy   TEWEN  =     31652.86799389
  -Hartree energ DENC   =    -37828.31078546
  -exchange      EXHF   =         0.00000000
  -V(xc)+E(xc)   XCENC  =       398.23458427
  PAW double counting   =      6564.79108649    -6260.84737255
  entropy T*S    EENTRO =        -0.00000000
  eigenvalues    EBANDS =     -3463.35460337
  atomic energy  EATOM  =      8461.08393172
  ---------------------------------------------------
  free energy    TOTEN  =      -415.59891257 eV

  energy without entropy =     -415.59891257  energy(sigma->0) =     -415.59891257


--------------------------------------------------------------------------------------------------------




--------------------------------------- Iteration      1(   4)  ---------------------------------------


    TRIAL :  cpu time   14.9653: real time   15.0860
    CORREC:  cpu time    0.0002: real time    0.0002
    --------------------------------------------
      LOOP:  cpu time   15.0094: real time   15.1388

 eigenvalue-minimisations  :   448
 total energy-change (2. order) :-0.2949595E+02  (-0.2928661E+02)
 number of electron     216.0000000 magnetization 
 augmentation part      216.0000000 magnetization 

 Free energy of the ion-electron system (eV)
  ---------------------------------------------------
  alpha Z        PSCENC =        59.93625244
  Ewald energy   TEWEN  =     31652.86799389
  -Hartree energ DENC   =    -37828.31078546
  -exchange      EXHF   =         0.00000000
  -V(xc)+E(xc)   XCENC  =       398.23458427
  PAW double counting   =      6564.79108649    -6260.84737255
  entropy T*S    EENTRO =        -0.00000000
  eigenvalues    EBANDS =     -3492.85055770
  atomic energy  EATOM  =      8461.08393172
  ---------------------------------------------------
  free energy    TOTEN  =      -445.09486690 eV

  energy without entropy =     -445.09486690  energy(sigma->0) =     -445.09486690


--------------------------------------------------------------------------------------------------------




--------------------------------------- Iteration      1(   5)  ---------------------------------------


    TRIAL :  cpu time   14.9420: real time   15.0805
    CORREC:  cpu time    0.0001: real time    0.0001
    CHARGE:  cpu time    0.6148: real time    0.6194
    --------------------------------------------
      LOOP:  cpu time   15.5949: real time   15.7486

 eigenvalue-minimisations  :   448
 total energy-change (2. order) :-0.1095706E+01  (-0.1091122E+01)
 number of electron     216.0000000 magnetization 
 augmentation part       -0.2199742 magnetization 

 Free energy of the ion-electron system (eV)
  ---------------------------------------------------
  alpha Z        PSCENC =        59.93625244
  Ewald energy   TEWEN  =     31652.86799389
  -Hartree energ DENC   =    -37828.31078546
  -exchange      EXHF   =         0.00000000
  -V(xc)+E(xc)   XCENC  =       398.23458427
  PAW double counting   =      6564.79108649    -6260.84737255
  entropy T*S    EENTRO =        -0.00000000
  eigenvalues    EBANDS =     -3493.94626352
  atomic energy  EATOM  =      8461.08393172
  ---------------------------------------------------
  free energy    TOTEN  =      -446.19057271 eV

  energy without entropy =     -446.19057271  energy(sigma->0) =     -446.19057271


--------------------------------------------------------------------------------------------------------




--------------------------------------- Iteration      1(   6)  ---------------------------------------


    POTLOK:  cpu time    6.0304: real time    6.0759
    SETDIJ:  cpu time    0.1057: real time    0.1061
    TRIAL :  cpu time    5.3553: real time    5.4203
    CORREC:  cpu time    7.2389: real time    7.3185
    CHARGE:  cpu time    0.6040: real time    0.6082
    --------------------------------------------
      LOOP:  cpu time   19.4140: real time   19.6106

 eigenvalue-minimisations  :     0
 total energy-change (2. order) : 0.5519852E+02  (-0.1769450E+02)
 number of electron     216.0000000 magnetization 
 augmentation part       -0.3320011 magnetization 

 Free energy of the ion-electron system (eV)
  ---------------------------------------------------
  alpha Z        PSCENC =        59.93625244
  Ewald energy   TEWEN  =     31652.86799389
  -Hartree energ DENC   =    -39276.82378856
  -exchange      EXHF   =         0.00000000
  -V(xc)+E(xc)   XCENC  =       448.14108685
  PAW double counting   =     71523.51611041   -71227.73697675
  entropy T*S    EENTRO =        -0.00000000
  eigenvalues    EBANDS =     -2031.97666712
  atomic energy  EATOM  =      8461.08393172
  ---------------------------------------------------
  free energy    TOTEN  =      -390.99205712 eV

  energy without entropy =     -390.99205712  energy(sigma->0) =     -390.99205712


--------------------------------------------------------------------------------------------------------




--------------------------------------- Iteration      1(   7)  ---------------------------------------


    POTLOK:  cpu time    6.0916: real time    6.1362
    SETDIJ:  cpu time    0.0201: real time    0.0202
    TRIAL :  cpu time    5.3643: real time    5.4092
    CORREC:  cpu time    7.2786: real time    7.3319
    CHARGE:  cpu time    0.6041: real time    0.6082
    --------------------------------------------
      LOOP:  cpu time   19.4314: real time   19.5806

 eigenvalue-minimisations  :     0
 total energy-change (2. order) :-0.1774105E+02  (-0.2004402E+01)
 number of electron     216.0000000 magnetization 
 augmentation part       -0.3806006 magnetization 

 Free energy of the ion-electron system (eV)
  ---------------------------------------------------
  alpha Z        PSCENC =        59.93625244
  Ewald energy   TEWEN  =     31652.86799389
  -Hartree energ DENC   =    -38752.75689332
  -exchange      EXHF   =         0.00000000
  -V(xc)+E(xc)   XCENC  =       430.12889310
  PAW double counting   =     86505.27168458   -86206.24924400
  entropy T*S    EENTRO =        -0.00000000
  eigenvalues    EBANDS =     -2559.01572866
  atomic energy  EATOM  =      8461.08393172
  ---------------------------------------------------
  free energy    TOTEN  =      -408.73311025 eV

  energy without entropy =     -408.73311025  energy(sigma->0) =     -408.73311025


--------------------------------------------------------------------------------------------------------




--------------------------------------- Iteration      1(   8)  ---------------------------------------


    POTLOK:  cpu time    6.0620: real time    6.1146
    SETDIJ:  cpu time    0.0453: real time    0.0454
    TRIAL :  cpu time    5.3704: real time    5.4130
    CORREC:  cpu time    7.2879: real time    7.3419
    CHARGE:  cpu time    0.6057: real time    0.6106
    --------------------------------------------
      LOOP:  cpu time   19.4340: real time   19.5916

 eigenvalue-minimisations  :     0
 total energy-change (2. order) :-0.2003711E+01  (-0.5645755E+00)
 number of electron     216.0000000 magnetization 
 augmentation part       -0.3954915 magnetization 

 Free energy of the ion-electron system (eV)
  ---------------------------------------------------
  alpha Z        PSCENC =        59.93625244
  Ewald energy   TEWEN  =     31652.86799389
  -Hartree energ DENC   =    -38724.38251868
  -exchange      EXHF   =         0.00000000
  -V(xc)+E(xc)   XCENC  =       429.51676004
  PAW double counting   =     90876.60105496   -90577.14304447
  entropy T*S    EENTRO =        -0.00000000
  eigenvalues    EBANDS =     -2589.21725153
  atomic energy  EATOM  =      8461.08393172
  ---------------------------------------------------
  free energy    TOTEN  =      -410.73682163 eV

  energy without entropy =     -410.73682163  energy(sigma->0) =     -410.73682163


--------------------------------------------------------------------------------------------------------




--------------------------------------- Iteration      1(   9)  ---------------------------------------


    POTLOK:  cpu time    6.0516: real time    6.0937
    SETDIJ:  cpu time    0.0431: real time    0.0432
    TRIAL :  cpu time    5.3650: real time    5.4108
    CORREC:  cpu time    7.2458: real time    7.3161
    CHARGE:  cpu time    0.6048: real time    0.6088
    --------------------------------------------
      LOOP:  cpu time   19.3477: real time   19.5362

 eigenvalue-minimisations  :     0
 total energy-change (2. order) :-0.5645116E+00  (-0.2091136E+00)
 number of electron     216.0000000 magnetization 
 augmentation part       -0.4001453 magnetization 

 Free energy of the ion-electron system (eV)
  ---------------------------------------------------
  alpha Z        PSCENC =        59.93625244
  Ewald energy   TEWEN  =     31652.86799389
  -Hartree energ DENC   =    -38737.37204621
  -exchange      EXHF   =         0.00000000
  -V(xc)+E(xc)   XCENC  =       429.63121122
  PAW double counting   =     94019.95462921   -93720.30480580
  entropy T*S    EENTRO =        -0.00000000
  eigenvalues    EBANDS =     -2577.09849974
  atomic energy  EATOM  =      8461.08393172
  ---------------------------------------------------
  free energy    TOTEN  =      -411.30133326 eV

  energy without entropy =     -411.30133326  energy(sigma->0) =     -411.30133326


--------------------------------------------------------------------------------------------------------




--------------------------------------- Iteration      1(  10)  ---------------------------------------


    POTLOK:  cpu time    6.1126: real time    6.1560
    SETDIJ:  cpu time    0.0053: real time    0.0054
    TRIAL :  cpu time    5.3580: real time    5.4028
    CORREC:  cpu time    7.2871: real time    7.3394
    CHARGE:  cpu time    0.6040: real time    0.6088
    --------------------------------------------
      LOOP:  cpu time   19.4456: real time   19.5930

 eigenvalue-minimisations  :     0
 total energy-change (2. order) :-0.2085367E+00  (-0.9330463E-01)
 number of electron     216.0000000 magnetization 
 augmentation part       -0.3973154 magnetization 

 Free energy of the ion-electron system (eV)
  ---------------------------------------------------
  alpha Z        PSCENC =        59.93625244
  Ewald energy   TEWEN  =     31652.86799389
  -Hartree energ DENC   =    -38734.85388711
  -exchange      EXHF   =         0.00000000
  -V(xc)+E(xc)   XCENC  =       429.47868025
  PAW double counting   =     94825.65866210   -94525.89568039
  entropy T*S    EENTRO =        -0.00000000
  eigenvalues    EBANDS =     -2579.78582288
  atomic energy  EATOM  =      8461.08393172
  ---------------------------------------------------
  free energy    TOTEN  =      -411.50986998 eV

  energy without entropy =     -411.50986998  energy(sigma->0) =     -411.50986998


--------------------------------------------------------------------------------------------------------




--------------------------------------- Iteration      1(  11)  ---------------------------------------


    POTLOK:  cpu time    6.1045: real time    6.1523
    SETDIJ:  cpu time    0.0689: real time    0.0692
    TRIAL :  cpu time    5.3585: real time    5.4025
    CORREC:  cpu time    7.2944: real time    7.3506
    CHARGE:  cpu time    0.6042: real time    0.6090
    --------------------------------------------
      LOOP:  cpu time   19.4565: real time   19.6122

 eigenvalue-minimisations  :     0
 total energy-change (2. order) :-0.9286433E-01  (-0.3546402E-01)
 number of electron     216.0000000 magnetization 
 augmentation part       -0.3947591 magnetization 

 Free energy of the ion-electron system (eV)
  ---------------------------------------------------
  alpha Z        PSCENC =        59.93625244
  Ewald energy   TEWEN  =     31652.86799389
  -Hartree energ DENC   =    -38726.91974443
  -exchange      EXHF   =         0.00000000
  -V(xc)+E(xc)   XCENC  =       429.35276237
  PAW double counting   =     94445.91284562   -94146.15047824
  entropy T*S    EENTRO =        -0.00000000
  eigenvalues    EBANDS =     -2587.68629768
  atomic energy  EATOM  =      8461.08393172
  ---------------------------------------------------
  free energy    TOTEN  =      -411.60273431 eV

  energy without entropy =     -411.60273431  energy(sigma->0) =     -411.60273431


--------------------------------------------------------------------------------------------------------




--------------------------------------- Iteration      1(  12)  ---------------------------------------


    POTLOK:  cpu time    6.0428: real time    6.0848
    SETDIJ:  cpu time    0.1357: real time    0.1361
    TRIAL :  cpu time    5.3671: real time    5.4088
    CORREC:  cpu time    7.2770: real time    7.3354
    CHARGE:  cpu time    0.6050: real time    0.6090
    --------------------------------------------
      LOOP:  cpu time   19.4740: real time   19.6721

 eigenvalue-minimisations  :     0
 total energy-change (2. order) :-0.3544140E-01  (-0.1065604E-01)
 number of electron     216.0000000 magnetization 
 augmentation part       -0.3943287 magnetization 

 Free energy of the ion-electron system (eV)
  ---------------------------------------------------
  alpha Z        PSCENC =        59.93625244
  Ewald energy   TEWEN  =     31652.86799389
  -Hartree energ DENC   =    -38723.16651823
  -exchange      EXHF   =         0.00000000
  -V(xc)+E(xc)   XCENC  =       429.28353720
  PAW double counting   =     93999.30629784   -93699.57518621
  entropy T*S    EENTRO =        -0.00000000
  eigenvalues    EBANDS =     -2591.37448436
  atomic energy  EATOM  =      8461.08393172
  ---------------------------------------------------
  free energy    TOTEN  =      -411.63817571 eV

  energy without entropy =     -411.63817571  energy(sigma->0) =     -411.63817571


--------------------------------------------------------------------------------------------------------




--------------------------------------- Iteration      1(  13)  ---------------------------------------


    POTLOK:  cpu time    6.0468: real time    6.0949
    SETDIJ:  cpu time    0.0751: real time    0.0754
    TRIAL :  cpu time    5.3630: real time    5.4092
    CORREC:  cpu time    7.2846: real time    7.3383
    CHARGE:  cpu time    0.6025: real time    0.6066
    --------------------------------------------
      LOOP:  cpu time   19.4230: real time   19.5857

 eigenvalue-minimisations  :     0
 total energy-change (2. order) :-0.1068673E-01  (-0.2723631E-02)
 number of electron     216.0000000 magnetization 
 augmentation part       -0.3940792 magnetization 

 Free energy of the ion-electron system (eV)
  ---------------------------------------------------
  alpha Z        PSCENC =        59.93625244
  Ewald energy   TEWEN  =     31652.86799389
  -Hartree energ DENC   =    -38722.28228801
  -exchange      EXHF   =         0.00000000
  -V(xc)+E(xc)   XCENC  =       429.24786405
  PAW double counting   =     93778.77174581   -93479.05454291
  entropy T*S    EENTRO =        -0.00000000
  eigenvalues    EBANDS =     -2592.21981943
  atomic energy  EATOM  =      8461.08393172
  ---------------------------------------------------
  free energy    TOTEN  =      -411.64886244 eV

  energy without entropy =     -411.64886244  energy(sigma->0) =     -411.64886244


--------------------------------------------------------------------------------------------------------




--------------------------------------- Iteration      1(  14)  ---------------------------------------


    POTLOK:  cpu time    6.0968: real time    6.1396
    SETDIJ:  cpu time    0.0050: real time    0.0050
    TRIAL :  cpu time    5.3467: real time    5.4040
    CORREC:  cpu time    7.2531: real time    7.3085
    CHARGE:  cpu time    0.6050: real time    0.6094
    --------------------------------------------
      LOOP:  cpu time   19.4036: real time   19.5780

 eigenvalue-minimisations  :     0
 total energy-change (2. order) :-0.2740047E-02  (-0.6917836E-03)
 number of electron     216.0000000 magnetization 
 augmentation part       -0.3940329 magnetization 

 Free energy of the ion-electron system (eV)
  ---------------------------------------------------
  alpha Z        PSCENC =        59.93625244
  Ewald energy   TEWEN  =     31652.86799389
  -Hartree energ DENC   =    -38722.12233182
  -exchange      EXHF   =         0.00000000
  -V(xc)+E(xc)   XCENC  =       429.23971713
  PAW double counting   =     93736.83299988   -93437.12162006
  entropy T*S    EENTRO =        -0.00000000
  eigenvalues    EBANDS =     -2592.36854566
  atomic energy  EATOM  =      8461.08393172
  ---------------------------------------------------
  free energy    TOTEN  =      -411.65160249 eV

  energy without entropy =     -411.65160249  energy(sigma->0) =     -411.65160249


--------------------------------------------------------------------------------------------------------




--------------------------------------- Iteration      1(  15)  ---------------------------------------


    POTLOK:  cpu time    6.0724: real time    6.1148
    SETDIJ:  cpu time    0.0223: real time    0.0224
    TRIAL :  cpu time    5.3676: real time    5.4085
    CORREC:  cpu time    7.2536: real time    7.3327
    CHARGE:  cpu time    0.6035: real time    0.6076
    --------------------------------------------
      LOOP:  cpu time   19.3933: real time   19.5716

 eigenvalue-minimisations  :     0
 total energy-change (2. order) :-0.6982606E-03  (-0.2076641E-03)
 number of electron     216.0000000 magnetization 
 augmentation part       -0.3939691 magnetization 

 Free energy of the ion-electron system (eV)
  ---------------------------------------------------
  alpha Z        PSCENC =        59.93625244
  Ewald energy   TEWEN  =     31652.86799389
  -Hartree energ DENC   =    -38721.95964741
  -exchange      EXHF   =         0.00000000
  -V(xc)+E(xc)   XCENC  =       429.23106446
  PAW double counting   =     93733.31018324   -93433.59933330
  entropy T*S    EENTRO =        -0.00000000
  eigenvalues    EBANDS =     -2592.52274579
  atomic energy  EATOM  =      8461.08393172
  ---------------------------------------------------
  free energy    TOTEN  =      -411.65230075 eV

  energy without entropy =     -411.65230075  energy(sigma->0) =     -411.65230075


--------------------------------------------------------------------------------------------------------




--------------------------------------- Iteration      1(  16)  ---------------------------------------


    POTLOK:  cpu time    6.0561: real time    6.0989
    SETDIJ:  cpu time    0.0583: real time    0.0585
    TRIAL :  cpu time    5.3708: real time    5.4121
    CORREC:  cpu time    7.2442: real time    7.2963
    CHARGE:  cpu time    0.6091: real time    0.6132
    --------------------------------------------
      LOOP:  cpu time   19.4092: real time   19.5537

 eigenvalue-minimisations  :     0
 total energy-change (2. order) :-0.2116574E-03  (-0.7211777E-04)
 number of electron     216.0000000 magnetization 
 augmentation part       -0.3938906 magnetization 

 Free energy of the ion-electron system (eV)
  ---------------------------------------------------
  alpha Z        PSCENC =        59.93625244
  Ewald energy   TEWEN  =     31652.86799389
  -Hartree energ DENC   =    -38722.04130209
  -exchange      EXHF   =         0.00000000
  -V(xc)+E(xc)   XCENC  =       429.23253904
  PAW double counting   =     93714.85049844   -93415.14004778
  entropy T*S    EENTRO =        -0.00000000
  eigenvalues    EBANDS =     -2592.44237806
  atomic energy  EATOM  =      8461.08393172
  ---------------------------------------------------
  free energy    TOTEN  =      -411.65251241 eV

  energy without entropy =     -411.65251241  energy(sigma->0) =     -411.65251241


--------------------------------------------------------------------------------------------------------




--------------------------------------- Iteration      1(  17)  ---------------------------------------


    POTLOK:  cpu time    6.0736: real time    6.1376
    SETDIJ:  cpu time    0.0124: real time    0.0124
    TRIAL :  cpu time    5.3858: real time    5.4270
    CORREC:  cpu time    7.2631: real time    7.3160
    CHARGE:  cpu time    0.6053: real time    0.6095
    --------------------------------------------
      LOOP:  cpu time   19.4198: real time   19.5867

 eigenvalue-minimisations  :     0
 total energy-change (2. order) :-0.7465111E-04  (-0.2667979E-04)
 number of electron     216.0000000 magnetization 
 augmentation part       -0.3939010 magnetization 

 Free energy of the ion-electron system (eV)
  ---------------------------------------------------
  alpha Z        PSCENC =        59.93625244
  Ewald energy   TEWEN  =     31652.86799389
  -Hartree energ DENC   =    -38722.18215665
  -exchange      EXHF   =         0.00000000
  -V(xc)+E(xc)   XCENC  =       429.23742228
  PAW double counting   =     93697.90626496   -93398.19620063
  entropy T*S    EENTRO =        -0.00000000
  eigenvalues    EBANDS =     -2592.30609506
  atomic energy  EATOM  =      8461.08393172
  ---------------------------------------------------
  free energy    TOTEN  =      -411.65258706 eV

  energy without entropy =     -411.65258706  energy(sigma->0) =     -411.65258706


--------------------------------------------------------------------------------------------------------




--------------------------------------- Iteration      1(  18)  ---------------------------------------


    POTLOK:  cpu time    6.0658: real time    6.1094
    SETDIJ:  cpu time    0.0547: real time    0.0549
    TRIAL :  cpu time    5.3628: real time    5.4100
    CORREC:  cpu time    7.2450: real time    7.3039
    CHARGE:  cpu time    0.6065: real time    0.6106
    --------------------------------------------
      LOOP:  cpu time   19.4370: real time   19.6065

 eigenvalue-minimisations  :     0
 total energy-change (2. order) :-0.2830144E-04  (-0.1060266E-04)
 number of electron     216.0000000 magnetization 
 augmentation part       -0.3939203 magnetization 

 Free energy of the ion-electron system (eV)
  ---------------------------------------------------
  alpha Z        PSCENC =        59.93625244
  Ewald energy   TEWEN  =     31652.86799389
  -Hartree energ DENC   =    -38722.19858834
  -exchange      EXHF   =         0.00000000
  -V(xc)+E(xc)   XCENC  =       429.23736628
  PAW double counting   =     93695.00679190   -93395.29613456
  entropy T*S    EENTRO =        -0.00000000
  eigenvalues    EBANDS =     -2592.29022869
  atomic energy  EATOM  =      8461.08393172
  ---------------------------------------------------
  free energy    TOTEN  =      -411.65261536 eV

  energy without entropy =     -411.65261536  energy(sigma->0) =     -411.65261536


--------------------------------------------------------------------------------------------------------




--------------------------------------- Iteration      1(  19)  ---------------------------------------


    POTLOK:  cpu time    6.0611: real time    6.1036
    SETDIJ:  cpu time    0.0277: real time    0.0278
    TRIAL :  cpu time    5.3658: real time    5.4070
    CORREC:  cpu time    7.2908: real time    7.3428
    CHARGE:  cpu time    0.6060: real time    0.6101
    --------------------------------------------
      LOOP:  cpu time   19.4011: real time   19.5425

 eigenvalue-minimisations  :     0
 total energy-change (2. order) :-0.1123310E-04  (-0.4400574E-05)
 number of electron     216.0000000 magnetization 
 augmentation part       -0.3939452 magnetization 

 Free energy of the ion-electron system (eV)
  ---------------------------------------------------
  alpha Z        PSCENC =        59.93625244
  Ewald energy   TEWEN  =     31652.86799389
  -Hartree energ DENC   =    -38722.23055091
  -exchange      EXHF   =         0.00000000
  -V(xc)+E(xc)   XCENC  =       429.23855658
  PAW double counting   =     93700.02754401   -93400.31666150
  entropy T*S    EENTRO =        -0.00000000
  eigenvalues    EBANDS =     -2592.25969283
  atomic energy  EATOM  =      8461.08393172
  ---------------------------------------------------
  free energy    TOTEN  =      -411.65262659 eV

  energy without entropy =     -411.65262659  energy(sigma->0) =     -411.65262659


--------------------------------------------------------------------------------------------------------




--------------------------------------- Iteration      1(  20)  ---------------------------------------


    POTLOK:  cpu time    6.0715: real time    6.1209
    SETDIJ:  cpu time    0.0592: real time    0.0594
    TRIAL :  cpu time    5.3663: real time    5.4113
    CORREC:  cpu time    7.2509: real time    7.3040
    CHARGE:  cpu time    0.6065: real time    0.6107
    --------------------------------------------
      LOOP:  cpu time   19.3644: real time   19.5439

 eigenvalue-minimisations  :     0
 total energy-change (2. order) :-0.4645000E-05  (-0.1566525E-05)
 number of electron     216.0000000 magnetization 
 augmentation part       -0.3939570 magnetization 

 Free energy of the ion-electron system (eV)
  ---------------------------------------------------
  alpha Z        PSCENC =        59.93625244
  Ewald energy   TEWEN  =     31652.86799389
  -Hartree energ DENC   =    -38722.25171776
  -exchange      EXHF   =         0.00000000
  -V(xc)+E(xc)   XCENC  =       429.23917773
  PAW double counting   =     93705.89496666   -93406.18393458
  entropy T*S    EENTRO =        -0.00000000
  eigenvalues    EBANDS =     -2592.23930133
  atomic energy  EATOM  =      8461.08393172
  ---------------------------------------------------
  free energy    TOTEN  =      -411.65263124 eV

  energy without entropy =     -411.65263124  energy(sigma->0) =     -411.65263124


--------------------------------------------------------------------------------------------------------




--------------------------------------- Iteration      1(  21)  ---------------------------------------


    POTLOK:  cpu time    6.0276: real time    6.0727
    SETDIJ:  cpu time    0.0604: real time    0.0606
    TRIAL :  cpu time    5.3633: real time    5.4069
    CORREC:  cpu time    7.2761: real time    7.3355
    CHARGE:  cpu time    0.6056: real time    0.6106
    --------------------------------------------
      LOOP:  cpu time   19.3955: real time   19.5510

 eigenvalue-minimisations  :     0
 total energy-change (2. order) :-0.1600827E-05  (-0.8094573E-06)
 number of electron     216.0000000 magnetization 
 augmentation part       -0.3939500 magnetization 

 Free energy of the ion-electron system (eV)
  ---------------------------------------------------
  alpha Z        PSCENC =        59.93625244
  Ewald energy   TEWEN  =     31652.86799389
  -Hartree energ DENC   =    -38722.25014700
  -exchange      EXHF   =         0.00000000
  -V(xc)+E(xc)   XCENC  =       429.23891378
  PAW double counting   =     93708.36755202   -93408.65643667
  entropy T*S    EENTRO =        -0.00000000
  eigenvalues    EBANDS =     -2592.24069302
  atomic energy  EATOM  =      8461.08393172
  ---------------------------------------------------
  free energy    TOTEN  =      -411.65263284 eV

  energy without entropy =     -411.65263284  energy(sigma->0) =     -411.65263284


--------------------------------------------------------------------------------------------------------




--------------------------------------- Iteration      1(  22)  ---------------------------------------


    POTLOK:  cpu time    6.0466: real time    6.0975
    SETDIJ:  cpu time    0.0402: real time    0.0404
    TRIAL :  cpu time    5.3613: real time    5.4070
    CORREC:  cpu time    7.2547: real time    7.3080
    CHARGE:  cpu time    0.6059: real time    0.6099
    --------------------------------------------
      LOOP:  cpu time   19.3357: real time   19.4911

 eigenvalue-minimisations  :     0
 total energy-change (2. order) :-0.7425115E-06  (-0.3797147E-06)
 number of electron     216.0000000 magnetization 
 augmentation part       -0.3939500 magnetization 

 Free energy of the ion-electron system (eV)
  ---------------------------------------------------
  alpha Z        PSCENC =        59.93625244
  Ewald energy   TEWEN  =     31652.86799389
  -Hartree energ DENC   =    -38722.25386566
  -exchange      EXHF   =         0.00000000
  -V(xc)+E(xc)   XCENC  =       429.23901382
  PAW double counting   =     93708.39129341   -93408.68027860
  entropy T*S    EENTRO =        -0.00000000
  eigenvalues    EBANDS =     -2592.23697461
  atomic energy  EATOM  =      8461.08393172
  ---------------------------------------------------
  free energy    TOTEN  =      -411.65263358 eV

  energy without entropy =     -411.65263358  energy(sigma->0) =     -411.65263358


--------------------------------------------------------------------------------------------------------




--------------------------------------- Iteration      1(  23)  ---------------------------------------


    POTLOK:  cpu time    6.0343: real time    6.0778
    SETDIJ:  cpu time    0.0920: real time    0.0924
    TRIAL :  cpu time    5.3696: real time    5.4131
    CORREC:  cpu time    7.2745: real time    7.3292
    CHARGE:  cpu time    0.6028: real time    0.6076
    --------------------------------------------
      LOOP:  cpu time   19.4398: real time   19.6367

 eigenvalue-minimisations  :     0
 total energy-change (2. order) :-0.2717279E-06  (-0.1609227E-06)
 number of electron     216.0000000 magnetization 
 augmentation part       -0.3939511 magnetization 

 Free energy of the ion-electron system (eV)
  ---------------------------------------------------
  alpha Z        PSCENC =        59.93625244
  Ewald energy   TEWEN  =     31652.86799389
  -Hartree energ DENC   =    -38722.24755068
  -exchange      EXHF   =         0.00000000
  -V(xc)+E(xc)   XCENC  =       429.23871906
  PAW double counting   =     93707.39654572   -93407.68554714
  entropy T*S    EENTRO =        -0.00000000
  eigenvalues    EBANDS =     -2592.24297887
  atomic energy  EATOM  =      8461.08393172
  ---------------------------------------------------
  free energy    TOTEN  =      -411.65263385 eV

  energy without entropy =     -411.65263385  energy(sigma->0) =     -411.65263385


--------------------------------------------------------------------------------------------------------




--------------------------------------- Iteration      1(  24)  ---------------------------------------


    POTLOK:  cpu time    6.0522: real time    6.0985
    SETDIJ:  cpu time    0.0481: real time    0.0483
    TRIAL :  cpu time    5.3701: real time    5.4130
    CORREC:  cpu time    7.2030: real time    7.2557
    CHARGE:  cpu time    0.6052: real time    0.6107
    --------------------------------------------
      LOOP:  cpu time   19.3329: real time   19.5027

 eigenvalue-minimisations  :     0
 total energy-change (2. order) :-0.8892675E-07  ( 0.1350812E-06)
 number of electron     216.0000000 magnetization 
 augmentation part       -0.3939541 magnetization 

 Free energy of the ion-electron system (eV)
  ---------------------------------------------------
  alpha Z        PSCENC =        59.93625244
  Ewald energy   TEWEN  =     31652.86799389
  -Hartree energ DENC   =    -38722.24442080
  -exchange      EXHF   =         0.00000000
  -V(xc)+E(xc)   XCENC  =       429.23874273
  PAW double counting   =     93706.70093387   -93406.98996242
  entropy T*S    EENTRO =        -0.00000000
  eigenvalues    EBANDS =     -2592.24610537
  atomic energy  EATOM  =      8461.08393172
  ---------------------------------------------------
  free energy    TOTEN  =      -411.65263394 eV

  energy without entropy =     -411.65263394  energy(sigma->0) =     -411.65263394


--------------------------------------------------------------------------------------------------------




--------------------------------------- Iteration      1(  25)  ---------------------------------------


    POTLOK:  cpu time    6.0772: real time    6.1214
    SETDIJ:  cpu time    0.0197: real time    0.0198
    TRIAL :  cpu time    5.3633: real time    5.4096
    CORREC:  cpu time   29.0539: real time   29.3190
    CHARGE:  cpu time    0.6029: real time    0.6077
    --------------------------------------------
      LOOP:  cpu time   41.2257: real time   41.5866

 eigenvalue-minimisations  :     0
 total energy-change (2. order) :-0.1268927E-06  (-0.6781547E-06)
 number of electron     216.0000000 magnetization 
 augmentation part       -0.3939712 magnetization 

 Free energy of the ion-electron system (eV)
  ---------------------------------------------------
  alpha Z        PSCENC =        59.93625244
  Ewald energy   TEWEN  =     31652.86799389
  -Hartree energ DENC   =    -38722.24255364
  -exchange      EXHF   =         0.00000000
  -V(xc)+E(xc)   XCENC  =       429.23870238
  PAW double counting   =     93706.49395213   -93406.78296239
  entropy T*S    EENTRO =        -0.00000000
  eigenvalues    EBANDS =     -2592.24795060
  atomic energy  EATOM  =      8461.08393172
  ---------------------------------------------------
  free energy    TOTEN  =      -411.65263407 eV

  energy without entropy =     -411.65263407  energy(sigma->0) =     -411.65263407


--------------------------------------------------------------------------------------------------------




--------------------------------------- Iteration      1(  26)  ---------------------------------------


    POTLOK:  cpu time    6.0373: real time    6.0870
    SETDIJ:  cpu time    0.0567: real time    0.0569
    TRIAL :  cpu time    5.3550: real time    5.4046
    CORREC:  cpu time    7.2856: real time    7.3523
    CHARGE:  cpu time    0.6044: real time    0.6091
    --------------------------------------------
      LOOP:  cpu time   19.3966: real time   19.5701

 eigenvalue-minimisations  :     0
 total energy-change (2. order) : 0.1233260E-05  (-0.1184809E-05)
 number of electron     216.0000000 magnetization 
 augmentation part       -0.3939614 magnetization 

 Free energy of the ion-electron system (eV)
  ---------------------------------------------------
  alpha Z        PSCENC =        59.93625244
  Ewald energy   TEWEN  =     31652.86799389
  -Hartree energ DENC   =    -38722.23727884
  -exchange      EXHF   =         0.00000000
  -V(xc)+E(xc)   XCENC  =       429.23846160
  PAW double counting   =     93706.27050226   -93406.55935103
  entropy T*S    EENTRO =        -0.00000000
  eigenvalues    EBANDS =     -2592.25314488
  atomic energy  EATOM  =      8461.08393172
  ---------------------------------------------------
  free energy    TOTEN  =      -411.65263283 eV

  energy without entropy =     -411.65263283  energy(sigma->0) =     -411.65263283


--------------------------------------------------------------------------------------------------------




--------------------------------------- Iteration      1(  27)  ---------------------------------------


    POTLOK:  cpu time    6.0501: real time    6.1023
    SETDIJ:  cpu time    0.0382: real time    0.0384
    TRIAL :  cpu time    5.3539: real time    5.4042
    CORREC:  cpu time    7.2526: real time    7.3161
    CHARGE:  cpu time    0.6028: real time    0.6075
    --------------------------------------------
      LOOP:  cpu time   19.3580: real time   19.5317

 eigenvalue-minimisations  :     0
 total energy-change (2. order) :-0.1174078E-05  (-0.1805115E-06)
 number of electron     216.0000000 magnetization 
 augmentation part       -0.3939617 magnetization 

 Free energy of the ion-electron system (eV)
[...]
      9     -21.1887      2.00000
     10     -19.3591      2.00000
     11     -19.3589      2.00000
     12     -19.3586      2.00000
     13     -19.3583      2.00000
     14     -19.3582      2.00000
     15     -19.3581      2.00000
     16     -18.4683      2.00000
     17     -18.4682      2.00000
     18     -18.4679      2.00000
     19     -18.4673      2.00000
     20     -18.4671      2.00000
     21     -18.4669      2.00000
     22     -16.3256      2.00000
     23     -16.3253      2.00000
     24     -16.3245      2.00000
     25     -16.3243      2.00000
     26     -16.3235      2.00000
     27     -16.3234      2.00000
     28     -15.3316      2.00000
     29     -15.3316      2.00000
     30     -15.3311      2.00000
     31     -15.3310      2.00000
     32     -15.3303      2.00000
     33     -15.3303      2.00000
     34     -13.9935      2.00000
     35     -13.9934      2.00000
     36     -13.9928      2.00000
     37     -13.9926      2.00000
     38     -13.9926      2.00000
     39     -13.9923      2.00000
     40     -12.2733      2.00000
     41     -11.6403      2.00000
     42     -11.6401      2.00000
     43     -11.6396      2.00000
     44     -11.6396      2.00000
     45     -11.6387      2.00000
     46     -11.6384      2.00000
     47     -11.5294      2.00000
     48     -11.5294      2.00000
     49     -11.5288      2.00000
     50     -11.5287      2.00000
     51     -11.5279      2.00000
     52     -11.5277      2.00000
     53     -11.1315      2.00000
     54     -11.0392      2.00000
     55     -11.0384      2.00000
     56     -10.2878      2.00000
     57     -10.1653      2.00000
     58     -10.1652      2.00000
     59     -10.1638      2.00000
     60     -10.1634      2.00000
     61     -10.1632      2.00000
     62     -10.1632      2.00000
     63      -9.1753      2.00000
     64      -9.1741      2.00000
     65      -9.1725      2.00000
     66      -9.1715      2.00000
     67      -9.1699      2.00000
     68      -9.1699      2.00000
     69      -8.9247      2.00000
     70      -8.9241      2.00000
     71      -8.9238      2.00000
     72      -8.9234      2.00000
     73      -8.9229      2.00000
     74      -8.9228      2.00000
     75      -8.8651      2.00000
     76      -8.8650      2.00000
     77      -8.8648      2.00000
     78      -8.8647      2.00000
     79      -8.8641      2.00000
     80      -8.8633      2.00000
     81      -7.5153      2.00000
     82      -7.5145      2.00000
     83      -7.2884      2.00000
     84      -7.2871      2.00000
     85      -7.2868      2.00000
     86      -7.2863      2.00000
     87      -7.2849      2.00000
     88      -7.2849      2.00000
     89      -7.0467      2.00000
     90      -7.0467      2.00000
     91      -7.0466      2.00000
     92      -7.0461      2.00000
     93      -7.0459      2.00000
     94      -7.0457      2.00000
     95      -6.1530      2.00000
     96      -6.1520      2.00000
     97      -6.1517      2.00000
     98      -6.1514      2.00000
     99      -6.1511      2.00000
    100      -6.1507      2.00000
    101      -5.8265      2.00000
    102      -5.8243      2.00000
    103      -4.1745      2.00000
    104      -4.1744      2.00000
    105      -4.1741      2.00000
    106      -4.1737      2.00000
    107      -4.1718      2.00000
    108      -4.1716      2.00000
    109      -1.3791      0.00000
    110      -1.3789      0.00000
    111      -1.3774      0.00000
    112      -1.3771      0.00000
    113      -1.3769      0.00000
    114      -1.3768      0.00000
    115      -0.2861      0.00000
    116       0.1400      0.00000
    117       0.4778      0.00000
    118       0.4786      0.00000
    119       0.4791      0.00000
    120       0.4799      0.00000
    121       0.4801      0.00000
    122       0.4824      0.00000
    123       0.5994      0.00000
    124       0.7714      0.00000
    125       0.8930      0.00000
    126       0.9227      0.00000
    127       0.9303      0.00000
    128       1.0370      0.00000
    129       1.1984      0.00000
    130       1.3106      0.00000
    131       1.3273      0.00000
    132       1.4108      0.00000
    133       1.5802      0.00000
    134       1.6126      0.00000
    135       1.6258      0.00000
    136       1.6578      0.00000
    137       1.7018      0.00000
    138       1.7830      0.00000
    139       1.8256      0.00000
    140       2.1444      0.00000
    141       2.1656      0.00000
    142       2.1750      0.00000
    143       2.1903      0.00000
    144       2.2090      0.00000
    145       2.2093      0.00000
    146       2.2103      0.00000
    147       2.2108      0.00000
    148       2.2109      0.00000
    149       2.2112      0.00000
    150       2.2148      0.00000
    151       2.2348      0.00000
    152       2.8325      0.00000
    153       2.8824      0.00000
    154       2.9720      0.00000
    155       3.0312      0.00000
    156       3.1208      0.00000
    157       3.1739      0.00000
    158       3.2854      0.00000
    159       3.5006      0.00000
    160       3.5365      0.00000
    161       3.6379      0.00000
    162       3.8714      0.00000
    163       4.5597      0.00000
    164       4.8293      0.00000
    165       4.8908      0.00000
    166       4.8992      0.00000
    167       4.9043      0.00000
    168       4.9095      0.00000


--------------------------------------------------------------------------------------------------------


 soft charge-density along one line, spin component           1
         0         1         2         3         4         5         6         7         8         9
 total charge-density along one line
 
 pseudopotential strength for first ion, spin component:           1
 12.674  21.329   0.000   0.000   0.000   0.000   0.000   0.000
 21.329  35.891   0.000   0.000   0.000   0.000   0.000   0.000
  0.000   0.000  -3.238  -0.000   0.000  -5.804  -0.000   0.000
  0.000   0.000  -0.000  -3.246  -0.000  -0.000  -5.818  -0.000
  0.000   0.000   0.000  -0.000  -3.238   0.000  -0.000  -5.804
  0.000   0.000  -5.804  -0.000   0.000 -10.380  -0.000   0.000
  0.000   0.000  -0.000  -5.818  -0.000  -0.000 -10.405  -0.000
  0.000   0.000   0.000  -0.000  -5.804   0.000  -0.000 -10.380
 total augmentation occupancy for first ion, spin component:           1
  6.917  -2.317  -0.000  -0.002  -0.000   0.000   0.001   0.000
 -2.317   0.818   0.000   0.001  -0.000  -0.000  -0.000  -0.000
 -0.000   0.000   6.628  -0.007   0.000  -2.167   0.003  -0.000
 -0.002   0.001  -0.007   2.819  -0.000   0.003  -0.689   0.000
 -0.000  -0.000   0.000  -0.000   6.627  -0.000   0.000  -2.167
  0.000  -0.000  -2.167   0.003  -0.000   0.725  -0.001   0.000
  0.001  -0.000   0.003  -0.689   0.000  -0.001   0.176  -0.000
  0.000  -0.000  -0.000   0.000  -2.167   0.000  -0.000   0.724


------------------------ aborting loop because EDIFF is reached ----------------------------------------


    FORLOC:  cpu time    0.1046: real time    0.1054
    FORNL :  cpu time    2.9175: real time    2.9444
    FORCOR:  cpu time    6.0613: real time    6.1131
    OFIELD:  cpu time    0.0025: real time    0.0025

 VOLUME and BASIS-vectors are now :
 -----------------------------------------------------------------------------
  energy-cutoff  :     1000.00
  volume of cell :     2631.08
      direct lattice vectors                 reciprocal lattice vectors
    12.325000000  0.000000000  0.000000000     0.081135903  0.046843835  0.000000000
    -6.162500000 10.673763102  0.000000000     0.000000000  0.093687670  0.000000000
     0.000000000  0.000000000 20.000000000     0.000000000  0.000000000  0.050000000

  length of vectors
    12.325000000 12.325000000 20.000000000     0.093687670  0.093687670  0.050000000


 FORCES acting on ions:
    Electron-Ion                     Ewald-Force                    Non-Local-Force
 -----------------------------------------------------------------------------------------------
   0.378E+01 0.328E+01 0.186E+02   -.379E+01 -.328E+01 -.186E+02   0.792E-02 -.107E-02 0.791E-02
   0.550E+01 0.268E+01 0.217E+02   -.551E+01 -.268E+01 -.217E+02   0.869E-02 -.455E-02 -.503E-02
   0.236E+01 0.632E+01 0.239E+02   -.236E+01 -.633E+01 -.239E+02   -.712E-03 0.175E-01 0.647E-02
   0.312E+01 0.452E+01 0.305E+02   -.313E+01 -.452E+01 -.305E+02   0.165E-01 0.304E-02 -.251E-03
   0.403E+01 0.958E+00 0.189E+02   -.404E+01 -.955E+00 -.189E+02   0.240E-02 -.798E-02 0.765E-03
   0.414E+01 -.817E+00 0.191E+02   -.414E+01 0.820E+00 -.191E+02   -.655E-02 0.190E-02 -.706E-02
   0.591E+01 0.216E+01 0.286E+02   -.592E+01 -.215E+01 -.286E+02   0.194E-01 -.228E-01 -.434E-03
   0.573E+01 -.205E+01 0.299E+02   -.574E+01 0.206E+01 -.299E+02   0.552E-03 -.102E-01 -.613E-02
   -.282E+01 0.570E+01 0.241E+02   0.283E+01 -.571E+01 -.241E+02   -.538E-02 -.783E-02 -.599E-02
   -.425E+01 0.357E+01 0.299E+02   0.426E+01 -.358E+01 -.299E+02   -.338E-01 0.205E-01 0.802E-02
   0.105E+01 -.104E+01 0.166E+02   -.104E+01 0.104E+01 -.166E+02   0.201E-02 -.225E-02 -.280E-02
   0.908E+00 -.761E+00 0.159E+02   -.905E+00 0.760E+00 -.159E+02   -.935E-02 0.428E-02 0.381E-02
   0.227E+01 -.487E+01 0.321E+02   -.228E+01 0.488E+01 -.321E+02   0.346E-01 -.136E-01 0.313E-02
   0.128E+01 -.634E+01 0.250E+02   -.129E+01 0.635E+01 -.250E+02   0.888E-02 0.202E-02 -.172E-01
   -.364E+01 0.224E+01 0.183E+02   0.364E+01 -.224E+01 -.183E+02   0.721E-02 -.339E-02 0.300E-02
   -.497E+01 0.147E+01 0.198E+02   0.498E+01 -.148E+01 -.198E+02   -.477E-02 0.772E-02 -.914E-02
   -.647E+00 -.255E+00 0.153E+02   0.654E+00 0.252E+00 -.153E+02   -.318E-02 0.136E-02 0.138E-02
   0.300E+00 0.225E+01 0.159E+02   -.297E+00 -.225E+01 -.159E+02   -.490E-02 0.299E-02 0.934E-02
   -.964E+00 -.595E+01 0.214E+02   0.959E+00 0.596E+01 -.214E+02   0.964E-02 -.480E-02 0.189E-02
   -.511E+00 -.337E+01 0.172E+02   0.505E+00 0.337E+01 -.172E+02   0.266E-02 -.330E-02 -.125E-02
   0.550E+01 -.243E+01 0.228E+02   -.550E+01 0.243E+01 -.228E+02   0.156E-02 -.499E-02 -.225E-01
   0.367E+01 -.305E+01 0.200E+02   -.368E+01 0.305E+01 -.200E+02   -.639E-02 0.534E-02 -.748E-02
   -.109E+01 0.207E+01 0.346E+02   0.109E+01 -.207E+01 -.346E+02   -.137E-01 0.136E-01 0.198E-01
   -.148E+01 -.325E+01 0.340E+02   0.148E+01 0.326E+01 -.340E+02   0.143E-01 -.195E-01 0.676E-02
   0.193E+01 -.767E+00 0.167E+02   -.193E+01 0.765E+00 -.167E+02   0.166E-02 -.180E-02 -.656E-02
   0.439E+00 0.170E+01 0.167E+02   -.436E+00 -.170E+01 -.167E+02   -.768E-02 0.488E-02 0.293E-02
   -.638E+01 0.878E+00 0.254E+02   0.639E+01 -.885E+00 -.254E+02   0.499E-02 0.112E-01 -.230E-02
   -.611E+01 -.243E+01 0.241E+02   0.612E+01 0.243E+01 -.241E+02   -.150E-01 0.113E-01 0.499E-02
   0.217E+01 -.436E+01 0.206E+02   -.218E+01 0.436E+01 -.206E+02   0.791E-02 0.109E-02 -.113E-01
   0.190E+00 -.184E+01 0.175E+02   -.193E+00 0.184E+01 -.175E+02   -.335E-02 0.259E-02 -.562E-02
   -.451E+01 -.471E+01 0.273E+02   0.451E+01 0.471E+01 -.273E+02   -.166E-01 -.107E-01 -.202E-02
   -.306E+01 -.567E+01 0.220E+02   0.307E+01 0.568E+01 -.220E+02   0.713E-03 -.611E-02 0.709E-02
   0.253E+00 0.101E+01 0.158E+02   -.256E+00 -.101E+01 -.158E+02   0.742E-02 -.563E-02 0.548E-02
   0.656E+00 0.988E+00 0.165E+02   -.660E+00 -.986E+00 -.165E+02   -.128E-02 0.365E-02 -.351E-02
   -.255E+01 0.404E+00 0.174E+02   0.255E+01 -.406E+00 -.174E+02   0.375E-02 -.160E-02 0.294E-02
   -.226E+01 -.955E+00 0.171E+02   0.226E+01 0.954E+00 -.171E+02   -.686E-02 0.381E-02 0.165E-02
   -.438E+01 -.228E+01 0.188E+02   0.439E+01 0.228E+01 -.188E+02   -.575E-02 0.161E-02 0.356E-02
   -.278E+01 -.222E+01 0.169E+02   0.278E+01 0.222E+01 -.169E+02   -.668E-02 0.148E-02 0.977E-02
   -.254E+01 -.327E+01 0.177E+02   0.254E+01 0.327E+01 -.177E+02   -.527E-02 -.128E-02 0.671E-02
   -.385E+00 -.841E+00 0.160E+02   0.386E+00 0.842E+00 -.160E+02   0.245E-02 -.350E-03 0.828E-02
   0.953E+00 0.237E+01 0.164E+02   -.953E+00 -.237E+01 -.164E+02   -.450E-02 0.374E-02 0.802E-02
   0.295E+01 0.461E+01 0.192E+02   -.295E+01 -.461E+01 -.192E+02   0.213E-02 0.152E-02 0.110E-01
   0.266E+00 0.401E+01 0.174E+02   -.259E+00 -.401E+01 -.174E+02   -.310E-02 0.381E-02 0.138E-02
   -.732E-01 0.630E+01 0.219E+02   0.796E-01 -.631E+01 -.219E+02   -.123E-01 0.585E-02 0.709E-02
   -.756E+00 0.145E+01 0.173E+02   0.758E+00 -.146E+01 -.173E+02   0.311E-02 -.265E-02 -.208E-02
   -.294E+01 0.363E+01 0.194E+02   0.295E+01 -.363E+01 -.194E+02   -.913E-02 0.201E-02 -.573E-02
   -.650E+00 -.168E+01 0.166E+02   0.648E+00 0.168E+01 -.166E+02   0.877E-02 -.222E-02 0.374E-02
   -.152E+01 0.576E+00 0.159E+02   0.152E+01 -.575E+00 -.159E+02   -.181E-02 0.276E-02 -.570E-02
   0.158E+00 -.105E+01 0.159E+02   -.160E+00 0.105E+01 -.159E+02   0.589E-02 -.385E-02 0.596E-02
   0.166E+01 0.119E+01 0.160E+02   -.167E+01 -.119E+01 -.160E+02   0.275E-02 0.106E-02 0.313E-02
   0.226E-01 -.354E-03 -.258E+03   -.241E-01 0.221E-02 0.258E+03   -.321E-02 0.219E-02 -.878E-02
   -.229E+03 0.156E+03 -.399E+03   0.279E+03 -.190E+03 0.402E+03   -.513E+02 0.349E+02 -.346E+01
   0.229E+03 -.156E+03 -.379E+03   -.279E+03 0.190E+03 0.376E+03   0.513E+02 -.349E+02 0.307E+01
 -----------------------------------------------------------------------------------------------
   -.411E-02 0.116E-01 0.369E+00   0.000E+00 0.284E-13 0.455E-12   0.421E-02 -.117E-01 -.366E+00
 
 
 POSITION                                       TOTAL-FORCE (eV/Angst)
 -----------------------------------------------------------------------------------
     11.98348      0.00342      0.01417         0.002863     -0.001357     -0.000810
     -0.34154      1.42665      0.01100        -0.001828      0.000010     -0.002648
      2.12355      0.00315      0.01249        -0.001530      0.008999     -0.005109
      2.12326      1.42653      0.00641         0.011771      0.000698     -0.005231
     10.75099      2.13819      0.01213         0.000192     -0.005132      0.000218
     -1.57382      3.56123      0.01110        -0.008252      0.004956     -0.001244
      0.89078      2.13854      0.00548         0.008022     -0.017544      0.004271
      0.89099      3.56147      0.00181        -0.012911     -0.001537      0.013568
      4.58864      0.00346      0.01135         0.004344     -0.016509     -0.002542
      4.58894      1.42623      0.00646        -0.021062      0.011786      0.015941
      9.51854      4.27281      0.01369         0.006755     -0.003250      0.000171
     -2.80632      5.69591      0.01434        -0.006238      0.003254      0.000794
      2.12300      4.27302      0.00000         0.022595     -0.003839      0.022683
      2.12335      5.69594      0.00581        -0.001365      0.009926     -0.001479
      7.05344      0.00333      0.01399         0.008799     -0.004947     -0.000151
      7.05353      1.42635      0.01368        -0.001343      0.004390     -0.003372
      8.28610      6.40752      0.01601         0.003320     -0.001574     -0.000624
     -4.03885      7.83070      0.01636        -0.001958      0.000884      0.000044
      3.35586      6.40753      0.01007         0.004636      0.000665     -0.000887
      3.35599      7.83072      0.01320        -0.003469      0.000487     -0.000513
     -0.34146      4.27290      0.00723        -0.002191     -0.000962     -0.003682
     -0.34138      5.69591      0.00946        -0.008736      0.005956     -0.000899
      3.35624      2.13791      0.00222        -0.012364      0.010859      0.020001
      3.35573      3.56155      0.00139         0.012661     -0.014384      0.012194
     -1.57395      6.40758      0.01311         0.005846     -0.004087     -0.000562
     -1.57385      7.83068      0.01438        -0.004524      0.003661      0.000136
      5.82093      2.13784      0.01033         0.016935      0.004584     -0.001772
      5.82114      3.56097      0.01156        -0.005171      0.007580     -0.002696
      0.89092      6.40755      0.00907         0.004040      0.002107     -0.001938
      0.89106      7.83068      0.01235        -0.006946      0.003471      0.000438
      4.58871      4.27293      0.00850        -0.011252     -0.005604     -0.008649
      4.58852      5.69606      0.01149         0.001873      0.000014     -0.003204
      9.51845      0.00337      0.01490         0.004486     -0.004507      0.000286
      9.51855      1.42644      0.01438        -0.005107      0.005632     -0.000317
      8.28593      2.13803      0.01453         0.006228     -0.003523      0.000633
      8.28613      3.56115      0.01464        -0.004069      0.001943      0.000068
      7.05356      4.27269      0.01457         0.003496     -0.001007     -0.000189
      7.05362      5.69588      0.01553        -0.002274      0.001335      0.000015
      5.82112      6.40755      0.01489        -0.002443      0.001821      0.000131
      5.82102      7.83073      0.01579         0.002603      0.000437     -0.000136
      7.05363      8.54227      0.01631        -0.004512      0.000833      0.001268
     -5.27149      9.96549      0.01495        -0.000431     -0.002440     -0.001679
     -2.80638      8.54234      0.01558         0.003480     -0.001909     -0.000864
     -2.80627      9.96553      0.01362        -0.005670     -0.000410     -0.003343
     -0.34149      8.54239      0.01378         0.005761     -0.004504      0.000207
     -0.34138      9.96550      0.01354        -0.005384     -0.000064     -0.000934
      2.12343      8.54232      0.01336         0.005555     -0.001483      0.000808
      2.12354      9.96544      0.01469        -0.005556      0.003937     -0.001797
      4.58846      8.54235      0.01505         0.003494     -0.002783      0.001059
      4.58853      9.96550      0.01517        -0.003275      0.003298      0.000340
      3.04930      2.68154      5.29732        -0.004680      0.004030      0.015886
      4.02070      2.02068      5.36174        -0.651234      0.442683     -0.067549
      2.07767      3.34267      5.23786         0.656021     -0.446880      0.013653
 -----------------------------------------------------------------------------------
    total drift:                                0.000095     -0.000144      0.003092


--------------------------------------------------------------------------------------------------------



  FREE ENERGIE OF THE ION-ELECTRON SYSTEM (eV)
  ---------------------------------------------------
  free  energy   TOTEN  =      -411.65263426 eV

  energy  without entropy=     -411.65263426  energy(sigma->0) =     -411.65263426
 


--------------------------------------------------------------------------------------------------------


    POTLOK:  cpu time    6.1702: real time    6.2228


--------------------------------------------------------------------------------------------------------


 writing wavefunctions
     LOOP+:  cpu time  607.6532: real time  613.3128
    4ORBIT:  cpu time    0.0000: real time    0.0000

 total amount of memory used by VASP MPI-rank0   441788. kBytes
=======================================================================

   base      :      30000. kBytes
   nonl-proj :     184518. kBytes
   fftplans  :      31725. kBytes
   grid      :     168095. kBytes
   one-center:        162. kBytes
   wavefun   :      27288. kBytes
 
  
  
 General timing and accounting informations for this job:
 ========================================================
  
                  Total CPU time used (sec):      644.129
                            User time (sec):      607.459
                          System time (sec):       36.670
                         Elapsed time (sec):      651.404
  
                   Maximum memory used (kb):     1106564.
                   Average memory used (kb):          N/A
  
                          Minor page faults:       433151
                          Major page faults:           78
                 Voluntary context switches:         3666
