 vasp.6.2.1 16May21 (build Nov 06 2021 14:46:37) complex                        
  
 executed on             LinuxIFC date 2025.03.03  16:36:57
 running on  112 total cores
 distrk:  each k-point on   56 cores,    2 groups
 distr:  one band on NCORE=   1 cores,   56 groups


--------------------------------------------------------------------------------------------------------


 INCAR:
   ALGO = Conjugate
   KPAR = 2
   NCORE = 32
   ISMEAR = 0
   SIGMA = 0.01
   PREC = Accurate
   EDIFF = 1E-7
   ENCUT = 1000
   ISIF = 0
   GGA = BO
   PARAM1 = 0.1833333333
   PARAM2 = 0.2200000000
   LUSE_VDW = .TRUE.
   AGGAC = 0.0000
   LASPH = .TRUE.
   SYMPREC = 1E-7

 POTCAR:    PAW_PBE C_h 06Feb2004                 
 POTCAR:    PAW_PBE O_h 06Feb2004                 
 -----------------------------------------------------------------------------
|                                                                             |
|           W    W    AA    RRRRR   N    N  II  N    N   GGGG   !!!           |
|           W    W   A  A   R    R  NN   N  II  NN   N  G    G  !!!           |
|           W    W  A    A  R    R  N N  N  II  N N  N  G       !!!           |
|           W WW W  AAAAAA  RRRRR   N  N N  II  N  N N  G  GGG   !            |
|           WW  WW  A    A  R   R   N   NN  II  N   NN  G    G                |
|           W    W  A    A  R    R  N    N  II  N    N   GGGG   !!!           |
|                                                                             |
|     The value NCORE = 32 specified in the INCAR file was overwritten,       |
|     because it was not compatible with the 56 processes available:          |
|     NCORE = 1                                                               |
|     was used instead, please check that this makes sense for your           |
|     machine.                                                                |
|                                                                             |
 -----------------------------------------------------------------------------

 -----------------------------------------------------------------------------
|                                                                             |
|           W    W    AA    RRRRR   N    N  II  N    N   GGGG   !!!           |
|           W    W   A  A   R    R  NN   N  II  NN   N  G    G  !!!           |
|           W    W  A    A  R    R  N N  N  II  N N  N  G       !!!           |
|           W WW W  AAAAAA  RRRRR   N  N N  II  N  N N  G  GGG   !            |
|           WW  WW  A    A  R   R   N   NN  II  N   NN  G    G                |
|           W    W  A    A  R    R  N    N  II  N    N   GGGG   !!!           |
|                                                                             |
|     For optimal performance we recommend to set                             |
|       NCORE = 2 up to number-of-cores-per-socket                            |
|     NCORE specifies how many cores store one orbital (NPAR=cpu/NCORE).      |
|     This setting can greatly improve the performance of VASP for DFT.       |
|     The default, NCORE=1 might be grossly inefficient on modern             |
|     multi-core architectures or massively parallel machines. Do your        |
|     own testing! More info at https://www.vasp.at/wiki/index.php/NCORE      |
|     Unfortunately you need to use the default for GW and RPA                |
|     calculations (for HF NCORE is supported but not extensively tested      |
|     yet).                                                                   |
|                                                                             |
 -----------------------------------------------------------------------------

 -----------------------------------------------------------------------------
|                                                                             |
|               ----> ADVICE to this user running VASP <----                  |
|                                                                             |
|     You have switched on vdW-DFT.                                           |
|     This routine was written and supplied by Jiri Klimes. We recommend      |
|     that you carefully read and cite the following publications:            |
|       J. Klimes, D.R. Bowler, A. Michelides                                 |
|          J. Phys.: Cond Matt. 22 022201 (2010)                              |
|       J. Klimes, D.R. Bowler, A. Michelides                                 |
|          Phys. Rev. B. 83, 195131 (2011)                                    |
|     and references therein.                                                 |
|                                                                             |
 -----------------------------------------------------------------------------

 POTCAR:    PAW_PBE C_h 06Feb2004                 
   VRHFIN =C: s2p2                                                                                  
   LEXCH  = PE                                                                                      
   EATOM  =   147.1560 eV,   10.8157 Ry                                                             
                                                                                                    
   TITEL  = PAW_PBE C_h 06Feb2004                                                                   
   LULTRA =        F    use ultrasoft PP ?                                                          
   IUNSCR =        1    unscreen: 0-lin 1-nonlin 2-no                                               
   RPACOR =    0.800    partial core radius                                                         
   POMASS =   12.011; ZVAL   =    4.000    mass and valenz                                          
   RCORE  =    1.100    outmost cutoff radius                                                       
   RWIGS  =    1.630; RWIGS  =    0.863    wigner-seitz radius (au A)                               
   ENMAX  =  700.000; ENMIN  =  500.000 eV                                                          
   ICORE  =        2    local potential                                                             
   LCOR   =        T    correct aug charges                                                         
   LPAW   =        T    paw PP                                                                      
   EAUG   =  946.768                                                                                
   DEXC   =    0.000                                                                                
   RMAX   =    1.128    core radius for proj-oper                                                   
   RAUG   =    1.300    factor for augmentation sphere                                              
   RDEP   =    1.162    radius for radial grids                                                     
   RDEPT  =    1.088    core radius for aug-charge                                                  
                                                                                                    
   Atomic configuration                                                                             
    4 entries                                                                                       
     n  l   j            E        occ.                                                              
     1  0  0.50      -273.3789   2.0000                                                             
     2  0  0.50       -13.7508   2.0000                                                             
     2  1  0.50        -5.2854   2.0000                                                             
     3  2  1.50        -5.4423   0.0000                                                             
   Description                                                                                      
     l       E           TYP  RCUT    TYP  RCUT                                                     
     0    -13.7508458     23  1.100                                                                 
     0     -8.2022199     23  1.100                                                                 
     1     -5.2854383     23  1.100                                                                 
     1      1.1560700     23  1.100                                                                 
     2     -5.4423304      7  1.100                                                                 
  local pseudopotential read in
  partial core-charges read in
  partial kinetic energy density read in
  atomic valenz-charges read in
  non local Contribution for L=           0  read in
    real space projection operators read in
  non local Contribution for L=           0  read in
    real space projection operators read in
  non local Contribution for L=           1  read in
    real space projection operators read in
  non local Contribution for L=           1  read in
    real space projection operators read in
    PAW grid and wavefunctions read in
 
   number of l-projection  operators is LMAX  =           4
   number of lm-projection operators is LMMAX =           8
 
 POTCAR:    PAW_PBE O_h 06Feb2004                 
   VRHFIN =O: s2p4                                                                                  
   LEXCH  = PE                                                                                      
   EATOM  =   432.3788 eV,   31.7789 Ry                                                             
                                                                                                    
   TITEL  = PAW_PBE O_h 06Feb2004                                                                   
   LULTRA =        F    use ultrasoft PP ?                                                          
   IUNSCR =        1    unscreen: 0-lin 1-nonlin 2-no                                               
   RPACOR =    0.800    partial core radius                                                         
   POMASS =   16.000; ZVAL   =    6.000    mass and valenz                                          
   RCORE  =    1.100    outmost cutoff radius                                                       
   RWIGS  =    1.400; RWIGS  =    0.741    wigner-seitz radius (au A)                               
   ENMAX  =  700.000; ENMIN  =  500.000 eV                                                          
   ICORE  =        2    local potential                                                             
   LCOR   =        T    correct aug charges                                                         
   LPAW   =        T    paw PP                                                                      
   EAUG   =  888.804                                                                                
   DEXC   =    0.000                                                                                
   RMAX   =    1.128    core radius for proj-oper                                                   
   RAUG   =    1.300    factor for augmentation sphere                                              
   RDEP   =    1.125    radius for radial grids                                                     
   RDEPT  =    1.088    core radius for aug-charge                                                  
                                                                                                    
   Atomic configuration                                                                             
    4 entries                                                                                       
     n  l   j            E        occ.                                                              
     1  0  0.50      -514.6923   2.0000                                                             
     2  0  0.50       -23.9615   2.0000                                                             
     2  1  0.50        -9.0305   4.0000                                                             
     3  2  1.50        -9.5241   0.0000                                                             
   Description                                                                                      
     l       E           TYP  RCUT    TYP  RCUT                                                     
     0    -23.9615319     23  1.100                                                                 
     0    -25.3221145     23  1.100                                                                 
     1     -9.0304911     23  1.100                                                                 
     1     -5.4802209     23  1.100                                                                 
     2     -9.5240782      7  1.100                                                                 
  local pseudopotential read in
  partial core-charges read in
  partial kinetic energy density read in
  atomic valenz-charges read in
  non local Contribution for L=           0  read in
    real space projection operators read in
  non local Contribution for L=           0  read in
    real space projection operators read in
  non local Contribution for L=           1  read in
    real space projection operators read in
  non local Contribution for L=           1  read in
    real space projection operators read in
    PAW grid and wavefunctions read in
 
   number of l-projection  operators is LMAX  =           4
   number of lm-projection operators is LMMAX =           8
 
 -----------------------------------------------------------------------------
|                                                                             |
|               ----> ADVICE to this user running VASP <----                  |
|                                                                             |
|     You have a (more or less) 'large supercell' and for larger cells it     |
|     might be more efficient to use real-space projection operators.         |
|     Therefore, try LREAL= Auto in the INCAR file.                           |
|     Mind: For very accurate calculation, you might also keep the            |
|     reciprocal projection scheme (i.e. LREAL=.FALSE.).                      |
|                                                                             |
 -----------------------------------------------------------------------------

 -----------------------------------------------------------------------------
|                                                                             |
|               ----> ADVICE to this user running VASP <----                  |
|                                                                             |
|     You enforced a specific xc type in the INCAR file but a different       |
|     type was found in the POTCAR file.                                      |
|     I HOPE YOU KNOW WHAT YOU ARE DOING!                                     |
|                                                                             |
 -----------------------------------------------------------------------------

  PAW_PBE C_h 06Feb2004                 :
 energy of atom  1       EATOM= -147.1560
 kinetic energy error for atom=    0.0031 (will be added to EATOM!!)
  PAW_PBE O_h 06Feb2004                 :
 energy of atom  2       EATOM= -432.3788
 kinetic energy error for atom=    0.0171 (will be added to EATOM!!)
 
 
 POSCAR:  C  O
  positions in cartesian coordinates
  No initial velocities read in
 exchange correlation table for  LEXCH =       42
   RHO(1)=    0.500       N(1)  =     2000
   RHO(2)=  100.500       N(2)  =     4000
 


--------------------------------------------------------------------------------------------------------


 ion  position               nearest neighbor table
   1  0.972  0.000  0.001-  50 1.42   2 1.42  42 1.42
   2  0.039  0.134  0.001-   5 1.42   7 1.42   1 1.42
   3  0.172  0.000  0.001-  42 1.42  44 1.42   4 1.42
   4  0.239  0.134  0.000-   7 1.42   3 1.42  23 1.42
   5  0.972  0.200  0.001-   6 1.42   2 1.42  34 1.42
   6  0.039  0.334  0.001-   5 1.42  21 1.42  11 1.42
   7  0.172  0.200  0.000-   8 1.42   2 1.42   4 1.42
   8  0.239  0.334  0.000-  13 1.42   7 1.42  21 1.42
   9  0.372  0.000  0.001-  10 1.42  44 1.42  46 1.42
  10  0.439  0.134  0.000-  27 1.42   9 1.42  23 1.42
  11  0.972  0.400  0.001-  12 1.42  36 1.42   6 1.42
  12  0.039  0.534  0.001-  25 1.42  11 1.42  17 1.42
  13  0.372  0.400  0.000-   8 1.42  14 1.42  24 1.42
  14  0.439  0.534  0.000-  13 1.42  29 1.42  19 1.42
  15  0.572  0.000  0.001-  46 1.42  16 1.42  48 1.42
  16  0.639  0.134  0.001-  15 1.42  35 1.42  27 1.42
  17  0.972  0.600  0.001-  38 1.42  18 1.42  12 1.42
  18  0.039  0.734  0.001-  43 1.42  41 1.42  17 1.42
  19  0.572  0.600  0.001-  14 1.42  20 1.42  32 1.42
  20  0.639  0.734  0.001-  49 1.42  19 1.42  47 1.42
  21  0.172  0.400  0.000-  22 1.42   8 1.42   6 1.42
  22  0.239  0.534  0.000-  21 1.42  29 1.42  25 1.42
  23  0.372  0.200  0.000-  10 1.42   4 1.42  24 1.42
  24  0.439  0.334  0.000-  13 1.42  31 1.42  23 1.42
  25  0.172  0.600  0.001-  26 1.42  12 1.42  22 1.42
  26  0.239  0.734  0.001-  25 1.42  45 1.42  43 1.42
  27  0.572  0.200  0.001-  10 1.42  28 1.42  16 1.42
  28  0.639  0.334  0.001-  27 1.42  37 1.42  31 1.42
  29  0.372  0.600  0.000-  22 1.42  14 1.42  30 1.42
  30  0.439  0.734  0.001-  47 1.42  29 1.42  45 1.42
  31  0.572  0.400  0.000-  32 1.42  28 1.42  24 1.42
  32  0.639  0.534  0.001-  31 1.42  39 1.42  19 1.42
  33  0.772  0.000  0.001-  34 1.42  48 1.42  50 1.42
  34  0.839  0.134  0.001-  33 1.42   5 1.42  35 1.42
  35  0.772  0.200  0.001-  36 1.42  16 1.42  34 1.42
  36  0.839  0.334  0.001-  35 1.42  11 1.42  37 1.42
  37  0.772  0.400  0.001-  28 1.42  38 1.42  36 1.42
  38  0.839  0.534  0.001-  17 1.42  37 1.42  39 1.42
  39  0.772  0.600  0.001-  40 1.42  38 1.42  32 1.42
  40  0.839  0.734  0.001-  39 1.42  49 1.42  41 1.42
  41  0.972  0.800  0.001-  18 1.42  42 1.42  40 1.42
  42  0.039  0.934  0.001-   3 1.42  41 1.42   1 1.42
  43  0.172  0.800  0.001-  18 1.42  44 1.42  26 1.42
  44  0.239  0.934  0.001-   9 1.42  43 1.42   3 1.42
  45  0.372  0.800  0.001-  26 1.42  46 1.42  30 1.42
  46  0.439  0.934  0.001-  15 1.42  45 1.42   9 1.42
  47  0.572  0.800  0.001-  30 1.42  48 1.42  20 1.42
  48  0.639  0.934  0.001-  47 1.42  33 1.42  15 1.42
  49  0.772  0.800  0.001-  50 1.42  20 1.42  40 1.42
  50  0.839  0.934  0.001-  49 1.42   1 1.42  33 1.42
  51  0.373  0.251  0.157-  52 1.18  53 1.18
  52  0.421  0.189  0.161-  51 1.18
  53  0.325  0.313  0.155-  51 1.18
 
  LATTYP: Found a hexagonal cell.
 ALAT       =    12.3250000000
 C/A-ratio  =     1.6227180527
  
  Lattice vectors:
  
 A1 = (  12.3250000000,   0.0000000000,   0.0000000000)
 A2 = (  -6.1625000000,  10.6737631016,   0.0000000000)
 A3 = (   0.0000000000,   0.0000000000,  20.0000000000)


Analysis of symmetry for initial positions (statically):
=====================================================================
 Subroutine PRICEL returns:
 Original cell was already a primitive cell.
 

 Routine SETGRP: Setting up the symmetry group for a 
 hexagonal supercell.


 Subroutine GETGRP returns: Found  1 space group operations
 (whereof  1 operations were pure point group operations)
 out of a pool of 24 trial point group operations.


The static configuration has the point symmetry C_1 .


Analysis of symmetry for dynamics (positions and initial velocities):
=====================================================================
 Subroutine PRICEL returns:
 Original cell was already a primitive cell.
 

 Routine SETGRP: Setting up the symmetry group for a 
 hexagonal supercell.


 Subroutine GETGRP returns: Found  1 space group operations
 (whereof  1 operations were pure point group operations)
 out of a pool of 24 trial point group operations.


The dynamic configuration has the point symmetry C_1 .


 Subroutine INISYM returns: Found  1 space group operations
 (whereof  1 operations are pure point group operations),
 and found     1 'primitive' translations


----------------------------------------------------------------------------------------

                                     Primitive cell                                     

  volume of cell :    2631.0826

  direct lattice vectors                    reciprocal lattice vectors
    12.325000000  0.000000000  0.000000000     0.081135903  0.046843835  0.000000000
    -6.162500000 10.673763102  0.000000000     0.000000000  0.093687670  0.000000000
     0.000000000  0.000000000 20.000000000     0.000000000  0.000000000  0.050000000

  length of vectors
    12.325000000 12.325000000 20.000000000     0.093687670  0.093687670  0.050000000

  position of ions in fractional coordinates (direct lattice)
     0.972450841  0.000320818  0.000708389
     0.039118382  0.133659505  0.000550216
     0.172443627  0.000295449  0.000624535
     0.239096278  0.133647917  0.000320585
     0.972452058  0.200322012  0.000606523
     0.039128360  0.333643771  0.000555187
     0.172451764  0.200354552  0.000273959
     0.239124359  0.333665720  0.000090325
     0.372465565  0.000324403  0.000567391
     0.439137473  0.133619939  0.000322923
     0.972449824  0.400309362  0.000684513
     0.039124981  0.533636789  0.000716763
     0.372416176  0.400329481  0.000000000
     0.439099602  0.533638981  0.000290518
     0.572443676  0.000312125  0.000699475
     0.639110207  0.133631751  0.000684093
     0.972452703  0.600305653  0.000800361
     0.039124495  0.733640359  0.000818141
     0.572433471  0.600306242  0.000503618
     0.639111888  0.733641879  0.000659881
     0.172454630  0.400318228  0.000361306
     0.239120185  0.533636548  0.000473136
     0.372459750  0.200295993  0.000111246
     0.439107096  0.333673419  0.000069702
     0.172452155  0.600311506  0.000655425
     0.239123371  0.733638574  0.000718912
     0.572431082  0.200289171  0.000516621
     0.639112773  0.333618630  0.000577970
     0.372439808  0.600308022  0.000453556
     0.439116090  0.733637858  0.000617737
     0.572469358  0.400320504  0.000424897
     0.639119408  0.533650873  0.000574513
     0.772445723  0.000315427  0.000745201
     0.839116277  0.133640203  0.000719132
     0.772440513  0.200307432  0.000726291
     0.839120241  0.333635728  0.000731834
     0.772446320  0.400298367  0.000728722
     0.839118980  0.533633964  0.000776376
     0.772456143  0.600308173  0.000744639
     0.839115033  0.733643180  0.000789390
     0.972455313  0.800305582  0.000815291
     0.039114714  0.933643289  0.000747563
     0.172457971  0.800312211  0.000779216
     0.239134551  0.933647193  0.000681063
     0.372451396  0.800316674  0.000689249
     0.439124489  0.933644769  0.000676788
     0.572441101  0.800310054  0.000668168
     0.639115067  0.933638985  0.000734556
     0.772445098  0.800313187  0.000752577
     0.839116614  0.933644338  0.000758538
     0.373021009  0.251226878  0.157490131
     0.420879805  0.189313152  0.160711224
     0.325156981  0.313167186  0.154517388

  ion indices of the primitive-cell ions
   primitive index   ion index
                 1           1
                 2           2
                 3           3
                 4           4
                 5           5
                 6           6
                 7           7
                 8           8
                 9           9
                10          10
                11          11
                12          12
                13          13
                14          14
                15          15
                16          16
                17          17
                18          18
                19          19
                20          20
                21          21
                22          22
                23          23
                24          24
                25          25
                26          26
                27          27
                28          28
                29          29
                30          30
                31          31
                32          32
                33          33
                34          34
                35          35
                36          36
                37          37
                38          38
                39          39
                40          40
                41          41
                42          42
                43          43
                44          44
                45          45
                46          46
                47          47
                48          48
                49          49
                50          50
                51          51
                52          52
                53          53

----------------------------------------------------------------------------------------

 
 
 KPOINTS: auto                                    

Automatic generation of k-mesh.
 Grid dimensions read from file:
 generate k-points for:    1    1    1

 Generating k-lattice:

  Cartesian coordinates                     Fractional coordinates (reciprocal lattice)
     0.081135903  0.046843835  0.000000000     1.000000000 -0.000000000  0.000000000
     0.000000000  0.093687670  0.000000000     0.000000000  1.000000000  0.000000000
     0.000000000  0.000000000  0.050000000     0.000000000  0.000000000  1.000000000

  Length of vectors
     0.093687670  0.093687670  0.050000000

  Shift w.r.t. Gamma in fractional coordinates (k-lattice)
     0.000000000  0.000000000  0.000000000

 
 Subroutine IBZKPT returns following result:
 ===========================================
 
 Found      1 irreducible k-points:
 
 Following reciprocal coordinates:
            Coordinates               Weight
  0.000000  0.000000  0.000000      1.000000
 
 Following cartesian coordinates:
            Coordinates               Weight
  0.000000  0.000000  0.000000      1.000000
 


--------------------------------------------------------------------------------------------------------




 Dimension of arrays:
   k-points           NKPTS =      1   k-points in BZ     NKDIM =      1   number of bands    NBANDS=    168
   number of dos      NEDOS =    301   number of ions     NIONS =     53
   non local maximal  LDIM  =      4   non local SUM 2l+1 LMDIM =      8
   total plane-waves  NPLWV = ******
   max r-space proj   IRMAX =      1   max aug-charges    IRDMAX=   9736
   dimension x,y,z NGX =   128 NGY =  128 NGZ =  210
   dimension x,y,z NGXF=   256 NGYF=  256 NGZF=  420
   support grid    NGXF=   256 NGYF=  256 NGZF=  420
   ions per type =              51   2
   NGX,Y,Z   is equivalent  to a cutoff of  17.27, 17.27, 17.46 a.u.
   NGXF,Y,Z  is equivalent  to a cutoff of  34.53, 34.53, 34.91 a.u.

 SYSTEM =  unknown system                          
 POSCAR =   C  O                                   

 Startparameter for this run:
   NWRITE =      2    write-flag & timer
   PREC   = accura    normal or accurate (medium, high low for compatibility)
   ISTART =      0    job   : 0-new  1-cont  2-samecut
   ICHARG =      2    charge: 1-file 2-atom 10-const
   ISPIN  =      1    spin polarized calculation?
   LNONCOLLINEAR =      F non collinear calculations
   LSORBIT =      F    spin-orbit coupling
   INIWAV =      1    electr: 0-lowe 1-rand  2-diag
   LASPH  =      T    aspherical Exc in radial PAW
 Electronic Relaxation 1
   ENCUT  = 1000.0 eV  73.50 Ry    8.57 a.u.  31.78 31.78 51.57*2*pi/ulx,y,z
   ENINI  = 1000.0     initial cutoff
   ENAUG  =  946.8 eV  augmentation charge cutoff
   NELM   =     60;   NELMIN=  2; NELMDL= -5     # of ELM steps 
   EDIFF  = 0.1E-06   stopping-criterion for ELM
   LREAL  =      F    real-space projection
   NLSPLINE    = F    spline interpolate recip. space projectors
   LCOMPAT=      F    compatible to vasp.4.4
   GGA_COMPAT  = T    GGA compatible to vasp.4.4-vasp.4.6
   LMAXPAW     = -100 max onsite density
   LMAXMIX     =    2 max onsite mixed and CHGCAR
   VOSKOWN=      0    Vosko Wilk Nusair interpolation
   ROPT   =    0.00000   0.00000
 Ionic relaxation
   EDIFFG = 0.1E-05   stopping-criterion for IOM
   NSW    =      0    number of steps for IOM
   NBLOCK =      1;   KBLOCK =      1    inner block; outer block 
   IBRION =     -1    ionic relax: 0-MD 1-quasi-New 2-CG
   NFREE  =      0    steps in history (QN), initial steepest desc. (CG)
   ISIF   =      0    stress and relaxation
   IWAVPR =     10    prediction:  0-non 1-charg 2-wave 3-comb
   ISYM   =      2    0-nonsym 1-usesym 2-fastsym
   LCORR  =      T    Harris-Foulkes like correction to forces

   POTIM  = 0.5000    time-step for ionic-motion
   TEIN   =    0.0    initial temperature
   TEBEG  =    0.0;   TEEND  =   0.0 temperature during run
   SMASS  =  -3.00    Nose mass-parameter (am)
   estimated Nose-frequenzy (Omega)   =  0.10E-29 period in steps = 0.13E+47 mass=  -0.347E-26a.u.
   SCALEE = 1.0000    scale energy and forces
   NPACO  =    256;   APACO  = 16.0  distance and # of slots for P.C.
   PSTRESS=    0.0 pullay stress

  Mass of Ions in am
   POMASS =  12.01 16.00
  Ionic Valenz
   ZVAL   =   4.00  6.00
  Atomic Wigner-Seitz radii
   RWIGS  =  -1.00 -1.00
  virtual crystal weights 
   VCA    =   1.00  1.00
   NELECT =     216.0000    total number of electrons
   NUPDOWN=      -1.0000    fix difference up-down

 DOS related values:
   EMIN   =  10.00;   EMAX   =-10.00  energy-range for DOS
   EFERMI =   0.00
   ISMEAR =     0;   SIGMA  =   0.01  broadening in eV -4-tet -1-fermi 0-gaus

 Electronic relaxation 2 (details)
   IALGO  =     58    algorithm
   LDIAG  =      T    sub-space diagonalisation (order eigenvalues)
   LSUBROT=      F    optimize rotation matrix (better conditioning)
   TURBO    =      0    0=normal 1=particle mesh
   IRESTART =      0    0=no restart 2=restart with 2 vectors
   NREBOOT  =      0    no. of reboots
   NMIN     =      0    reboot dimension
   EREF     =   0.00    reference energy to select bands
   IMIX   =      4    mixing-type and parameters
     AMIX     =   0.40;   BMIX     =  1.00
     AMIX_MAG =   1.60;   BMIX_MAG =  1.00
     AMIN     =   0.10
     WC   =   100.;   INIMIX=   1;  MIXPRE=   1;  MAXMIX= -45

 Intra band minimization:
   WEIMIN = 0.0000     energy-eigenvalue tresh-hold
   EBREAK =  0.15E-09  absolut break condition
   DEPER  =   0.30     relativ break condition  

   TIME   =   0.40     timestep for ELM

  volume/ion in A,a.u.               =      49.64       335.01
  Fermi-wavevector in a.u.,A,eV,Ry     =   0.711510  1.344560  6.887909  0.506247
  Thomas-Fermi vector in A             =   1.798641
 
 Write flags
   LWAVE        =      T    write WAVECAR
   LDOWNSAMPLE  =      F    k-point downsampling of WAVECAR
   LCHARG       =      T    write CHGCAR
   LVTOT        =      F    write LOCPOT, total local potential
   LVHAR        =      F    write LOCPOT, Hartree potential only
   LELF         =      F    write electronic localiz. function (ELF)
   LORBIT       =      0    0 simple, 1 ext, 2 COOP (PROOUT), +10 PAW based schemes


 Dipole corrections
   LMONO  =      F    monopole corrections only (constant potential shift)
   LDIPOL =      F    correct potential (dipole corrections)
   IDIPOL =      0    1-x, 2-y, 3-z, 4-all directions 
   EPSILON=  1.0000000 bulk dielectric constant

 Exchange correlation treatment:
   GGA     =    BO    GGA type
   LEXCH   =    42    internal setting for exchange type
   VOSKOWN=      0    Vosko Wilk Nusair interpolation
   LHFCALC =     F    Hartree Fock is set to
   LHFONE  =     F    Hartree Fock one center treatment
   AEXX    =    0.0000 exact exchange contribution

 vdW DFT:
   LUSE_VDW   =     T    switch on vdW DFT
   Zab_VDW    =-.8491    correlation parameter
   PARAM1     =0.1833
   PARAM2     =0.2200
   PARAM3     =0.0000
   -- rVV10 --
   BPARAM     = 6.3000
   CPARAM     = 0.0093

 Linear response parameters
   LEPSILON=     F    determine dielectric tensor
   LRPA    =     F    only Hartree local field effects (RPA)
   LNABLA  =     F    use nabla operator in PAW spheres
   LVEL    =     F    velocity operator in full k-point grid
   LINTERFAST=   F  fast interpolation
   KINTER  =     0    interpolate to denser k-point grid
   CSHIFT  =0.1000    complex shift for real part using Kramers Kronig
   OMEGAMAX=  -1.0    maximum frequency
   DEG_THRESHOLD= 0.2000000E-02 threshold for treating states as degnerate
   RTIME   =   -0.100 relaxation time in fs
  (WPLASMAI=    0.000 imaginary part of plasma frequency in eV, 0.658/RTIME)
   DFIELD  = 0.0000000 0.0000000 0.0000000 field for delta impulse in time
 
 Orbital magnetization related:
   ORBITALMAG=     F  switch on orbital magnetization
   LCHIMAG   =     F  perturbation theory with respect to B field
   DQ        =  0.001000  dq finite difference perturbation B field
   LLRAUG    =     F  two centre corrections for induced B field



--------------------------------------------------------------------------------------------------------


 Static calculation
 charge density and potential will be updated during run
 non-spin polarized calculation
 Conjugate gradient for all bands (Freysoldt, et al. PRB 79, 241103 (2009))
 preconditioned conjugated gradient                                        
 perform sub-space diagonalisation
    before iterative eigenvector-optimisation
 modified Broyden-mixing scheme, WC =      100.0
 initial mixing is a Kerker type mixing with AMIX =  0.4000 and BMIX =      1.0000
 Hartree-type preconditioning will be used
 using additional bands           60
 reciprocal scheme for non local part
 use partial core corrections
 no Harris-corrections to forces 
 use gradient corrections 
 use of overlap-Matrix (Vanderbilt PP)
 Gauss-broadening in eV      SIGMA  =   0.01


--------------------------------------------------------------------------------------------------------


  energy-cutoff  :     1000.00
  volume of cell :     2631.08
      direct lattice vectors                 reciprocal lattice vectors
    12.325000000  0.000000000  0.000000000     0.081135903  0.046843835  0.000000000
    -6.162500000 10.673763102  0.000000000     0.000000000  0.093687670  0.000000000
     0.000000000  0.000000000 20.000000000     0.000000000  0.000000000  0.050000000

  length of vectors
    12.325000000 12.325000000 20.000000000     0.093687670  0.093687670  0.050000000


 
 k-points in units of 2pi/SCALE and weight: auto                                    
   0.00000000  0.00000000  0.00000000       1.000
 
 k-points in reciprocal lattice and weights: auto                                    
   0.00000000  0.00000000  0.00000000       1.000
 
 position of ions in fractional coordinates (direct lattice) 
   0.97245084  0.00032082  0.00070839
   0.03911838  0.13365950  0.00055022
   0.17244363  0.00029545  0.00062454
   0.23909628  0.13364792  0.00032058
   0.97245206  0.20032201  0.00060652
   0.03912836  0.33364377  0.00055519
   0.17245176  0.20035455  0.00027396
   0.23912436  0.33366572  0.00009033
   0.37246557  0.00032440  0.00056739
   0.43913747  0.13361994  0.00032292
   0.97244982  0.40030936  0.00068451
   0.03912498  0.53363679  0.00071676
   0.37241618  0.40032948  0.00000000
   0.43909960  0.53363898  0.00029052
   0.57244368  0.00031213  0.00069947
   0.63911021  0.13363175  0.00068409
   0.97245270  0.60030565  0.00080036
   0.03912449  0.73364036  0.00081814
   0.57243347  0.60030624  0.00050362
   0.63911189  0.73364188  0.00065988
   0.17245463  0.40031823  0.00036131
   0.23912018  0.53363655  0.00047314
   0.37245975  0.20029599  0.00011125
   0.43910710  0.33367342  0.00006970
   0.17245216  0.60031151  0.00065542
   0.23912337  0.73363857  0.00071891
   0.57243108  0.20028917  0.00051662
   0.63911277  0.33361863  0.00057797
   0.37243981  0.60030802  0.00045356
   0.43911609  0.73363786  0.00061774
   0.57246936  0.40032050  0.00042490
   0.63911941  0.53365087  0.00057451
   0.77244572  0.00031543  0.00074520
   0.83911628  0.13364020  0.00071913
   0.77244051  0.20030743  0.00072629
   0.83912024  0.33363573  0.00073183
   0.77244632  0.40029837  0.00072872
   0.83911898  0.53363396  0.00077638
   0.77245614  0.60030817  0.00074464
   0.83911503  0.73364318  0.00078939
   0.97245531  0.80030558  0.00081529
   0.03911471  0.93364329  0.00074756
   0.17245797  0.80031221  0.00077922
   0.23913455  0.93364719  0.00068106
   0.37245140  0.80031667  0.00068925
   0.43912449  0.93364477  0.00067679
   0.57244110  0.80031005  0.00066817
   0.63911507  0.93363899  0.00073456
   0.77244510  0.80031319  0.00075258
   0.83911661  0.93364434  0.00075854
   0.37302101  0.25122688  0.15749013
   0.42087980  0.18931315  0.16071122
   0.32515698  0.31316719  0.15451739
 
 position of ions in cartesian coordinates  (Angst):
  11.98347958  0.00342433  0.01416777
  -0.34154264  1.42664989  0.01100432
   2.12354700  0.00315355  0.01249070
   2.12325634  1.42652621  0.00641170
  10.75098721  2.13818970  0.01213047
  -1.57382270  3.56123457  0.01110375
   0.89078307  2.13853702  0.00547917
   0.89099273  3.56146885  0.00180651
   4.58863896  0.00346260  0.01134782
   4.58893648  1.42622757  0.00645846
   9.51853763  4.27280730  0.01369027
  -2.80632132  5.69591267  0.01433526
   2.12299894  4.27302204  0.00000000
   2.12335237  5.69593607  0.00581036
   7.05344483  0.00333155  0.01398950
   7.05352764  1.42635365  0.01368187
   8.28609598  6.40752033  0.01600723
  -4.03884931  7.83070339  0.01636283
   3.35585531  6.40752662  0.01007237
   3.35598594  7.83071962  0.01319763
  -0.34145776  4.27290193  0.00722612
  -0.34137895  5.69591010  0.00946273
   3.35624236  2.13791198  0.00222492
   3.35573251  3.56155103  0.00139405
  -1.57394684  6.40758280  0.01310850
  -1.57385216  7.83068434  0.01437823
   5.82093107  2.13783916  0.01033241
   5.82114012  3.56096622  0.01155939
   0.89092245  6.40754561  0.00907111
   0.89106251  7.83067670  0.01235474
   4.58870974  4.27292622  0.00849795
   4.58852320  5.69606300  0.01149026
   9.51844972  0.00336679  0.01490402
   9.51855036  1.42644387  0.01438264
   8.28593477  2.13803408  0.01452582
   8.28612680  3.56114872  0.01463668
   7.05356221  4.27268994  0.01457444
   7.05362213  5.69588251  0.01552751
   5.82112285  6.40754723  0.01489279
   5.82101669  7.83073350  0.01578780
   7.05362858  8.54227219  0.01630582
  -5.27148792  9.96548729  0.01495127
  -2.80637951  8.54234295  0.01558431
  -2.80626749  9.96552896  0.01362126
  -0.34148805  8.54239058  0.01378498
  -0.34137657  9.96550309  0.01353576
   2.12342586  8.54231992  0.01336337
   2.12354296  9.96544135  0.01469111
   4.58845581  8.54235337  0.01505154
   4.58852904  9.96549848  0.01517076
   3.04929830  2.68153618  3.14980262
   4.02070129  2.02068374  3.21422448
   2.07766701  3.34267235  3.09034775
 


--------------------------------------------------------------------------------------------------------


 k-point   1 :   0.0000 0.0000 0.0000  plane waves:  189031

 maximum and minimum number of plane-waves per node :    189031   189031

 maximum number of plane-waves:    189031
 maximum index in each direction: 
   IXMAX=   31   IYMAX=   31   IZMAX=   51
   IXMIN=  -31   IYMIN=  -31   IZMIN=  -51


 serial   3D FFT for wavefunctions
 parallel 3D FFT for charge:
    minimum data exchange during FFTs selected (reduces bandwidth)


 total amount of memory used by VASP MPI-rank0   441788. kBytes
=======================================================================

   base      :      30000. kBytes
   nonl-proj :     184518. kBytes
   fftplans  :      31725. kBytes
   grid      :     168095. kBytes
   one-center:        162. kBytes
   wavefun   :      27288. kBytes
 
     INWAV:  cpu time    0.0000: real time    0.0000
 Broyden mixing: mesh for mixing (old mesh)
   NGX = 63   NGY = 63   NGZ =103
  (NGX  =256   NGY  =256   NGZ  =420)
  gives a total of 408807 points

 initial charge density was supplied:
 charge density of overlapping atoms calculated
 number of electron     216.0000000 magnetization 
 keeping initial charge density in first step


--------------------------------------------------------------------------------------------------------


 Maximum index for augmentation-charges          459 (set IRDMAX)


--------------------------------------------------------------------------------------------------------


 First call to EWALD:  gamma=   0.128
 Maximum number of real-space cells 3x 3x 2
 Maximum number of reciprocal cells 3x 3x 4

    FEWALD:  cpu time    0.0033: real time    0.0034


--------------------------------------- Iteration      1(   1)  ---------------------------------------


vdW kernel read from vdw_kernel.bindat
  0.0000  0.2424  0.5071  0.7962  1.1119  1.4567  1.8333  2.2446  2.6937  3.1842
  3.7199  4.3049  4.9438  5.6415  6.4036  7.2358  8.1446  9.1372 10.2212 11.4050
 12.6979 14.1099 15.6519 17.3360 19.1751 21.1837 23.3773 25.7729 28.3892 31.2465
 34.3669 37.7748 41.4965 45.5611 50.0000
 
    POTLOK:  cpu time    6.3194: real time    6.4259
    SETDIJ:  cpu time    0.0745: real time    0.0749
    TRIAL :  cpu time   11.9440: real time   12.0479
    CORREC:  cpu time    0.0006: real time    0.0007
    --------------------------------------------
      LOOP:  cpu time   18.3478: real time   18.5713

 eigenvalue-minimisations  :   336
 total energy-change (2. order) : 0.2533943E+04  (-0.1171261E+05)
 number of electron     216.0000000 magnetization 
 augmentation part      216.0000000 magnetization 

 Free energy of the ion-electron system (eV)
  ---------------------------------------------------
  alpha Z        PSCENC =        59.93625244
  Ewald energy   TEWEN  =     34385.40656134
  -Hartree energ DENC   =    -40560.25757233
  -exchange      EXHF   =         0.00000000
  -V(xc)+E(xc)   XCENC  =       398.40893617
  PAW double counting   =      6564.79108649    -6260.84737255
  entropy T*S    EENTRO =        -0.00000000
  eigenvalues    EBANDS =      -514.57887874
  atomic energy  EATOM  =      8461.08393172
  ---------------------------------------------------
  free energy    TOTEN  =      2533.94294454 eV

  energy without entropy =     2533.94294454  energy(sigma->0) =     2533.94294454


--------------------------------------------------------------------------------------------------------




--------------------------------------- Iteration      1(   2)  ---------------------------------------


    TRIAL :  cpu time   17.9759: real time   18.1361
    CORREC:  cpu time    0.0001: real time    0.0001
    --------------------------------------------
      LOOP:  cpu time   18.0297: real time   18.1912

 eigenvalue-minimisations  :   560
 total energy-change (2. order) :-0.2367887E+04  (-0.2225155E+04)
 number of electron     216.0000000 magnetization 
 augmentation part      216.0000000 magnetization 

 Free energy of the ion-electron system (eV)
  ---------------------------------------------------
  alpha Z        PSCENC =        59.93625244
  Ewald energy   TEWEN  =     34385.40656134
  -Hartree energ DENC   =    -40560.25757233
  -exchange      EXHF   =         0.00000000
  -V(xc)+E(xc)   XCENC  =       398.40893617
  PAW double counting   =      6564.79108649    -6260.84737255
  entropy T*S    EENTRO =        -0.00000000
  eigenvalues    EBANDS =     -2882.46568426
  atomic energy  EATOM  =      8461.08393172
  ---------------------------------------------------
  free energy    TOTEN  =       166.05613902 eV

  energy without entropy =      166.05613902  energy(sigma->0) =      166.05613902


--------------------------------------------------------------------------------------------------------




--------------------------------------- Iteration      1(   3)  ---------------------------------------


    TRIAL :  cpu time   13.4314: real time   13.5483
    CORREC:  cpu time    0.0001: real time    0.0001
    --------------------------------------------
      LOOP:  cpu time   13.5266: real time   13.6458

 eigenvalue-minimisations  :   392
 total energy-change (2. order) :-0.5817332E+03  (-0.5787044E+03)
 number of electron     216.0000000 magnetization 
 augmentation part      216.0000000 magnetization 

 Free energy of the ion-electron system (eV)
  ---------------------------------------------------
  alpha Z        PSCENC =        59.93625244
  Ewald energy   TEWEN  =     34385.40656134
  -Hartree energ DENC   =    -40560.25757233
  -exchange      EXHF   =         0.00000000
  -V(xc)+E(xc)   XCENC  =       398.40893617
  PAW double counting   =      6564.79108649    -6260.84737255
  entropy T*S    EENTRO =        -0.00000000
  eigenvalues    EBANDS =     -3464.19891159
  atomic energy  EATOM  =      8461.08393172
  ---------------------------------------------------
  free energy    TOTEN  =      -415.67708831 eV

  energy without entropy =     -415.67708831  energy(sigma->0) =     -415.67708831


--------------------------------------------------------------------------------------------------------




--------------------------------------- Iteration      1(   4)  ---------------------------------------


    TRIAL :  cpu time   14.9367: real time   15.0630
    CORREC:  cpu time    0.0001: real time    0.0001
    --------------------------------------------
      LOOP:  cpu time   14.9750: real time   15.1367

 eigenvalue-minimisations  :   448
 total energy-change (2. order) :-0.2945685E+02  (-0.2924404E+02)
 number of electron     216.0000000 magnetization 
 augmentation part      216.0000000 magnetization 

 Free energy of the ion-electron system (eV)
  ---------------------------------------------------
  alpha Z        PSCENC =        59.93625244
  Ewald energy   TEWEN  =     34385.40656134
  -Hartree energ DENC   =    -40560.25757233
  -exchange      EXHF   =         0.00000000
  -V(xc)+E(xc)   XCENC  =       398.40893617
  PAW double counting   =      6564.79108649    -6260.84737255
  entropy T*S    EENTRO =        -0.00000000
  eigenvalues    EBANDS =     -3493.65575964
  atomic energy  EATOM  =      8461.08393172
  ---------------------------------------------------
  free energy    TOTEN  =      -445.13393636 eV

  energy without entropy =     -445.13393636  energy(sigma->0) =     -445.13393636


--------------------------------------------------------------------------------------------------------




--------------------------------------- Iteration      1(   5)  ---------------------------------------


    TRIAL :  cpu time   11.9380: real time   12.0387
    CORREC:  cpu time    0.0001: real time    0.0001
    CHARGE:  cpu time    0.6136: real time    0.6184
    --------------------------------------------
      LOOP:  cpu time   12.6144: real time   12.7212

 eigenvalue-minimisations  :   336
 total energy-change (2. order) :-0.1095043E+01  (-0.1094012E+01)
 number of electron     216.0000000 magnetization 
 augmentation part       -0.2214445 magnetization 

 Free energy of the ion-electron system (eV)
  ---------------------------------------------------
  alpha Z        PSCENC =        59.93625244
  Ewald energy   TEWEN  =     34385.40656134
  -Hartree energ DENC   =    -40560.25757233
  -exchange      EXHF   =         0.00000000
  -V(xc)+E(xc)   XCENC  =       398.40893617
  PAW double counting   =      6564.79108649    -6260.84737255
  entropy T*S    EENTRO =        -0.00000000
  eigenvalues    EBANDS =     -3494.75080262
  atomic energy  EATOM  =      8461.08393172
  ---------------------------------------------------
  free energy    TOTEN  =      -446.22897934 eV

  energy without entropy =     -446.22897934  energy(sigma->0) =     -446.22897934


--------------------------------------------------------------------------------------------------------




--------------------------------------- Iteration      1(   6)  ---------------------------------------


    POTLOK:  cpu time    6.0811: real time    6.1253
    SETDIJ:  cpu time    0.1023: real time    0.1027
    TRIAL :  cpu time    5.3581: real time    5.4161
    CORREC:  cpu time    7.2786: real time    7.3379
    CHARGE:  cpu time    0.6035: real time    0.6082
    --------------------------------------------
      LOOP:  cpu time   19.4721: real time   19.6449

 eigenvalue-minimisations  :     0
 total energy-change (2. order) : 0.5489072E+02  (-0.1757653E+02)
 number of electron     216.0000000 magnetization 
 augmentation part       -0.3365704 magnetization 

 Free energy of the ion-electron system (eV)
  ---------------------------------------------------
  alpha Z        PSCENC =        59.93625244
  Ewald energy   TEWEN  =     34385.40656134
  -Hartree energ DENC   =    -42009.00425530
  -exchange      EXHF   =         0.00000000
  -V(xc)+E(xc)   XCENC  =       448.02297224
  PAW double counting   =     71520.87525866   -71225.07515286
  entropy T*S    EENTRO =        -0.00000000
  eigenvalues    EBANDS =     -2032.58382543
  atomic energy  EATOM  =      8461.08393172
  ---------------------------------------------------
  free energy    TOTEN  =      -391.33825719 eV

  energy without entropy =     -391.33825719  energy(sigma->0) =     -391.33825719


--------------------------------------------------------------------------------------------------------




--------------------------------------- Iteration      1(   7)  ---------------------------------------


    POTLOK:  cpu time    6.0871: real time    6.1324
    SETDIJ:  cpu time    0.0364: real time    0.0366
    TRIAL :  cpu time    5.3658: real time    5.4158
    CORREC:  cpu time    7.3008: real time    7.3565
    CHARGE:  cpu time    0.6130: real time    0.6173
    --------------------------------------------
      LOOP:  cpu time   19.5040: real time   19.6608

 eigenvalue-minimisations  :     0
 total energy-change (2. order) :-0.1761030E+02  (-0.1949094E+01)
 number of electron     216.0000000 magnetization 
 augmentation part       -0.3832412 magnetization 

 Free energy of the ion-electron system (eV)
  ---------------------------------------------------
  alpha Z        PSCENC =        59.93625244
  Ewald energy   TEWEN  =     34385.40656134
  -Hartree energ DENC   =    -41484.09161419
  -exchange      EXHF   =         0.00000000
  -V(xc)+E(xc)   XCENC  =       430.20164786
  PAW double counting   =     86578.99686370   -86279.95742672
  entropy T*S    EENTRO =        -0.00000000
  eigenvalues    EBANDS =     -2560.52477405
  atomic energy  EATOM  =      8461.08393172
  ---------------------------------------------------
  free energy    TOTEN  =      -408.94855791 eV

  energy without entropy =     -408.94855791  energy(sigma->0) =     -408.94855791


--------------------------------------------------------------------------------------------------------




--------------------------------------- Iteration      1(   8)  ---------------------------------------


    POTLOK:  cpu time    6.0832: real time    6.1262
    SETDIJ:  cpu time    0.0374: real time    0.0375
    TRIAL :  cpu time    5.3586: real time    5.4140
    CORREC:  cpu time    7.2900: real time    7.3585
    CHARGE:  cpu time    0.6045: real time    0.6092
    --------------------------------------------
      LOOP:  cpu time   19.4350: real time   19.6127

 eigenvalue-minimisations  :     0
 total energy-change (2. order) :-0.1949911E+01  (-0.5658606E+00)
 number of electron     216.0000000 magnetization 
 augmentation part       -0.3965290 magnetization 

 Free energy of the ion-electron system (eV)
  ---------------------------------------------------
  alpha Z        PSCENC =        59.93625244
  Ewald energy   TEWEN  =     34385.40656134
  -Hartree energ DENC   =    -41461.08429501
  -exchange      EXHF   =         0.00000000
  -V(xc)+E(xc)   XCENC  =       429.62603248
  PAW double counting   =     91087.15137117   -90787.68688907
  entropy T*S    EENTRO =        -0.00000000
  eigenvalues    EBANDS =     -2585.33143372
  atomic energy  EATOM  =      8461.08393172
  ---------------------------------------------------
  free energy    TOTEN  =      -410.89846866 eV

  energy without entropy =     -410.89846866  energy(sigma->0) =     -410.89846866


--------------------------------------------------------------------------------------------------------




--------------------------------------- Iteration      1(   9)  ---------------------------------------


    POTLOK:  cpu time    6.0644: real time    6.1074
    SETDIJ:  cpu time    0.0673: real time    0.0676
    TRIAL :  cpu time    5.3571: real time    5.4099
    CORREC:  cpu time    7.2563: real time    7.3327
    CHARGE:  cpu time    0.6023: real time    0.6070
    --------------------------------------------
      LOOP:  cpu time   19.4124: real time   19.5910

 eigenvalue-minimisations  :     0
 total energy-change (2. order) :-0.5653715E+00  (-0.2209086E+00)
 number of electron     216.0000000 magnetization 
 augmentation part       -0.4003644 magnetization 

 Free energy of the ion-electron system (eV)
  ---------------------------------------------------
  alpha Z        PSCENC =        59.93625244
  Ewald energy   TEWEN  =     34385.40656134
  -Hartree energ DENC   =    -41471.07251940
  -exchange      EXHF   =         0.00000000
  -V(xc)+E(xc)   XCENC  =       429.68672129
  PAW double counting   =     94202.64126687   -93902.98224227
  entropy T*S    EENTRO =        -0.00000000
  eigenvalues    EBANDS =     -2576.16381213
  atomic energy  EATOM  =      8461.08393172
  ---------------------------------------------------
  free energy    TOTEN  =      -411.46384014 eV

  energy without entropy =     -411.46384014  energy(sigma->0) =     -411.46384014


--------------------------------------------------------------------------------------------------------




--------------------------------------- Iteration      1(  10)  ---------------------------------------


    POTLOK:  cpu time    6.0671: real time    6.1112
    SETDIJ:  cpu time    0.0598: real time    0.0600
    TRIAL :  cpu time    5.3635: real time    5.4135
    CORREC:  cpu time    7.3090: real time    7.3629
    CHARGE:  cpu time    0.6028: real time    0.6127
    --------------------------------------------
      LOOP:  cpu time   19.4820: real time   19.6408

 eigenvalue-minimisations  :     0
 total energy-change (2. order) :-0.2201669E+00  (-0.9882030E-01)
 number of electron     216.0000000 magnetization 
 augmentation part       -0.3974489 magnetization 

 Free energy of the ion-electron system (eV)
  ---------------------------------------------------
  alpha Z        PSCENC =        59.93625244
  Ewald energy   TEWEN  =     34385.40656134
  -Hartree energ DENC   =    -41467.43723910
  -exchange      EXHF   =         0.00000000
  -V(xc)+E(xc)   XCENC  =       429.52476377
  PAW double counting   =     94966.13771074   -94666.36789286
  entropy T*S    EENTRO =        -0.00000000
  eigenvalues    EBANDS =     -2579.96809512
  atomic energy  EATOM  =      8461.08393172
  ---------------------------------------------------
  free energy    TOTEN  =      -411.68400708 eV

  energy without entropy =     -411.68400708  energy(sigma->0) =     -411.68400708


--------------------------------------------------------------------------------------------------------




--------------------------------------- Iteration      1(  11)  ---------------------------------------


    POTLOK:  cpu time    6.0547: real time    6.0982
    SETDIJ:  cpu time    0.0542: real time    0.0544
    TRIAL :  cpu time    5.3644: real time    5.4117
    CORREC:  cpu time    7.2877: real time    7.3450
    CHARGE:  cpu time    0.6017: real time    0.6098
    --------------------------------------------
      LOOP:  cpu time   19.3763: real time   19.5502

 eigenvalue-minimisations  :     0
 total energy-change (2. order) :-0.9836274E-01  (-0.3637166E-01)
 number of electron     216.0000000 magnetization 
 augmentation part       -0.3946616 magnetization 

 Free energy of the ion-electron system (eV)
  ---------------------------------------------------
  alpha Z        PSCENC =        59.93625244
  Ewald energy   TEWEN  =     34385.40656134
  -Hartree energ DENC   =    -41459.15091920
  -exchange      EXHF   =         0.00000000
  -V(xc)+E(xc)   XCENC  =       429.39281818
  PAW double counting   =     94507.31700717   -94207.55218724
  entropy T*S    EENTRO =        -0.00000000
  eigenvalues    EBANDS =     -2588.21583423
  atomic energy  EATOM  =      8461.08393172
  ---------------------------------------------------
  free energy    TOTEN  =      -411.78236982 eV

  energy without entropy =     -411.78236982  energy(sigma->0) =     -411.78236982


--------------------------------------------------------------------------------------------------------




--------------------------------------- Iteration      1(  12)  ---------------------------------------


    POTLOK:  cpu time    6.0508: real time    6.1002
    SETDIJ:  cpu time    0.0574: real time    0.0576
    TRIAL :  cpu time    5.3517: real time    5.4083
    CORREC:  cpu time    7.2881: real time    7.3510
    CHARGE:  cpu time    0.6013: real time    0.6060
    --------------------------------------------
      LOOP:  cpu time   19.4015: real time   19.5757

 eigenvalue-minimisations  :     0
 total energy-change (2. order) :-0.3636350E-01  (-0.1061154E-01)
 number of electron     216.0000000 magnetization 
 augmentation part       -0.3942220 magnetization 

 Free energy of the ion-electron system (eV)
  ---------------------------------------------------
  alpha Z        PSCENC =        59.93625244
  Ewald energy   TEWEN  =     34385.40656134
  -Hartree energ DENC   =    -41455.07904372
  -exchange      EXHF   =         0.00000000
  -V(xc)+E(xc)   XCENC  =       429.31784168
  PAW double counting   =     94021.98099531   -93722.24985658
  entropy T*S    EENTRO =        -0.00000000
  eigenvalues    EBANDS =     -2592.21541551
  atomic energy  EATOM  =      8461.08393172
  ---------------------------------------------------
  free energy    TOTEN  =      -411.81873332 eV

  energy without entropy =     -411.81873332  energy(sigma->0) =     -411.81873332


--------------------------------------------------------------------------------------------------------




--------------------------------------- Iteration      1(  13)  ---------------------------------------


    POTLOK:  cpu time    6.0635: real time    6.1115
    SETDIJ:  cpu time    0.0945: real time    0.0948
    TRIAL :  cpu time    5.3606: real time    5.4143
    CORREC:  cpu time    7.2886: real time    7.3508
    CHARGE:  cpu time    0.6040: real time    0.6087
    --------------------------------------------
      LOOP:  cpu time   19.4833: real time   19.6549

 eigenvalue-minimisations  :     0
 total energy-change (2. order) :-0.1065130E-01  (-0.2789594E-02)
 number of electron     216.0000000 magnetization 
 augmentation part       -0.3940753 magnetization 

 Free energy of the ion-electron system (eV)
  ---------------------------------------------------
  alpha Z        PSCENC =        59.93625244
  Ewald energy   TEWEN  =     34385.40656134
  -Hartree energ DENC   =    -41454.24306112
  -exchange      EXHF   =         0.00000000
  -V(xc)+E(xc)   XCENC  =       429.28470615
  PAW double counting   =     93796.90030128   -93497.18328022
  entropy T*S    EENTRO =        -0.00000000
  eigenvalues    EBANDS =     -2593.01479621
  atomic energy  EATOM  =      8461.08393172
  ---------------------------------------------------
  free energy    TOTEN  =      -411.82938462 eV

  energy without entropy =     -411.82938462  energy(sigma->0) =     -411.82938462


--------------------------------------------------------------------------------------------------------




--------------------------------------- Iteration      1(  14)  ---------------------------------------


    POTLOK:  cpu time    6.0637: real time    6.1266
    SETDIJ:  cpu time    0.0588: real time    0.0591
    TRIAL :  cpu time    5.3565: real time    5.4111
    CORREC:  cpu time    7.2943: real time    7.3466
    CHARGE:  cpu time    0.6049: real time    0.6089
    --------------------------------------------
      LOOP:  cpu time   19.3805: real time   19.6410

 eigenvalue-minimisations  :     0
 total energy-change (2. order) :-0.2809605E-02  (-0.7452291E-03)
 number of electron     216.0000000 magnetization 
 augmentation part       -0.3939983 magnetization 

 Free energy of the ion-electron system (eV)
  ---------------------------------------------------
  alpha Z        PSCENC =        59.93625244
  Ewald energy   TEWEN  =     34385.40656134
  -Hartree energ DENC   =    -41454.17049462
  -exchange      EXHF   =         0.00000000
  -V(xc)+E(xc)   XCENC  =       429.27781212
  PAW double counting   =     93755.10915428   -93455.39745451
  entropy T*S    EENTRO =        -0.00000000
  eigenvalues    EBANDS =     -2593.07795699
  atomic energy  EATOM  =      8461.08393172
  ---------------------------------------------------
  free energy    TOTEN  =      -411.83219423 eV

  energy without entropy =     -411.83219423  energy(sigma->0) =     -411.83219423


--------------------------------------------------------------------------------------------------------




--------------------------------------- Iteration      1(  15)  ---------------------------------------


    POTLOK:  cpu time    6.0559: real time    6.1050
    SETDIJ:  cpu time    0.1081: real time    0.1085
    TRIAL :  cpu time    5.3610: real time    5.4109
    CORREC:  cpu time    7.2962: real time    7.3494
    CHARGE:  cpu time    0.6060: real time    0.6101
    --------------------------------------------
      LOOP:  cpu time   19.4585: real time   19.6532

 eigenvalue-minimisations  :     0
 total energy-change (2. order) :-0.7537446E-03  (-0.2372104E-03)
 number of electron     216.0000000 magnetization 
 augmentation part       -0.3939155 magnetization 

 Free energy of the ion-electron system (eV)
  ---------------------------------------------------
  alpha Z        PSCENC =        59.93625244
  Ewald energy   TEWEN  =     34385.40656134
  -Hartree energ DENC   =    -41454.01737491
  -exchange      EXHF   =         0.00000000
  -V(xc)+E(xc)   XCENC  =       429.27031793
  PAW double counting   =     93753.86521150   -93454.15404218
  entropy T*S    EENTRO =        -0.00000000
  eigenvalues    EBANDS =     -2593.22380581
  atomic energy  EATOM  =      8461.08393172
  ---------------------------------------------------
  free energy    TOTEN  =      -411.83294797 eV

  energy without entropy =     -411.83294797  energy(sigma->0) =     -411.83294797


--------------------------------------------------------------------------------------------------------




--------------------------------------- Iteration      1(  16)  ---------------------------------------


    POTLOK:  cpu time    6.0587: real time    6.1053
    SETDIJ:  cpu time    0.0456: real time    0.0457
    TRIAL :  cpu time    5.3671: real time    5.4130
    CORREC:  cpu time    7.3324: real time    7.4204
    CHARGE:  cpu time    0.6126: real time    0.6168
    --------------------------------------------
      LOOP:  cpu time   19.4623: real time   19.6478

 eigenvalue-minimisations  :     0
 total energy-change (2. order) :-0.2427531E-03  (-0.9579991E-04)
 number of electron     216.0000000 magnetization 
 augmentation part       -0.3938048 magnetization 

 Free energy of the ion-electron system (eV)
  ---------------------------------------------------
  alpha Z        PSCENC =        59.93625244
  Ewald energy   TEWEN  =     34385.40656134
  -Hartree energ DENC   =    -41454.10718219
  -exchange      EXHF   =         0.00000000
  -V(xc)+E(xc)   XCENC  =       429.27119816
  PAW double counting   =     93736.78772972   -93437.07665991
  entropy T*S    EENTRO =        -0.00000000
  eigenvalues    EBANDS =     -2593.13502201
  atomic energy  EATOM  =      8461.08393172
  ---------------------------------------------------
  free energy    TOTEN  =      -411.83319072 eV

  energy without entropy =     -411.83319072  energy(sigma->0) =     -411.83319072


--------------------------------------------------------------------------------------------------------




--------------------------------------- Iteration      1(  17)  ---------------------------------------


    POTLOK:  cpu time    6.0591: real time    6.1111
    SETDIJ:  cpu time    0.0506: real time    0.0507
    TRIAL :  cpu time    5.3645: real time    5.4107
    CORREC:  cpu time    7.2886: real time    7.3406
    CHARGE:  cpu time    0.6032: real time    0.6073
    --------------------------------------------
      LOOP:  cpu time   19.4413: real time   19.5962

 eigenvalue-minimisations  :     0
 total energy-change (2. order) :-0.9946227E-04  (-0.4200039E-04)
 number of electron     216.0000000 magnetization 
 augmentation part       -0.3938193 magnetization 

 Free energy of the ion-electron system (eV)
  ---------------------------------------------------
  alpha Z        PSCENC =        59.93625244
  Ewald energy   TEWEN  =     34385.40656134
  -Hartree energ DENC   =    -41454.31816545
  -exchange      EXHF   =         0.00000000
  -V(xc)+E(xc)   XCENC  =       429.27789805
  PAW double counting   =     93719.14150141   -93419.43101777
  entropy T*S    EENTRO =        -0.00000000
  eigenvalues    EBANDS =     -2592.93025192
  atomic energy  EATOM  =      8461.08393172
  ---------------------------------------------------
  free energy    TOTEN  =      -411.83329019 eV

  energy without entropy =     -411.83329019  energy(sigma->0) =     -411.83329019


--------------------------------------------------------------------------------------------------------




--------------------------------------- Iteration      1(  18)  ---------------------------------------


    POTLOK:  cpu time    6.0598: real time    6.1033
    SETDIJ:  cpu time    0.0507: real time    0.0508
    TRIAL :  cpu time    5.3647: real time    5.4143
    CORREC:  cpu time    7.2243: real time    7.3246
    CHARGE:  cpu time    0.6052: real time    0.6093
    --------------------------------------------
      LOOP:  cpu time   19.3768: real time   19.5770

 eigenvalue-minimisations  :     0
 total energy-change (2. order) :-0.4441576E-04  (-0.1757845E-04)
 number of electron     216.0000000 magnetization 
 augmentation part       -0.3938447 magnetization 

 Free energy of the ion-electron system (eV)
  ---------------------------------------------------
  alpha Z        PSCENC =        59.93625244
  Ewald energy   TEWEN  =     34385.40656134
  -Hartree energ DENC   =    -41454.34001743
  -exchange      EXHF   =         0.00000000
  -V(xc)+E(xc)   XCENC  =       429.27795078
  PAW double counting   =     93717.21978341   -93417.50858193
  entropy T*S    EENTRO =        -0.00000000
  eigenvalues    EBANDS =     -2592.90921493
  atomic energy  EATOM  =      8461.08393172
  ---------------------------------------------------
  free energy    TOTEN  =      -411.83333460 eV

  energy without entropy =     -411.83333460  energy(sigma->0) =     -411.83333460


--------------------------------------------------------------------------------------------------------




--------------------------------------- Iteration      1(  19)  ---------------------------------------


    POTLOK:  cpu time    6.0679: real time    6.1106
    SETDIJ:  cpu time    0.0569: real time    0.0571
    TRIAL :  cpu time    5.3652: real time    5.4074
    CORREC:  cpu time    7.2939: real time    7.3489
    CHARGE:  cpu time    0.6030: real time    0.6076
    --------------------------------------------
      LOOP:  cpu time   19.4303: real time   19.5846

 eigenvalue-minimisations  :     0
 total energy-change (2. order) :-0.1851519E-04  (-0.7080190E-05)
 number of electron     216.0000000 magnetization 
 augmentation part       -0.3938651 magnetization 

 Free energy of the ion-electron system (eV)
  ---------------------------------------------------
  alpha Z        PSCENC =        59.93625244
  Ewald energy   TEWEN  =     34385.40656134
  -Hartree energ DENC   =    -41454.37006516
  -exchange      EXHF   =         0.00000000
  -V(xc)+E(xc)   XCENC  =       429.27896589
  PAW double counting   =     93724.65369018   -93424.94218431
  entropy T*S    EENTRO =        -0.00000000
  eigenvalues    EBANDS =     -2592.88050522
  atomic energy  EATOM  =      8461.08393172
  ---------------------------------------------------
  free energy    TOTEN  =      -411.83335312 eV

  energy without entropy =     -411.83335312  energy(sigma->0) =     -411.83335312


--------------------------------------------------------------------------------------------------------




--------------------------------------- Iteration      1(  20)  ---------------------------------------


    POTLOK:  cpu time    6.0720: real time    6.1286
    SETDIJ:  cpu time    0.0371: real time    0.0372
    TRIAL :  cpu time    5.3590: real time    5.4048
    CORREC:  cpu time    7.2708: real time    7.3274
    CHARGE:  cpu time    0.6043: real time    0.6089
    --------------------------------------------
      LOOP:  cpu time   19.4007: real time   19.5910

 eigenvalue-minimisations  :     0
 total energy-change (2. order) :-0.7275143E-05  (-0.2154393E-05)
 number of electron     216.0000000 magnetization 
 augmentation part       -0.3938771 magnetization 

 Free energy of the ion-electron system (eV)
  ---------------------------------------------------
  alpha Z        PSCENC =        59.93625244
  Ewald energy   TEWEN  =     34385.40656134
  -Hartree energ DENC   =    -41454.39632098
  -exchange      EXHF   =         0.00000000
  -V(xc)+E(xc)   XCENC  =       429.27971666
  PAW double counting   =     93731.59643847   -93431.88487751
  entropy T*S    EENTRO =        -0.00000000
  eigenvalues    EBANDS =     -2592.85506253
  atomic energy  EATOM  =      8461.08393172
  ---------------------------------------------------
  free energy    TOTEN  =      -411.83336039 eV

  energy without entropy =     -411.83336039  energy(sigma->0) =     -411.83336039


--------------------------------------------------------------------------------------------------------




--------------------------------------- Iteration      1(  21)  ---------------------------------------


    POTLOK:  cpu time    6.0574: real time    6.1042
    SETDIJ:  cpu time    0.0509: real time    0.0511
    TRIAL :  cpu time    5.3662: real time    5.4148
    CORREC:  cpu time    7.2599: real time    7.3221
    CHARGE:  cpu time    0.6044: real time    0.6087
    --------------------------------------------
      LOOP:  cpu time   19.3961: real time   19.5898

 eigenvalue-minimisations  :     0
 total energy-change (2. order) :-0.2218745E-05  (-0.1389373E-05)
 number of electron     216.0000000 magnetization 
 augmentation part       -0.3938687 magnetization 

 Free energy of the ion-electron system (eV)
  ---------------------------------------------------
  alpha Z        PSCENC =        59.93625244
  Ewald energy   TEWEN  =     34385.40656134
  -Hartree energ DENC   =    -41454.38245636
  -exchange      EXHF   =         0.00000000
  -V(xc)+E(xc)   XCENC  =       429.27906690
  PAW double counting   =     93733.41323632   -93433.70161321
  entropy T*S    EENTRO =        -0.00000000
  eigenvalues    EBANDS =     -2592.86834176
  atomic energy  EATOM  =      8461.08393172
  ---------------------------------------------------
  free energy    TOTEN  =      -411.83336261 eV

  energy without entropy =     -411.83336261  energy(sigma->0) =     -411.83336261


--------------------------------------------------------------------------------------------------------




--------------------------------------- Iteration      1(  22)  ---------------------------------------


    POTLOK:  cpu time    6.0641: real time    6.1105
    SETDIJ:  cpu time    0.0701: real time    0.0704
    TRIAL :  cpu time    5.3660: real time    5.4096
    CORREC:  cpu time    7.2882: real time    7.3434
    CHARGE:  cpu time    0.6032: real time    0.6073
    --------------------------------------------
      LOOP:  cpu time   19.4283: real time   19.5809

 eigenvalue-minimisations  :     0
 total energy-change (2. order) :-0.1023043E-05  (-0.4925090E-06)
 number of electron     216.0000000 magnetization 
 augmentation part       -0.3938758 magnetization 

 Free energy of the ion-electron system (eV)
  ---------------------------------------------------
  alpha Z        PSCENC =        59.93625244
  Ewald energy   TEWEN  =     34385.40656134
  -Hartree energ DENC   =    -41454.38055317
  -exchange      EXHF   =         0.00000000
  -V(xc)+E(xc)   XCENC  =       429.27910321
  PAW double counting   =     93732.27255386   -93432.56111540
  entropy T*S    EENTRO =        -0.00000000
  eigenvalues    EBANDS =     -2592.87009763
  atomic energy  EATOM  =      8461.08393172
  ---------------------------------------------------
  free energy    TOTEN  =      -411.83336363 eV

  energy without entropy =     -411.83336363  energy(sigma->0) =     -411.83336363


--------------------------------------------------------------------------------------------------------




--------------------------------------- Iteration      1(  23)  ---------------------------------------


    POTLOK:  cpu time    6.0536: real time    6.0995
    SETDIJ:  cpu time    0.1053: real time    0.1057
    TRIAL :  cpu time    5.3761: real time    5.4198
    CORREC:  cpu time    7.2718: real time    7.3254
    CHARGE:  cpu time    0.6060: real time    0.6101
    --------------------------------------------
      LOOP:  cpu time   19.5048: real time   19.6534

 eigenvalue-minimisations  :     0
 total energy-change (2. order) :-0.4747126E-06  (-0.2645301E-06)
 number of electron     216.0000000 magnetization 
 augmentation part       -0.3938740 magnetization 

 Free energy of the ion-electron system (eV)
  ---------------------------------------------------
  alpha Z        PSCENC =        59.93625244
  Ewald energy   TEWEN  =     34385.40656134
  -Hartree energ DENC   =    -41454.37255739
  -exchange      EXHF   =         0.00000000
  -V(xc)+E(xc)   XCENC  =       429.27879346
  PAW double counting   =     93732.11691028   -93432.40539757
  entropy T*S    EENTRO =        -0.00000000
  eigenvalues    EBANDS =     -2592.87785840
  atomic energy  EATOM  =      8461.08393172
  ---------------------------------------------------
  free energy    TOTEN  =      -411.83336411 eV

  energy without entropy =     -411.83336411  energy(sigma->0) =     -411.83336411


--------------------------------------------------------------------------------------------------------




--------------------------------------- Iteration      1(  24)  ---------------------------------------


    POTLOK:  cpu time    6.0740: real time    6.1176
    SETDIJ:  cpu time    0.0260: real time    0.0261
    TRIAL :  cpu time    5.3657: real time    5.4100
    CORREC:  cpu time    7.2781: real time    7.3339
    CHARGE:  cpu time    0.6019: real time    0.6059
    --------------------------------------------
      LOOP:  cpu time   19.4120: real time   19.5629

 eigenvalue-minimisations  :     0
 total energy-change (2. order) :-0.6039045E-07  (-0.1912025E-06)
 number of electron     216.0000000 magnetization 
 augmentation part       -0.3938778 magnetization 

 Free energy of the ion-electron system (eV)
  ---------------------------------------------------
  alpha Z        PSCENC =        59.93625244
  Ewald energy   TEWEN  =     34385.40656134
  -Hartree energ DENC   =    -41454.37440504
  -exchange      EXHF   =         0.00000000
  -V(xc)+E(xc)   XCENC  =       429.27907872
  PAW double counting   =     93731.44659655   -93431.73513620
  entropy T*S    EENTRO =        -0.00000000
  eigenvalues    EBANDS =     -2592.87624369
  atomic energy  EATOM  =      8461.08393172
  ---------------------------------------------------
  free energy    TOTEN  =      -411.83336417 eV

  energy without entropy =     -411.83336417  energy(sigma->0) =     -411.83336417


--------------------------------------------------------------------------------------------------------




--------------------------------------- Iteration      1(  25)  ---------------------------------------


    POTLOK:  cpu time    6.0596: real time    6.1057
    SETDIJ:  cpu time    0.0735: real time    0.0738
    TRIAL :  cpu time    5.3688: real time    5.4143
    CORREC:  cpu time   29.0896: real time   29.3179
    CHARGE:  cpu time    0.6058: real time    0.6104
    --------------------------------------------
      LOOP:  cpu time   41.2880: real time   41.6152

 eigenvalue-minimisations  :     0
 total energy-change (2. order) :-0.1936423E-06  (-0.5159012E-06)
 number of electron     216.0000000 magnetization 
 augmentation part       -0.3938723 magnetization 

 Free energy of the ion-electron system (eV)
  ---------------------------------------------------
  alpha Z        PSCENC =        59.93625244
  Ewald energy   TEWEN  =     34385.40656134
  -Hartree energ DENC   =    -41454.36863397
  -exchange      EXHF   =         0.00000000
  -V(xc)+E(xc)   XCENC  =       429.27878561
  PAW double counting   =     93731.30974965   -93431.59823699
  entropy T*S    EENTRO =        -0.00000000
  eigenvalues    EBANDS =     -2592.88177417
  atomic energy  EATOM  =      8461.08393172
  ---------------------------------------------------
  free energy    TOTEN  =      -411.83336436 eV

  energy without entropy =     -411.83336436  energy(sigma->0) =     -411.83336436


--------------------------------------------------------------------------------------------------------




--------------------------------------- Iteration      1(  26)  ---------------------------------------


    POTLOK:  cpu time    6.0725: real time    6.1151
    SETDIJ:  cpu time    0.0530: real time    0.0532
    TRIAL :  cpu time    5.3693: real time    5.4117
    CORREC:  cpu time    7.3250: real time    7.3793
    CHARGE:  cpu time    0.6039: real time    0.6079
    --------------------------------------------
      LOOP:  cpu time   19.4749: real time   19.6477

 eigenvalue-minimisations  :     0
 total energy-change (2. order) : 0.8735369E-06  (-0.9099280E-06)
 number of electron     216.0000000 magnetization 
 augmentation part       -0.3938783 magnetization 

 Free energy of the ion-electron system (eV)
  ---------------------------------------------------
  alpha Z        PSCENC =        59.93625244
  Ewald energy   TEWEN  =     34385.40656134
  -Hartree energ DENC   =    -41454.37370388
  -exchange      EXHF   =         0.00000000
  -V(xc)+E(xc)   XCENC  =       429.27898995
  PAW double counting   =     93730.64447529   -93430.93304705
  entropy T*S    EENTRO =        -0.00000000
  eigenvalues    EBANDS =     -2592.87682331
  atomic energy  EATOM  =      8461.08393172
  ---------------------------------------------------
  free energy    TOTEN  =      -411.83336349 eV

  energy without entropy =     -411.83336349  energy(sigma->0) =     -411.83336349


--------------------------------------------------------------------------------------------------------




--------------------------------------- Iteration      1(  27)  ---------------------------------------


    POTLOK:  cpu time    6.0617: real time    6.1067
    SETDIJ:  cpu time    0.0636: real time    0.0638
    TRIAL :  cpu time    5.3727: real time    5.4167
    CORREC:  cpu time    7.2840: real time    7.3415
    CHARGE:  cpu time    0.6035: real time    0.6075
    --------------------------------------------
      LOOP:  cpu time   19.4503: real time   19.6014

 eigenvalue-minimisations  :     0
 total energy-change (2. order) :-0.8393545E-06  (-0.1132543E-06)
 number of electron     216.0000000 magnetization 
 augmentation part       -0.3938786 magnetization 

 Free energy of the ion-electron system (eV)
[...]
      9     -21.1870      2.00000
     10     -19.3675      2.00000
     11     -19.3660      2.00000
     12     -19.3612      2.00000
     13     -19.3605      2.00000
     14     -19.3591      2.00000
     15     -19.3588      2.00000
     16     -18.4748      2.00000
     17     -18.4734      2.00000
     18     -18.4716      2.00000
     19     -18.4698      2.00000
     20     -18.4691      2.00000
     21     -18.4687      2.00000
     22     -16.3321      2.00000
     23     -16.3309      2.00000
     24     -16.3284      2.00000
     25     -16.3279      2.00000
     26     -16.3244      2.00000
     27     -16.3240      2.00000
     28     -15.3380      2.00000
     29     -15.3372      2.00000
     30     -15.3340      2.00000
     31     -15.3335      2.00000
     32     -15.3325      2.00000
     33     -15.3321      2.00000
     34     -13.9980      2.00000
     35     -13.9976      2.00000
     36     -13.9969      2.00000
     37     -13.9955      2.00000
     38     -13.9953      2.00000
     39     -13.9949      2.00000
     40     -12.2772      2.00000
     41     -11.6449      2.00000
     42     -11.6445      2.00000
     43     -11.6421      2.00000
     44     -11.6419      2.00000
     45     -11.6418      2.00000
     46     -11.6415      2.00000
     47     -11.5350      2.00000
     48     -11.5342      2.00000
     49     -11.5325      2.00000
     50     -11.5321      2.00000
     51     -11.5294      2.00000
     52     -11.5291      2.00000
     53     -11.1398      2.00000
     54     -11.1119      2.00000
     55     -11.0411      2.00000
     56     -10.2648      2.00000
     57     -10.1685      2.00000
     58     -10.1684      2.00000
     59     -10.1676      2.00000
     60     -10.1672      2.00000
     61     -10.1662      2.00000
     62     -10.1659      2.00000
     63      -9.1807      2.00000
     64      -9.1747      2.00000
     65      -9.1739      2.00000
     66      -9.1699      2.00000
     67      -9.1682      2.00000
     68      -9.1451      2.00000
     69      -8.9309      2.00000
     70      -8.9276      2.00000
     71      -8.9269      2.00000
     72      -8.9261      2.00000
     73      -8.9254      2.00000
     74      -8.9239      2.00000
     75      -8.8698      2.00000
     76      -8.8692      2.00000
     77      -8.8689      2.00000
     78      -8.8667      2.00000
     79      -8.8662      2.00000
     80      -8.8650      2.00000
     81      -7.5695      2.00000
     82      -7.5224      2.00000
     83      -7.2919      2.00000
     84      -7.2917      2.00000
     85      -7.2909      2.00000
     86      -7.2890      2.00000
     87      -7.2867      2.00000
     88      -7.2866      2.00000
     89      -7.0573      2.00000
     90      -7.0534      2.00000
     91      -7.0452      2.00000
     92      -7.0442      2.00000
     93      -7.0415      2.00000
     94      -6.9914      2.00000
     95      -6.1629      2.00000
     96      -6.1601      2.00000
     97      -6.1553      2.00000
     98      -6.1514      2.00000
     99      -6.1484      2.00000
    100      -6.1313      2.00000
    101      -5.8295      2.00000
    102      -5.8273      2.00000
    103      -4.1863      2.00000
    104      -4.1824      2.00000
    105      -4.1788      2.00000
    106      -4.1768      2.00000
    107      -4.1716      2.00000
    108      -4.1710      2.00000
    109      -1.3941      0.00000
    110      -1.3916      0.00000
    111      -1.3818      0.00000
    112      -1.3797      0.00000
    113      -1.3777      0.00000
    114      -1.3759      0.00000
    115      -0.2828      0.00000
    116       0.1958      0.00000
    117       0.4555      0.00000
    118       0.4646      0.00000
    119       0.4696      0.00000
    120       0.4773      0.00000
    121       0.4789      0.00000
    122       0.4806      0.00000
    123       0.7130      0.00000
    124       0.7774      0.00000
    125       0.8822      0.00000
    126       0.9310      0.00000
    127       0.9596      0.00000
    128       1.0408      0.00000
    129       1.1488      0.00000
    130       1.2907      0.00000
    131       1.3150      0.00000
    132       1.4546      0.00000
    133       1.6051      0.00000
    134       1.6149      0.00000
    135       1.6348      0.00000
    136       1.7016      0.00000
    137       1.7365      0.00000
    138       1.8612      0.00000
    139       1.9862      0.00000
    140       2.1052      0.00000
    141       2.1174      0.00000
    142       2.1257      0.00000
    143       2.1484      0.00000
    144       2.1672      0.00000
    145       2.1973      0.00000
    146       2.2001      0.00000
    147       2.2082      0.00000
    148       2.2101      0.00000
    149       2.2113      0.00000
    150       2.2162      0.00000
    151       2.2340      0.00000
    152       2.7146      0.00000
    153       2.8507      0.00000
    154       2.9214      0.00000
    155       2.9922      0.00000
    156       3.2666      0.00000
    157       3.3256      0.00000
    158       3.5041      0.00000
    159       3.5948      0.00000
    160       3.6411      0.00000
    161       3.7177      0.00000
    162       4.0484      0.00000
    163       4.5047      0.00000
    164       4.7914      0.00000
    165       4.8589      0.00000
    166       4.8728      0.00000
    167       4.8995      0.00000
    168       4.9048      0.00000


--------------------------------------------------------------------------------------------------------


 soft charge-density along one line, spin component           1
         0         1         2         3         4         5         6         7         8         9
 total charge-density along one line
 
 pseudopotential strength for first ion, spin component:           1
 12.675  21.329  -0.000   0.000   0.000  -0.000   0.000   0.000
 21.329  35.892  -0.000   0.000   0.000  -0.000   0.000   0.000
 -0.000  -0.000  -3.239  -0.000   0.000  -5.804  -0.000   0.000
  0.000   0.000  -0.000  -3.247  -0.000  -0.000  -5.818  -0.000
  0.000   0.000   0.000  -0.000  -3.239   0.000  -0.000  -5.804
 -0.000  -0.000  -5.804  -0.000   0.000 -10.381  -0.000   0.000
  0.000   0.000  -0.000  -5.818  -0.000  -0.000 -10.405  -0.000
  0.000   0.000   0.000  -0.000  -5.804   0.000  -0.000 -10.381
 total augmentation occupancy for first ion, spin component:           1
  6.916  -2.317  -0.000  -0.002   0.000   0.000   0.001  -0.000
 -2.317   0.818   0.000   0.001  -0.000  -0.000  -0.000   0.000
 -0.000   0.000   6.627  -0.007   0.000  -2.167   0.003  -0.000
 -0.002   0.001  -0.007   2.818  -0.000   0.003  -0.689   0.000
  0.000  -0.000   0.000  -0.000   6.627  -0.000   0.000  -2.167
  0.000  -0.000  -2.167   0.003  -0.000   0.724  -0.001   0.000
  0.001  -0.000   0.003  -0.689   0.000  -0.001   0.176   0.000
 -0.000   0.000  -0.000   0.000  -2.167   0.000   0.000   0.724


------------------------ aborting loop because EDIFF is reached ----------------------------------------


    FORLOC:  cpu time    0.1034: real time    0.1041
    FORNL :  cpu time    2.9174: real time    2.9425
    FORCOR:  cpu time    6.0512: real time    6.0958
    OFIELD:  cpu time    0.0022: real time    0.0023

 VOLUME and BASIS-vectors are now :
 -----------------------------------------------------------------------------
  energy-cutoff  :     1000.00
  volume of cell :     2631.08
      direct lattice vectors                 reciprocal lattice vectors
    12.325000000  0.000000000  0.000000000     0.081135903  0.046843835  0.000000000
    -6.162500000 10.673763102  0.000000000     0.000000000  0.093687670  0.000000000
     0.000000000  0.000000000 20.000000000     0.000000000  0.000000000  0.050000000

  length of vectors
    12.325000000 12.325000000 20.000000000     0.093687670  0.093687670  0.050000000


 FORCES acting on ions:
    Electron-Ion                     Ewald-Force                    Non-Local-Force
 -----------------------------------------------------------------------------------------------
   0.112E+02 0.983E+01 0.227E+02   -.112E+02 -.983E+01 -.227E+02   0.144E-01 -.616E-02 0.142E-01
   0.184E+02 0.914E+01 0.305E+02   -.185E+02 -.913E+01 -.305E+02   0.197E-01 -.139E-01 -.437E-02
   0.915E+01 0.234E+02 0.384E+02   -.914E+01 -.234E+02 -.385E+02   -.219E-02 0.470E-01 0.395E-01
   0.146E+02 0.214E+02 0.633E+02   -.147E+02 -.215E+02 -.633E+02   0.564E-01 0.226E-01 0.846E-01
   0.122E+02 0.289E+01 0.228E+02   -.122E+02 -.288E+01 -.228E+02   0.356E-02 -.173E-01 -.323E-02
   0.128E+02 -.218E+01 0.234E+02   -.128E+02 0.219E+01 -.233E+02   -.212E-01 -.433E-02 -.123E-01
   0.250E+02 0.102E+02 0.539E+02   -.250E+02 -.101E+02 -.539E+02   0.540E-01 -.657E-01 -.117E-01
   0.247E+02 -.834E+01 0.575E+02   -.247E+02 0.838E+01 -.574E+02   0.432E-02 -.313E-01 -.111E+00
   -.101E+02 0.216E+02 0.396E+02   0.102E+02 -.216E+02 -.396E+02   -.219E-01 -.875E-02 -.369E-01
   -.186E+02 0.159E+02 0.614E+02   0.187E+02 -.160E+02 -.614E+02   -.730E-01 0.415E-01 -.881E-01
   0.299E+01 -.264E+01 0.179E+02   -.298E+01 0.263E+01 -.179E+02   -.567E-02 0.422E-02 -.526E-02
   0.238E+01 -.193E+01 0.165E+02   -.237E+01 0.193E+01 -.165E+02   -.157E-01 0.680E-02 0.181E-02
   0.948E+01 -.227E+02 0.661E+02   -.957E+01 0.228E+02 -.660E+02   0.930E-01 -.234E-01 -.999E-01
   0.435E+01 -.236E+02 0.392E+02   -.438E+01 0.236E+02 -.392E+02   0.276E-01 0.320E-02 -.372E-01
   -.109E+02 0.686E+01 0.223E+02   0.109E+02 -.685E+01 -.223E+02   0.156E-01 -.852E-02 -.518E-02
   -.162E+02 0.457E+01 0.265E+02   0.162E+02 -.457E+01 -.265E+02   -.151E-03 0.101E-01 -.227E-01
   -.162E+01 -.666E+00 0.158E+02   0.163E+01 0.663E+00 -.158E+02   -.572E-02 0.432E-03 0.126E-02
   0.899E+00 0.599E+01 0.170E+02   -.893E+00 -.599E+01 -.170E+02   -.907E-02 0.405E-02 0.904E-02
   -.335E+01 -.194E+02 0.290E+02   0.332E+01 0.194E+02 -.290E+02   0.290E-01 -.642E-02 0.125E-01
   -.142E+01 -.929E+01 0.191E+02   0.141E+01 0.930E+01 -.191E+02   0.592E-02 -.566E-02 -.109E-02
   0.192E+02 -.835E+01 0.332E+02   -.192E+02 0.835E+01 -.332E+02   -.848E-02 -.428E-02 -.476E-01
   0.113E+02 -.979E+01 0.253E+02   -.113E+02 0.978E+01 -.252E+02   -.139E-01 0.178E-01 -.149E-01
   -.469E+01 0.106E+02 0.820E+02   0.477E+01 -.106E+02 -.821E+02   -.720E-01 0.565E-01 0.568E-01
   -.830E+01 -.168E+02 0.772E+02   0.825E+01 0.169E+02 -.773E+02   0.497E-01 -.694E-01 0.601E-01
   0.522E+01 -.231E+01 0.181E+02   -.520E+01 0.230E+01 -.181E+02   -.110E-01 0.228E-02 -.941E-02
   0.962E+00 0.468E+01 0.183E+02   -.954E+00 -.468E+01 -.183E+02   -.134E-01 0.636E-02 -.581E-03
   -.249E+02 0.287E+01 0.442E+02   0.249E+02 -.291E+01 -.442E+02   -.185E-02 0.309E-01 -.424E-01
   -.227E+02 -.972E+01 0.394E+02   0.227E+02 0.969E+01 -.394E+02   -.397E-01 0.339E-01 0.175E-01
   0.690E+01 -.141E+02 0.266E+02   -.691E+01 0.141E+02 -.266E+02   0.106E-01 0.980E-02 -.193E-01
   0.643E+00 -.520E+01 0.194E+02   -.654E+00 0.519E+01 -.194E+02   0.229E-02 0.997E-02 -.886E-02
   -.185E+02 -.200E+02 0.496E+02   0.186E+02 0.200E+02 -.497E+02   -.469E-01 -.296E-01 0.625E-01
   -.104E+02 -.190E+02 0.313E+02   0.104E+02 0.190E+02 -.313E+02   -.569E-03 -.278E-01 0.260E-01
   0.608E+00 0.250E+01 0.164E+02   -.614E+00 -.250E+01 -.164E+02   0.122E-01 -.870E-02 0.392E-02
   0.174E+01 0.253E+01 0.179E+02   -.174E+01 -.252E+01 -.179E+02   0.677E-03 -.400E-02 -.579E-02
   -.760E+01 0.939E+00 0.199E+02   0.759E+01 -.947E+00 -.199E+02   0.110E-01 0.244E-02 -.150E-02
   -.652E+01 -.260E+01 0.192E+02   0.652E+01 0.260E+01 -.192E+02   -.113E-01 0.884E-02 -.214E-02
   -.133E+02 -.695E+01 0.234E+02   0.133E+02 0.694E+01 -.234E+02   -.157E-01 0.463E-02 0.279E-02
   -.765E+01 -.621E+01 0.189E+02   0.766E+01 0.621E+01 -.189E+02   -.113E-01 0.346E-02 0.110E-01
   -.719E+01 -.941E+01 0.205E+02   0.720E+01 0.942E+01 -.205E+02   -.114E-01 -.778E-02 0.872E-02
   -.106E+01 -.223E+01 0.170E+02   0.105E+01 0.223E+01 -.170E+02   0.229E-02 -.230E-02 0.847E-02
   0.270E+01 0.645E+01 0.179E+02   -.270E+01 -.646E+01 -.179E+02   -.430E-02 0.979E-02 0.841E-02
   0.902E+01 0.141E+02 0.244E+02   -.903E+01 -.141E+02 -.245E+02   0.114E-01 0.123E-01 0.177E-01
   0.719E+00 0.115E+02 0.203E+02   -.708E+00 -.116E+02 -.203E+02   -.868E-02 0.849E-02 -.208E-03
   0.135E+00 0.218E+02 0.324E+02   -.103E+00 -.218E+02 -.324E+02   -.366E-01 0.120E-01 0.142E-01
   -.219E+01 0.436E+01 0.194E+02   0.220E+01 -.436E+01 -.194E+02   0.103E-02 -.839E-02 -.617E-02
   -.929E+01 0.118E+02 0.252E+02   0.929E+01 -.118E+02 -.252E+02   -.869E-02 -.268E-02 -.170E-01
   -.157E+01 -.441E+01 0.177E+02   0.156E+01 0.441E+01 -.177E+02   0.149E-01 -.207E-02 0.140E-02
   -.410E+01 0.167E+01 0.169E+02   0.408E+01 -.167E+01 -.169E+02   0.884E-02 -.999E-03 -.815E-02
   0.319E+00 -.274E+01 0.166E+02   -.321E+00 0.274E+01 -.166E+02   0.830E-02 -.372E-02 0.594E-02
   0.432E+01 0.317E+01 0.168E+02   -.433E+01 -.317E+01 -.168E+02   0.590E-02 0.268E-02 0.366E-02
   0.167E+00 -.113E+00 -.376E+03   -.153E+00 0.103E+00 0.376E+03   -.132E-01 0.727E-02 -.355E-01
   -.229E+03 0.156E+03 -.576E+03   0.279E+03 -.190E+03 0.579E+03   -.511E+02 0.348E+02 -.323E+01
   0.229E+03 -.156E+03 -.556E+03   -.279E+03 0.190E+03 0.553E+03   0.511E+02 -.348E+02 0.328E+01
 -----------------------------------------------------------------------------------------------
   0.380E-01 -.393E-02 0.138E+00   0.568E-13 0.568E-13 0.341E-12   -.377E-01 0.382E-02 -.136E+00
 
 
 POSITION                                       TOTAL-FORCE (eV/Angst)
 -----------------------------------------------------------------------------------
     11.98348      0.00342      0.01417         0.001719     -0.000094      0.000375
     -0.34154      1.42665      0.01100         0.001998      0.002769      0.001943
      2.12355      0.00315      0.01249         0.002359     -0.005004      0.006106
      2.12326      1.42653      0.00641        -0.002134      0.004313      0.002554
     10.75099      2.13819      0.01213         0.000633     -0.003980      0.002931
     -1.57382      3.56123      0.01110        -0.004588      0.006999      0.001544
      0.89078      2.13854      0.00548        -0.003424      0.003815     -0.001356
      0.89099      3.56147      0.00181        -0.006228      0.008105     -0.014749
      4.58864      0.00346      0.01135         0.006878      0.006112     -0.000295
      4.58894      1.42623      0.00646         0.000489     -0.000829     -0.019296
      9.51854      4.27281      0.01369         0.007539     -0.007607      0.000490
     -2.80632      5.69591      0.01434        -0.008855      0.004960      0.001087
      2.12300      4.27302      0.00000        -0.004313      0.008355     -0.025201
      2.12335      5.69594      0.00581        -0.003937     -0.012081      0.001095
      7.05344      0.00333      0.01399         0.005384     -0.002283      0.002709
      7.05353      1.42635      0.01368        -0.005738      0.005223      0.000848
      8.28610      6.40752      0.01601         0.003822     -0.002502     -0.000274
     -4.03885      7.83070      0.01636        -0.003083      0.003209      0.000309
      3.35586      6.40753      0.01007         0.002446      0.000355      0.003340
      3.35599      7.83072      0.01320        -0.002884     -0.000328      0.000514
     -0.34146      4.27290      0.00723         0.012529     -0.008485      0.000800
     -0.34138      5.69591      0.00946        -0.006569      0.002874      0.003896
      3.35624      2.13791      0.00222         0.006443     -0.002912     -0.027652
      3.35573      3.56155      0.00139        -0.003189      0.003806     -0.016891
     -1.57395      6.40758      0.01311         0.010289     -0.003624     -0.000412
     -1.57385      7.83068      0.01438        -0.004819      0.004165      0.000658
      5.82093      2.13784      0.01033        -0.000826     -0.008132     -0.002971
      5.82114      3.56097      0.01156        -0.001732     -0.000410      0.004919
      0.89092      6.40755      0.00907         0.003914     -0.000704      0.003222
      0.89106      7.83068      0.01235        -0.008918     -0.000300      0.000810
      4.58871      4.27293      0.00850         0.000761     -0.005587      0.006295
      4.58852      5.69606      0.01149         0.000638      0.007719      0.002845
      9.51845      0.00337      0.01490         0.005946     -0.005921      0.000539
      9.51855      1.42644      0.01438        -0.004434      0.009403     -0.000162
      8.28593      2.13803      0.01453         0.003207     -0.005725      0.001638
      8.28613      3.56115      0.01464        -0.004585      0.001675      0.000877
      7.05356      4.27269      0.01457         0.002741     -0.000784      0.001924
      7.05362      5.69588      0.01553        -0.002679      0.000648      0.000361
      5.82112      6.40755      0.01489        -0.000828      0.001124      0.000541
      5.82102      7.83073      0.01579         0.000228      0.002164     -0.000034
      7.05363      8.54227      0.01631        -0.002099     -0.001318      0.001492
     -5.27149      9.96549      0.01495        -0.001613     -0.002367     -0.000200
     -2.80638      8.54234      0.01558         0.002531     -0.000893      0.000438
     -2.80627      9.96553      0.01362        -0.003129      0.000901      0.003033
     -0.34149      8.54239      0.01378         0.006249     -0.001340      0.000964
     -0.34138      9.96550      0.01354        -0.007282      0.003365      0.002837
      2.12343      8.54232      0.01336         0.006580     -0.001211      0.001114
      2.12354      9.96544      0.01469        -0.008022      0.004017     -0.001757
      4.58846      8.54235      0.01505         0.005703     -0.004575      0.001290
      4.58853      9.96550      0.01517        -0.003186      0.003819      0.000934
      3.04930      2.68154      3.14980         0.001075     -0.002447     -0.011995
      4.02070      2.02068      3.21422        -0.600642      0.416877     -0.018624
      2.07767      3.34267      3.09035         0.607632     -0.425325      0.074594
 -----------------------------------------------------------------------------------
    total drift:                                0.000223     -0.000105      0.002108


--------------------------------------------------------------------------------------------------------



  FREE ENERGIE OF THE ION-ELECTRON SYSTEM (eV)
  ---------------------------------------------------
  free  energy   TOTEN  =      -411.83336450 eV

  energy  without entropy=     -411.83336450  energy(sigma->0) =     -411.83336450
 


--------------------------------------------------------------------------------------------------------


    POTLOK:  cpu time    6.1558: real time    6.1999


--------------------------------------------------------------------------------------------------------


 writing wavefunctions
     LOOP+:  cpu time  605.2658: real time  611.3659
    4ORBIT:  cpu time    0.0000: real time    0.0000

 total amount of memory used by VASP MPI-rank0   441788. kBytes
=======================================================================

   base      :      30000. kBytes
   nonl-proj :     184518. kBytes
   fftplans  :      31725. kBytes
   grid      :     168095. kBytes
   one-center:        162. kBytes
   wavefun   :      27288. kBytes
 
  
  
 General timing and accounting informations for this job:
 ========================================================
  
                  Total CPU time used (sec):      639.994
                            User time (sec):      605.476
                          System time (sec):       34.518
                         Elapsed time (sec):      647.920
  
                   Maximum memory used (kb):     1108184.
                   Average memory used (kb):          N/A
  
                          Minor page faults:       430165
                          Major page faults:           65
                 Voluntary context switches:         3647
