 vasp.6.2.1 16May21 (build Nov 06 2021 14:46:37) complex                        
  
 executed on             LinuxIFC date 2025.04.16  21:45:41
 running on  112 total cores
 distrk:  each k-point on   56 cores,    2 groups
 distr:  one band on NCORE=   1 cores,   56 groups


--------------------------------------------------------------------------------------------------------


 INCAR:
   ALGO = Conjugate
   KPAR = 2
   NCORE = 32
   ISMEAR = 0
   SIGMA = 0.01
   PREC = Accurate
   EDIFF = 1E-7
   ENCUT = 1000
   ISIF = 0
   GGA = BO
   PARAM1 = 0.1833333333
   PARAM2 = 0.2200000000
   LUSE_VDW = .TRUE.
   AGGAC = 0.0000
   LASPH = .TRUE.
   SYMPREC = 1E-7

 POTCAR:    PAW_PBE C_h 06Feb2004                 
 POTCAR:    PAW_PBE O_h 06Feb2004                 
 -----------------------------------------------------------------------------
|                                                                             |
|           W    W    AA    RRRRR   N    N  II  N    N   GGGG   !!!           |
|           W    W   A  A   R    R  NN   N  II  NN   N  G    G  !!!           |
|           W    W  A    A  R    R  N N  N  II  N N  N  G       !!!           |
|           W WW W  AAAAAA  RRRRR   N  N N  II  N  N N  G  GGG   !            |
|           WW  WW  A    A  R   R   N   NN  II  N   NN  G    G                |
|           W    W  A    A  R    R  N    N  II  N    N   GGGG   !!!           |
|                                                                             |
|     The value NCORE = 32 specified in the INCAR file was overwritten,       |
|     because it was not compatible with the 56 processes available:          |
|     NCORE = 1                                                               |
|     was used instead, please check that this makes sense for your           |
|     machine.                                                                |
|                                                                             |
 -----------------------------------------------------------------------------

 -----------------------------------------------------------------------------
|                                                                             |
|           W    W    AA    RRRRR   N    N  II  N    N   GGGG   !!!           |
|           W    W   A  A   R    R  NN   N  II  NN   N  G    G  !!!           |
|           W    W  A    A  R    R  N N  N  II  N N  N  G       !!!           |
|           W WW W  AAAAAA  RRRRR   N  N N  II  N  N N  G  GGG   !            |
|           WW  WW  A    A  R   R   N   NN  II  N   NN  G    G                |
|           W    W  A    A  R    R  N    N  II  N    N   GGGG   !!!           |
|                                                                             |
|     For optimal performance we recommend to set                             |
|       NCORE = 2 up to number-of-cores-per-socket                            |
|     NCORE specifies how many cores store one orbital (NPAR=cpu/NCORE).      |
|     This setting can greatly improve the performance of VASP for DFT.       |
|     The default, NCORE=1 might be grossly inefficient on modern             |
|     multi-core architectures or massively parallel machines. Do your        |
|     own testing! More info at https://www.vasp.at/wiki/index.php/NCORE      |
|     Unfortunately you need to use the default for GW and RPA                |
|     calculations (for HF NCORE is supported but not extensively tested      |
|     yet).                                                                   |
|                                                                             |
 -----------------------------------------------------------------------------

 -----------------------------------------------------------------------------
|                                                                             |
|               ----> ADVICE to this user running VASP <----                  |
|                                                                             |
|     You have switched on vdW-DFT.                                           |
|     This routine was written and supplied by Jiri Klimes. We recommend      |
|     that you carefully read and cite the following publications:            |
|       J. Klimes, D.R. Bowler, A. Michelides                                 |
|          J. Phys.: Cond Matt. 22 022201 (2010)                              |
|       J. Klimes, D.R. Bowler, A. Michelides                                 |
|          Phys. Rev. B. 83, 195131 (2011)                                    |
|     and references therein.                                                 |
|                                                                             |
 -----------------------------------------------------------------------------

 POTCAR:    PAW_PBE C_h 06Feb2004                 
   VRHFIN =C: s2p2                                                                                  
   LEXCH  = PE                                                                                      
   EATOM  =   147.1560 eV,   10.8157 Ry                                                             
                                                                                                    
   TITEL  = PAW_PBE C_h 06Feb2004                                                                   
   LULTRA =        F    use ultrasoft PP ?                                                          
   IUNSCR =        1    unscreen: 0-lin 1-nonlin 2-no                                               
   RPACOR =    0.800    partial core radius                                                         
   POMASS =   12.011; ZVAL   =    4.000    mass and valenz                                          
   RCORE  =    1.100    outmost cutoff radius                                                       
   RWIGS  =    1.630; RWIGS  =    0.863    wigner-seitz radius (au A)                               
   ENMAX  =  700.000; ENMIN  =  500.000 eV                                                          
   ICORE  =        2    local potential                                                             
   LCOR   =        T    correct aug charges                                                         
   LPAW   =        T    paw PP                                                                      
   EAUG   =  946.768                                                                                
   DEXC   =    0.000                                                                                
   RMAX   =    1.128    core radius for proj-oper                                                   
   RAUG   =    1.300    factor for augmentation sphere                                              
   RDEP   =    1.162    radius for radial grids                                                     
   RDEPT  =    1.088    core radius for aug-charge                                                  
                                                                                                    
   Atomic configuration                                                                             
    4 entries                                                                                       
     n  l   j            E        occ.                                                              
     1  0  0.50      -273.3789   2.0000                                                             
     2  0  0.50       -13.7508   2.0000                                                             
     2  1  0.50        -5.2854   2.0000                                                             
     3  2  1.50        -5.4423   0.0000                                                             
   Description                                                                                      
     l       E           TYP  RCUT    TYP  RCUT                                                     
     0    -13.7508458     23  1.100                                                                 
     0     -8.2022199     23  1.100                                                                 
     1     -5.2854383     23  1.100                                                                 
     1      1.1560700     23  1.100                                                                 
     2     -5.4423304      7  1.100                                                                 
  local pseudopotential read in
  partial core-charges read in
  partial kinetic energy density read in
  atomic valenz-charges read in
  non local Contribution for L=           0  read in
    real space projection operators read in
  non local Contribution for L=           0  read in
    real space projection operators read in
  non local Contribution for L=           1  read in
    real space projection operators read in
  non local Contribution for L=           1  read in
    real space projection operators read in
    PAW grid and wavefunctions read in
 
   number of l-projection  operators is LMAX  =           4
   number of lm-projection operators is LMMAX =           8
 
 POTCAR:    PAW_PBE O_h 06Feb2004                 
   VRHFIN =O: s2p4                                                                                  
   LEXCH  = PE                                                                                      
   EATOM  =   432.3788 eV,   31.7789 Ry                                                             
                                                                                                    
   TITEL  = PAW_PBE O_h 06Feb2004                                                                   
   LULTRA =        F    use ultrasoft PP ?                                                          
   IUNSCR =        1    unscreen: 0-lin 1-nonlin 2-no                                               
   RPACOR =    0.800    partial core radius                                                         
   POMASS =   16.000; ZVAL   =    6.000    mass and valenz                                          
   RCORE  =    1.100    outmost cutoff radius                                                       
   RWIGS  =    1.400; RWIGS  =    0.741    wigner-seitz radius (au A)                               
   ENMAX  =  700.000; ENMIN  =  500.000 eV                                                          
   ICORE  =        2    local potential                                                             
   LCOR   =        T    correct aug charges                                                         
   LPAW   =        T    paw PP                                                                      
   EAUG   =  888.804                                                                                
   DEXC   =    0.000                                                                                
   RMAX   =    1.128    core radius for proj-oper                                                   
   RAUG   =    1.300    factor for augmentation sphere                                              
   RDEP   =    1.125    radius for radial grids                                                     
   RDEPT  =    1.088    core radius for aug-charge                                                  
                                                                                                    
   Atomic configuration                                                                             
    4 entries                                                                                       
     n  l   j            E        occ.                                                              
     1  0  0.50      -514.6923   2.0000                                                             
     2  0  0.50       -23.9615   2.0000                                                             
     2  1  0.50        -9.0305   4.0000                                                             
     3  2  1.50        -9.5241   0.0000                                                             
   Description                                                                                      
     l       E           TYP  RCUT    TYP  RCUT                                                     
     0    -23.9615319     23  1.100                                                                 
     0    -25.3221145     23  1.100                                                                 
     1     -9.0304911     23  1.100                                                                 
     1     -5.4802209     23  1.100                                                                 
     2     -9.5240782      7  1.100                                                                 
  local pseudopotential read in
  partial core-charges read in
  partial kinetic energy density read in
  atomic valenz-charges read in
  non local Contribution for L=           0  read in
    real space projection operators read in
  non local Contribution for L=           0  read in
    real space projection operators read in
  non local Contribution for L=           1  read in
    real space projection operators read in
  non local Contribution for L=           1  read in
    real space projection operators read in
    PAW grid and wavefunctions read in
 
   number of l-projection  operators is LMAX  =           4
   number of lm-projection operators is LMMAX =           8
 
 -----------------------------------------------------------------------------
|                                                                             |
|               ----> ADVICE to this user running VASP <----                  |
|                                                                             |
|     You have a (more or less) 'large supercell' and for larger cells it     |
|     might be more efficient to use real-space projection operators.         |
|     Therefore, try LREAL= Auto in the INCAR file.                           |
|     Mind: For very accurate calculation, you might also keep the            |
|     reciprocal projection scheme (i.e. LREAL=.FALSE.).                      |
|                                                                             |
 -----------------------------------------------------------------------------

 -----------------------------------------------------------------------------
|                                                                             |
|               ----> ADVICE to this user running VASP <----                  |
|                                                                             |
|     You enforced a specific xc type in the INCAR file but a different       |
|     type was found in the POTCAR file.                                      |
|     I HOPE YOU KNOW WHAT YOU ARE DOING!                                     |
|                                                                             |
 -----------------------------------------------------------------------------

  PAW_PBE C_h 06Feb2004                 :
 energy of atom  1       EATOM= -147.1560
 kinetic energy error for atom=    0.0031 (will be added to EATOM!!)
  PAW_PBE O_h 06Feb2004                 :
 energy of atom  2       EATOM= -432.3788
 kinetic energy error for atom=    0.0171 (will be added to EATOM!!)
 
 
 POSCAR:  C  O
  positions in cartesian coordinates
  No initial velocities read in
 exchange correlation table for  LEXCH =       42
   RHO(1)=    0.500       N(1)  =     2000
   RHO(2)=  100.500       N(2)  =     4000
 


--------------------------------------------------------------------------------------------------------


 ion  position               nearest neighbor table
   1  0.972  0.000  0.001-  50 1.42   2 1.42  42 1.42
   2  0.039  0.134  0.000-   5 1.42   7 1.42   1 1.42
   3  0.172  0.000  0.000-  42 1.42  44 1.42   4 1.42
   4  0.239  0.134  0.000-   7 1.42   3 1.42  23 1.42
   5  0.972  0.200  0.000-   6 1.42   2 1.42  34 1.42
   6  0.039  0.334  0.000-   5 1.42  21 1.42  11 1.42
   7  0.172  0.200  0.000-   8 1.42   2 1.42   4 1.42
   8  0.239  0.334  0.000-  13 1.42   7 1.42  21 1.42
   9  0.372  0.000  0.000-  10 1.42  44 1.42  46 1.42
  10  0.439  0.134  0.000-  27 1.42   9 1.42  23 1.42
  11  0.972  0.400  0.001-  12 1.42  36 1.42   6 1.42
  12  0.039  0.534  0.001-  25 1.42  11 1.42  17 1.42
  13  0.372  0.400  0.000-   8 1.42  14 1.42  24 1.42
  14  0.439  0.534  0.000-  13 1.42  29 1.42  19 1.42
  15  0.572  0.000  0.001-  46 1.42  16 1.42  48 1.42
  16  0.639  0.134  0.001-  15 1.42  35 1.42  27 1.42
  17  0.972  0.600  0.001-  38 1.42  18 1.42  12 1.42
  18  0.039  0.734  0.001-  43 1.42  41 1.42  17 1.42
  19  0.572  0.600  0.000-  14 1.42  20 1.42  32 1.42
  20  0.639  0.734  0.001-  49 1.42  19 1.42  47 1.42
  21  0.172  0.400  0.000-  22 1.42   8 1.42   6 1.42
  22  0.239  0.534  0.000-  21 1.42  29 1.42  25 1.42
  23  0.372  0.200  0.000-  10 1.42   4 1.42  24 1.42
  24  0.439  0.334  0.000-  13 1.42  31 1.42  23 1.42
  25  0.172  0.600  0.001-  26 1.42  12 1.42  22 1.42
  26  0.239  0.734  0.001-  25 1.42  45 1.42  43 1.42
  27  0.572  0.200  0.000-  10 1.42  28 1.42  16 1.42
  28  0.639  0.334  0.000-  27 1.42  37 1.42  31 1.42
  29  0.372  0.600  0.000-  22 1.42  14 1.42  30 1.42
  30  0.439  0.734  0.000-  47 1.42  29 1.42  45 1.42
  31  0.572  0.400  0.000-  32 1.42  28 1.42  24 1.42
  32  0.639  0.534  0.000-  31 1.42  39 1.42  19 1.42
  33  0.772  0.000  0.001-  34 1.42  48 1.42  50 1.42
  34  0.839  0.134  0.001-  33 1.42   5 1.42  35 1.42
  35  0.772  0.200  0.001-  36 1.42  16 1.42  34 1.42
  36  0.839  0.334  0.001-  35 1.42  11 1.42  37 1.42
  37  0.772  0.400  0.001-  28 1.42  38 1.42  36 1.42
  38  0.839  0.534  0.001-  17 1.42  37 1.42  39 1.42
  39  0.772  0.600  0.001-  40 1.42  38 1.42  32 1.42
  40  0.839  0.734  0.001-  39 1.42  49 1.42  41 1.42
  41  0.972  0.800  0.001-  18 1.42  42 1.42  40 1.42
  42  0.039  0.934  0.001-   3 1.42  41 1.42   1 1.42
  43  0.172  0.800  0.001-  18 1.42  44 1.42  26 1.42
  44  0.239  0.934  0.001-   9 1.42  43 1.42   3 1.42
  45  0.372  0.800  0.001-  26 1.42  46 1.42  30 1.42
  46  0.439  0.934  0.001-  15 1.42  45 1.42   9 1.42
  47  0.572  0.800  0.001-  30 1.42  48 1.42  20 1.42
  48  0.639  0.934  0.001-  47 1.42  33 1.42  15 1.42
  49  0.772  0.800  0.001-  50 1.42  20 1.42  40 1.42
  50  0.839  0.934  0.001-  49 1.42   1 1.42  33 1.42
  51  0.373  0.251  0.378-  52 1.18  53 1.18
  52  0.421  0.189  0.380-  51 1.18
  53  0.325  0.313  0.375-  51 1.18
 
  LATTYP: Found a hexagonal cell.
 ALAT       =    12.3250000000
 C/A-ratio  =     2.0283975659
  
  Lattice vectors:
  
 A1 = (  12.3250000000,   0.0000000000,   0.0000000000)
 A2 = (  -6.1625000000,  10.6737631016,   0.0000000000)
 A3 = (   0.0000000000,   0.0000000000,  25.0000000000)


Analysis of symmetry for initial positions (statically):
=====================================================================
 Subroutine PRICEL returns:
 Original cell was already a primitive cell.
 

 Routine SETGRP: Setting up the symmetry group for a 
 hexagonal supercell.


 Subroutine GETGRP returns: Found  1 space group operations
 (whereof  1 operations were pure point group operations)
 out of a pool of 24 trial point group operations.


The static configuration has the point symmetry C_1 .


Analysis of symmetry for dynamics (positions and initial velocities):
=====================================================================
 Subroutine PRICEL returns:
 Original cell was already a primitive cell.
 

 Routine SETGRP: Setting up the symmetry group for a 
 hexagonal supercell.


 Subroutine GETGRP returns: Found  1 space group operations
 (whereof  1 operations were pure point group operations)
 out of a pool of 24 trial point group operations.


The dynamic configuration has the point symmetry C_1 .


 Subroutine INISYM returns: Found  1 space group operations
 (whereof  1 operations are pure point group operations),
 and found     1 'primitive' translations


----------------------------------------------------------------------------------------

                                     Primitive cell                                     

  volume of cell :    3288.8533

  direct lattice vectors                    reciprocal lattice vectors
    12.325000000  0.000000000  0.000000000     0.081135903  0.046843835  0.000000000
    -6.162500000 10.673763102  0.000000000     0.000000000  0.093687670  0.000000000
     0.000000000  0.000000000 25.000000000     0.000000000  0.000000000  0.040000000

  length of vectors
    12.325000000 12.325000000 25.000000000     0.093687670  0.093687670  0.040000000

  position of ions in fractional coordinates (direct lattice)
     0.972450841  0.000320818  0.000566711
     0.039118382  0.133659505  0.000440173
     0.172443627  0.000295449  0.000499628
     0.239096278  0.133647917  0.000256468
     0.972452058  0.200322012  0.000485219
     0.039128360  0.333643771  0.000444150
     0.172451764  0.200354552  0.000219167
     0.239124359  0.333665720  0.000072260
     0.372465565  0.000324403  0.000453913
     0.439137473  0.133619939  0.000258338
     0.972449824  0.400309362  0.000547611
     0.039124981  0.533636789  0.000573410
     0.372416176  0.400329481  0.000000000
     0.439099602  0.533638981  0.000232414
     0.572443676  0.000312125  0.000559580
     0.639110207  0.133631751  0.000547275
     0.972452703  0.600305653  0.000640289
     0.039124495  0.733640359  0.000654513
     0.572433471  0.600306242  0.000402895
     0.639111888  0.733641879  0.000527905
     0.172454630  0.400318228  0.000289045
     0.239120185  0.533636548  0.000378509
     0.372459750  0.200295993  0.000088997
     0.439107096  0.333673419  0.000055762
     0.172452155  0.600311506  0.000524340
     0.239123371  0.733638574  0.000575129
     0.572431082  0.200289171  0.000413296
     0.639112773  0.333618630  0.000462376
     0.372439808  0.600308022  0.000362844
     0.439116090  0.733637858  0.000494190
     0.572469358  0.400320504  0.000339918
     0.639119408  0.533650873  0.000459610
     0.772445723  0.000315427  0.000596161
     0.839116277  0.133640203  0.000575306
     0.772440513  0.200307432  0.000581033
     0.839120241  0.333635728  0.000585467
     0.772446320  0.400298367  0.000582978
     0.839118980  0.533633964  0.000621100
     0.772456143  0.600308173  0.000595712
     0.839115033  0.733643180  0.000631512
     0.972455313  0.800305582  0.000652233
     0.039114714  0.933643289  0.000598051
     0.172457971  0.800312211  0.000623372
     0.239134551  0.933647193  0.000544850
     0.372451396  0.800316674  0.000551399
     0.439124489  0.933644769  0.000541430
     0.572441101  0.800310054  0.000534535
     0.639115067  0.933638985  0.000587644
     0.772445098  0.800313187  0.000602062
     0.839116614  0.933644338  0.000606830
     0.373021009  0.251226878  0.377549725
     0.420879805  0.189313152  0.380126600
     0.325156981  0.313167186  0.375171530

  ion indices of the primitive-cell ions
   primitive index   ion index
                 1           1
                 2           2
                 3           3
                 4           4
                 5           5
                 6           6
                 7           7
                 8           8
                 9           9
                10          10
                11          11
                12          12
                13          13
                14          14
                15          15
                16          16
                17          17
                18          18
                19          19
                20          20
                21          21
                22          22
                23          23
                24          24
                25          25
                26          26
                27          27
                28          28
                29          29
                30          30
                31          31
                32          32
                33          33
                34          34
                35          35
                36          36
                37          37
                38          38
                39          39
                40          40
                41          41
                42          42
                43          43
                44          44
                45          45
                46          46
                47          47
                48          48
                49          49
                50          50
                51          51
                52          52
                53          53

----------------------------------------------------------------------------------------

 
 
 KPOINTS: auto                                    

Automatic generation of k-mesh.
 Grid dimensions read from file:
 generate k-points for:    1    1    1

 Generating k-lattice:

  Cartesian coordinates                     Fractional coordinates (reciprocal lattice)
     0.081135903  0.046843835  0.000000000     1.000000000 -0.000000000  0.000000000
     0.000000000  0.093687670  0.000000000     0.000000000  1.000000000  0.000000000
     0.000000000  0.000000000  0.040000000     0.000000000  0.000000000  1.000000000

  Length of vectors
     0.093687670  0.093687670  0.040000000

  Shift w.r.t. Gamma in fractional coordinates (k-lattice)
     0.000000000  0.000000000  0.000000000

 
 Subroutine IBZKPT returns following result:
 ===========================================
 
 Found      1 irreducible k-points:
 
 Following reciprocal coordinates:
            Coordinates               Weight
  0.000000  0.000000  0.000000      1.000000
 
 Following cartesian coordinates:
            Coordinates               Weight
  0.000000  0.000000  0.000000      1.000000
 


--------------------------------------------------------------------------------------------------------




 Dimension of arrays:
   k-points           NKPTS =      1   k-points in BZ     NKDIM =      1   number of bands    NBANDS=    168
   number of dos      NEDOS =    301   number of ions     NIONS =     53
   non local maximal  LDIM  =      4   non local SUM 2l+1 LMDIM =      8
   total plane-waves  NPLWV = ******
   max r-space proj   IRMAX =      1   max aug-charges    IRDMAX=  10008
   dimension x,y,z NGX =   128 NGY =  128 NGZ =  270
   dimension x,y,z NGXF=   256 NGYF=  256 NGZF=  540
   support grid    NGXF=   256 NGYF=  256 NGZF=  540
   ions per type =              51   2
   NGX,Y,Z   is equivalent  to a cutoff of  17.27, 17.27, 17.95 a.u.
   NGXF,Y,Z  is equivalent  to a cutoff of  34.53, 34.53, 35.91 a.u.

 SYSTEM =  unknown system                          
 POSCAR =   C  O                                   

 Startparameter for this run:
   NWRITE =      2    write-flag & timer
   PREC   = accura    normal or accurate (medium, high low for compatibility)
   ISTART =      0    job   : 0-new  1-cont  2-samecut
   ICHARG =      2    charge: 1-file 2-atom 10-const
   ISPIN  =      1    spin polarized calculation?
   LNONCOLLINEAR =      F non collinear calculations
   LSORBIT =      F    spin-orbit coupling
   INIWAV =      1    electr: 0-lowe 1-rand  2-diag
   LASPH  =      T    aspherical Exc in radial PAW
 Electronic Relaxation 1
   ENCUT  = 1000.0 eV  73.50 Ry    8.57 a.u.  31.78 31.78 64.46*2*pi/ulx,y,z
   ENINI  = 1000.0     initial cutoff
   ENAUG  =  946.8 eV  augmentation charge cutoff
   NELM   =     60;   NELMIN=  2; NELMDL= -5     # of ELM steps 
   EDIFF  = 0.1E-06   stopping-criterion for ELM
   LREAL  =      F    real-space projection
   NLSPLINE    = F    spline interpolate recip. space projectors
   LCOMPAT=      F    compatible to vasp.4.4
   GGA_COMPAT  = T    GGA compatible to vasp.4.4-vasp.4.6
   LMAXPAW     = -100 max onsite density
   LMAXMIX     =    2 max onsite mixed and CHGCAR
   VOSKOWN=      0    Vosko Wilk Nusair interpolation
   ROPT   =    0.00000   0.00000
 Ionic relaxation
   EDIFFG = 0.1E-05   stopping-criterion for IOM
   NSW    =      0    number of steps for IOM
   NBLOCK =      1;   KBLOCK =      1    inner block; outer block 
   IBRION =     -1    ionic relax: 0-MD 1-quasi-New 2-CG
   NFREE  =      0    steps in history (QN), initial steepest desc. (CG)
   ISIF   =      0    stress and relaxation
   IWAVPR =     10    prediction:  0-non 1-charg 2-wave 3-comb
   ISYM   =      2    0-nonsym 1-usesym 2-fastsym
   LCORR  =      T    Harris-Foulkes like correction to forces

   POTIM  = 0.5000    time-step for ionic-motion
   TEIN   =    0.0    initial temperature
   TEBEG  =    0.0;   TEEND  =   0.0 temperature during run
   SMASS  =  -3.00    Nose mass-parameter (am)
   estimated Nose-frequenzy (Omega)   =  0.10E-29 period in steps = 0.13E+47 mass=  -0.347E-26a.u.
   SCALEE = 1.0000    scale energy and forces
   NPACO  =    256;   APACO  = 16.0  distance and # of slots for P.C.
   PSTRESS=    0.0 pullay stress

  Mass of Ions in am
   POMASS =  12.01 16.00
  Ionic Valenz
   ZVAL   =   4.00  6.00
  Atomic Wigner-Seitz radii
   RWIGS  =  -1.00 -1.00
  virtual crystal weights 
   VCA    =   1.00  1.00
   NELECT =     216.0000    total number of electrons
   NUPDOWN=      -1.0000    fix difference up-down

 DOS related values:
   EMIN   =  10.00;   EMAX   =-10.00  energy-range for DOS
   EFERMI =   0.00
   ISMEAR =     0;   SIGMA  =   0.01  broadening in eV -4-tet -1-fermi 0-gaus

 Electronic relaxation 2 (details)
   IALGO  =     58    algorithm
   LDIAG  =      T    sub-space diagonalisation (order eigenvalues)
   LSUBROT=      F    optimize rotation matrix (better conditioning)
   TURBO    =      0    0=normal 1=particle mesh
   IRESTART =      0    0=no restart 2=restart with 2 vectors
   NREBOOT  =      0    no. of reboots
   NMIN     =      0    reboot dimension
   EREF     =   0.00    reference energy to select bands
   IMIX   =      4    mixing-type and parameters
     AMIX     =   0.40;   BMIX     =  1.00
     AMIX_MAG =   1.60;   BMIX_MAG =  1.00
     AMIN     =   0.10
     WC   =   100.;   INIMIX=   1;  MIXPRE=   1;  MAXMIX= -45

 Intra band minimization:
   WEIMIN = 0.0000     energy-eigenvalue tresh-hold
   EBREAK =  0.15E-09  absolut break condition
   DEPER  =   0.30     relativ break condition  

   TIME   =   0.40     timestep for ELM

  volume/ion in A,a.u.               =      62.05       418.76
  Fermi-wavevector in a.u.,A,eV,Ry     =   0.660508  1.248179  5.935820  0.436270
  Thomas-Fermi vector in A             =   1.732977
 
 Write flags
   LWAVE        =      T    write WAVECAR
   LDOWNSAMPLE  =      F    k-point downsampling of WAVECAR
   LCHARG       =      T    write CHGCAR
   LVTOT        =      F    write LOCPOT, total local potential
   LVHAR        =      F    write LOCPOT, Hartree potential only
   LELF         =      F    write electronic localiz. function (ELF)
   LORBIT       =      0    0 simple, 1 ext, 2 COOP (PROOUT), +10 PAW based schemes


 Dipole corrections
   LMONO  =      F    monopole corrections only (constant potential shift)
   LDIPOL =      F    correct potential (dipole corrections)
   IDIPOL =      0    1-x, 2-y, 3-z, 4-all directions 
   EPSILON=  1.0000000 bulk dielectric constant

 Exchange correlation treatment:
   GGA     =    BO    GGA type
   LEXCH   =    42    internal setting for exchange type
   VOSKOWN=      0    Vosko Wilk Nusair interpolation
   LHFCALC =     F    Hartree Fock is set to
   LHFONE  =     F    Hartree Fock one center treatment
   AEXX    =    0.0000 exact exchange contribution

 vdW DFT:
   LUSE_VDW   =     T    switch on vdW DFT
   Zab_VDW    =-.8491    correlation parameter
   PARAM1     =0.1833
   PARAM2     =0.2200
   PARAM3     =0.0000
   -- rVV10 --
   BPARAM     = 6.3000
   CPARAM     = 0.0093

 Linear response parameters
   LEPSILON=     F    determine dielectric tensor
   LRPA    =     F    only Hartree local field effects (RPA)
   LNABLA  =     F    use nabla operator in PAW spheres
   LVEL    =     F    velocity operator in full k-point grid
   LINTERFAST=   F  fast interpolation
   KINTER  =     0    interpolate to denser k-point grid
   CSHIFT  =0.1000    complex shift for real part using Kramers Kronig
   OMEGAMAX=  -1.0    maximum frequency
   DEG_THRESHOLD= 0.2000000E-02 threshold for treating states as degnerate
   RTIME   =   -0.100 relaxation time in fs
  (WPLASMAI=    0.000 imaginary part of plasma frequency in eV, 0.658/RTIME)
   DFIELD  = 0.0000000 0.0000000 0.0000000 field for delta impulse in time
 
 Orbital magnetization related:
   ORBITALMAG=     F  switch on orbital magnetization
   LCHIMAG   =     F  perturbation theory with respect to B field
   DQ        =  0.001000  dq finite difference perturbation B field
   LLRAUG    =     F  two centre corrections for induced B field



--------------------------------------------------------------------------------------------------------


 Static calculation
 charge density and potential will be updated during run
 non-spin polarized calculation
 Conjugate gradient for all bands (Freysoldt, et al. PRB 79, 241103 (2009))
 preconditioned conjugated gradient                                        
 perform sub-space diagonalisation
    before iterative eigenvector-optimisation
 modified Broyden-mixing scheme, WC =      100.0
 initial mixing is a Kerker type mixing with AMIX =  0.4000 and BMIX =      1.0000
 Hartree-type preconditioning will be used
 using additional bands           60
 reciprocal scheme for non local part
 use partial core corrections
 no Harris-corrections to forces 
 use gradient corrections 
 use of overlap-Matrix (Vanderbilt PP)
 Gauss-broadening in eV      SIGMA  =   0.01


--------------------------------------------------------------------------------------------------------


  energy-cutoff  :     1000.00
  volume of cell :     3288.85
      direct lattice vectors                 reciprocal lattice vectors
    12.325000000  0.000000000  0.000000000     0.081135903  0.046843835  0.000000000
    -6.162500000 10.673763102  0.000000000     0.000000000  0.093687670  0.000000000
     0.000000000  0.000000000 25.000000000     0.000000000  0.000000000  0.040000000

  length of vectors
    12.325000000 12.325000000 25.000000000     0.093687670  0.093687670  0.040000000


 
 k-points in units of 2pi/SCALE and weight: auto                                    
   0.00000000  0.00000000  0.00000000       1.000
 
 k-points in reciprocal lattice and weights: auto                                    
   0.00000000  0.00000000  0.00000000       1.000
 
 position of ions in fractional coordinates (direct lattice) 
   0.97245084  0.00032082  0.00056671
   0.03911838  0.13365950  0.00044017
   0.17244363  0.00029545  0.00049963
   0.23909628  0.13364792  0.00025647
   0.97245206  0.20032201  0.00048522
   0.03912836  0.33364377  0.00044415
   0.17245176  0.20035455  0.00021917
   0.23912436  0.33366572  0.00007226
   0.37246557  0.00032440  0.00045391
   0.43913747  0.13361994  0.00025834
   0.97244982  0.40030936  0.00054761
   0.03912498  0.53363679  0.00057341
   0.37241618  0.40032948  0.00000000
   0.43909960  0.53363898  0.00023241
   0.57244368  0.00031213  0.00055958
   0.63911021  0.13363175  0.00054727
   0.97245270  0.60030565  0.00064029
   0.03912449  0.73364036  0.00065451
   0.57243347  0.60030624  0.00040289
   0.63911189  0.73364188  0.00052791
   0.17245463  0.40031823  0.00028904
   0.23912018  0.53363655  0.00037851
   0.37245975  0.20029599  0.00008900
   0.43910710  0.33367342  0.00005576
   0.17245216  0.60031151  0.00052434
   0.23912337  0.73363857  0.00057513
   0.57243108  0.20028917  0.00041330
   0.63911277  0.33361863  0.00046238
   0.37243981  0.60030802  0.00036284
   0.43911609  0.73363786  0.00049419
   0.57246936  0.40032050  0.00033992
   0.63911941  0.53365087  0.00045961
   0.77244572  0.00031543  0.00059616
   0.83911628  0.13364020  0.00057531
   0.77244051  0.20030743  0.00058103
   0.83912024  0.33363573  0.00058547
   0.77244632  0.40029837  0.00058298
   0.83911898  0.53363396  0.00062110
   0.77245614  0.60030817  0.00059571
   0.83911503  0.73364318  0.00063151
   0.97245531  0.80030558  0.00065223
   0.03911471  0.93364329  0.00059805
   0.17245797  0.80031221  0.00062337
   0.23913455  0.93364719  0.00054485
   0.37245140  0.80031667  0.00055140
   0.43912449  0.93364477  0.00054143
   0.57244110  0.80031005  0.00053453
   0.63911507  0.93363899  0.00058764
   0.77244510  0.80031319  0.00060206
   0.83911661  0.93364434  0.00060683
   0.37302101  0.25122688  0.37754973
   0.42087980  0.18931315  0.38012660
   0.32515698  0.31316719  0.37517153
 
 position of ions in cartesian coordinates  (Angst):
  11.98347958  0.00342433  0.01416777
  -0.34154264  1.42664989  0.01100432
   2.12354700  0.00315355  0.01249070
   2.12325634  1.42652621  0.00641170
  10.75098721  2.13818970  0.01213047
  -1.57382270  3.56123457  0.01110375
   0.89078307  2.13853702  0.00547917
   0.89099273  3.56146885  0.00180651
   4.58863896  0.00346260  0.01134782
   4.58893648  1.42622757  0.00645846
   9.51853763  4.27280730  0.01369027
  -2.80632132  5.69591267  0.01433526
   2.12299894  4.27302204  0.00000000
   2.12335237  5.69593607  0.00581036
   7.05344483  0.00333155  0.01398950
   7.05352764  1.42635365  0.01368187
   8.28609598  6.40752033  0.01600723
  -4.03884931  7.83070339  0.01636283
   3.35585531  6.40752662  0.01007237
   3.35598594  7.83071962  0.01319763
  -0.34145776  4.27290193  0.00722612
  -0.34137895  5.69591010  0.00946273
   3.35624236  2.13791198  0.00222492
   3.35573251  3.56155103  0.00139405
  -1.57394684  6.40758280  0.01310850
  -1.57385216  7.83068434  0.01437823
   5.82093107  2.13783916  0.01033241
   5.82114012  3.56096622  0.01155939
   0.89092245  6.40754561  0.00907111
   0.89106251  7.83067670  0.01235474
   4.58870974  4.27292622  0.00849795
   4.58852320  5.69606300  0.01149026
   9.51844972  0.00336679  0.01490402
   9.51855036  1.42644387  0.01438264
   8.28593477  2.13803408  0.01452582
   8.28612680  3.56114872  0.01463668
   7.05356221  4.27268994  0.01457444
   7.05362213  5.69588251  0.01552751
   5.82112285  6.40754723  0.01489279
   5.82101669  7.83073350  0.01578780
   7.05362858  8.54227219  0.01630582
  -5.27148792  9.96548729  0.01495127
  -2.80637951  8.54234295  0.01558431
  -2.80626749  9.96552896  0.01362126
  -0.34148805  8.54239058  0.01378498
  -0.34137657  9.96550309  0.01353576
   2.12342586  8.54231992  0.01336337
   2.12354296  9.96544135  0.01469111
   4.58845581  8.54235337  0.01505154
   4.58852904  9.96549848  0.01517076
   3.04929830  2.68153618  9.43874313
   4.02070129  2.02068374  9.50316499
   2.07766701  3.34267235  9.37928826
 


--------------------------------------------------------------------------------------------------------


 k-point   1 :   0.0000 0.0000 0.0000  plane waves:  236157

 maximum and minimum number of plane-waves per node :    236157   236157

 maximum number of plane-waves:    236157
 maximum index in each direction: 
   IXMAX=   31   IYMAX=   31   IZMAX=   64
   IXMIN=  -31   IYMIN=  -31   IZMIN=  -64


 serial   3D FFT for wavefunctions
 parallel 3D FFT for charge:
    minimum data exchange during FFTs selected (reduces bandwidth)


 total amount of memory used by VASP MPI-rank0   551512. kBytes
=======================================================================

   base      :      30000. kBytes
   nonl-proj :     230539. kBytes
   fftplans  :      40716. kBytes
   grid      :     216018. kBytes
   one-center:        162. kBytes
   wavefun   :      34077. kBytes
 
     INWAV:  cpu time    0.0000: real time    0.0000
 Broyden mixing: mesh for mixing (old mesh)
   NGX = 63   NGY = 63   NGZ =129
  (NGX  =256   NGY  =256   NGZ  =540)
  gives a total of 512001 points

 initial charge density was supplied:
 charge density of overlapping atoms calculated
 number of electron     216.0000000 magnetization 
 keeping initial charge density in first step


--------------------------------------------------------------------------------------------------------


 Maximum index for augmentation-charges          471 (set IRDMAX)


--------------------------------------------------------------------------------------------------------


 First call to EWALD:  gamma=   0.119
 Maximum number of real-space cells 4x 4x 2
 Maximum number of reciprocal cells 2x 2x 4

    FEWALD:  cpu time    0.0023: real time    0.0023


--------------------------------------- Iteration      1(   1)  ---------------------------------------


vdW kernel read from vdw_kernel.bindat
  0.0000  0.2424  0.5071  0.7962  1.1119  1.4567  1.8333  2.2446  2.6937  3.1842
  3.7199  4.3049  4.9438  5.6415  6.4036  7.2358  8.1446  9.1372 10.2212 11.4050
 12.6979 14.1099 15.6519 17.3360 19.1751 21.1837 23.3773 25.7729 28.3892 31.2465
 34.3669 37.7748 41.4965 45.5611 50.0000
 
    POTLOK:  cpu time    8.2924: real time    8.3796
    SETDIJ:  cpu time    0.2189: real time    0.2199
    TRIAL :  cpu time   15.3203: real time   15.4329
    CORREC:  cpu time    0.0005: real time    0.0007
    --------------------------------------------
      LOOP:  cpu time   23.8436: real time   24.0613

 eigenvalue-minimisations  :   336
 total energy-change (2. order) : 0.2639503E+04  (-0.1071919E+05)
 number of electron     216.0000000 magnetization 
 augmentation part      216.0000000 magnetization 

 Free energy of the ion-electron system (eV)
  ---------------------------------------------------
  alpha Z        PSCENC =        47.94900195
  Ewald energy   TEWEN  =     40658.92799854
  -Hartree energ DENC   =    -46728.16613704
  -exchange      EXHF   =         0.00000000
  -V(xc)+E(xc)   XCENC  =       398.24316044
  PAW double counting   =      6564.79108649    -6260.84737255
  entropy T*S    EENTRO =        -0.00000000
  eigenvalues    EBANDS =      -502.47847400
  atomic energy  EATOM  =      8461.08393172
  ---------------------------------------------------
  free energy    TOTEN  =      2639.50319555 eV

  energy without entropy =     2639.50319555  energy(sigma->0) =     2639.50319555


--------------------------------------------------------------------------------------------------------




--------------------------------------- Iteration      1(   2)  ---------------------------------------


    TRIAL :  cpu time   22.9488: real time   23.1464
    CORREC:  cpu time    0.0001: real time    0.0001
    --------------------------------------------
      LOOP:  cpu time   23.0348: real time   23.2458

 eigenvalue-minimisations  :   560
 total energy-change (2. order) :-0.2387204E+04  (-0.2223102E+04)
 number of electron     216.0000000 magnetization 
 augmentation part      216.0000000 magnetization 

 Free energy of the ion-electron system (eV)
  ---------------------------------------------------
  alpha Z        PSCENC =        47.94900195
  Ewald energy   TEWEN  =     40658.92799854
  -Hartree energ DENC   =    -46728.16613704
  -exchange      EXHF   =         0.00000000
  -V(xc)+E(xc)   XCENC  =       398.24316044
  PAW double counting   =      6564.79108649    -6260.84737255
  entropy T*S    EENTRO =        -0.00000000
  eigenvalues    EBANDS =     -2889.68218460
  atomic energy  EATOM  =      8461.08393172
  ---------------------------------------------------
  free energy    TOTEN  =       252.29948495 eV

  energy without entropy =      252.29948495  energy(sigma->0) =      252.29948495


--------------------------------------------------------------------------------------------------------




--------------------------------------- Iteration      1(   3)  ---------------------------------------


    TRIAL :  cpu time   17.1678: real time   17.3207
    CORREC:  cpu time    0.0001: real time    0.0001
    --------------------------------------------
      LOOP:  cpu time   17.2201: real time   17.3783

 eigenvalue-minimisations  :   392
 total energy-change (2. order) :-0.6592413E+03  (-0.6559129E+03)
 number of electron     216.0000000 magnetization 
 augmentation part      216.0000000 magnetization 

 Free energy of the ion-electron system (eV)
  ---------------------------------------------------
  alpha Z        PSCENC =        47.94900195
  Ewald energy   TEWEN  =     40658.92799854
  -Hartree energ DENC   =    -46728.16613704
  -exchange      EXHF   =         0.00000000
  -V(xc)+E(xc)   XCENC  =       398.24316044
  PAW double counting   =      6564.79108649    -6260.84737255
  entropy T*S    EENTRO =        -0.00000000
  eigenvalues    EBANDS =     -3548.92348034
  atomic energy  EATOM  =      8461.08393172
  ---------------------------------------------------
  free energy    TOTEN  =      -406.94181079 eV

  energy without entropy =     -406.94181079  energy(sigma->0) =     -406.94181079


--------------------------------------------------------------------------------------------------------




--------------------------------------- Iteration      1(   4)  ---------------------------------------


    TRIAL :  cpu time   19.1177: real time   19.2726
    CORREC:  cpu time    0.0001: real time    0.0001
    --------------------------------------------
      LOOP:  cpu time   19.1855: real time   19.3459

 eigenvalue-minimisations  :   448
 total energy-change (2. order) :-0.3786410E+02  (-0.3754317E+02)
 number of electron     216.0000000 magnetization 
 augmentation part      216.0000000 magnetization 

 Free energy of the ion-electron system (eV)
  ---------------------------------------------------
  alpha Z        PSCENC =        47.94900195
  Ewald energy   TEWEN  =     40658.92799854
  -Hartree energ DENC   =    -46728.16613704
  -exchange      EXHF   =         0.00000000
  -V(xc)+E(xc)   XCENC  =       398.24316044
  PAW double counting   =      6564.79108649    -6260.84737255
  entropy T*S    EENTRO =        -0.00000000
  eigenvalues    EBANDS =     -3586.78757922
  atomic energy  EATOM  =      8461.08393172
  ---------------------------------------------------
  free energy    TOTEN  =      -444.80590967 eV

  energy without entropy =     -444.80590967  energy(sigma->0) =     -444.80590967


--------------------------------------------------------------------------------------------------------




--------------------------------------- Iteration      1(   5)  ---------------------------------------


    TRIAL :  cpu time   17.1951: real time   17.3174
    CORREC:  cpu time    0.0001: real time    0.0001
    CHARGE:  cpu time    0.8377: real time    0.8436
    --------------------------------------------
      LOOP:  cpu time   18.1073: real time   18.2459

 eigenvalue-minimisations  :   392
 total energy-change (2. order) :-0.1347209E+01  (-0.1344632E+01)
 number of electron     216.0000000 magnetization 
 augmentation part       -0.2242285 magnetization 

 Free energy of the ion-electron system (eV)
  ---------------------------------------------------
  alpha Z        PSCENC =        47.94900195
  Ewald energy   TEWEN  =     40658.92799854
  -Hartree energ DENC   =    -46728.16613704
  -exchange      EXHF   =         0.00000000
  -V(xc)+E(xc)   XCENC  =       398.24316044
  PAW double counting   =      6564.79108649    -6260.84737255
  entropy T*S    EENTRO =        -0.00000000
  eigenvalues    EBANDS =     -3588.13478830
  atomic energy  EATOM  =      8461.08393172
  ---------------------------------------------------
  free energy    TOTEN  =      -446.15311875 eV

  energy without entropy =     -446.15311875  energy(sigma->0) =     -446.15311875


--------------------------------------------------------------------------------------------------------




--------------------------------------- Iteration      1(   6)  ---------------------------------------


    POTLOK:  cpu time    7.8754: real time    7.9278
    SETDIJ:  cpu time    0.3424: real time    0.3437
    TRIAL :  cpu time    6.9158: real time    6.9698
    CORREC:  cpu time    9.7472: real time    9.8163
    CHARGE:  cpu time    0.7999: real time    0.8051
    --------------------------------------------
      LOOP:  cpu time   25.7195: real time   25.9044

 eigenvalue-minimisations  :     0
 total energy-change (2. order) : 0.5512247E+02  (-0.1759407E+02)
 number of electron     216.0000000 magnetization 
 augmentation part       -0.3341929 magnetization 

 Free energy of the ion-electron system (eV)
  ---------------------------------------------------
  alpha Z        PSCENC =        47.94900195
  Ewald energy   TEWEN  =     40658.92799854
  -Hartree energ DENC   =    -48206.91497648
  -exchange      EXHF   =         0.00000000
  -V(xc)+E(xc)   XCENC  =       448.13507572
  PAW double counting   =     71662.40630751   -71366.61480722
  entropy T*S    EENTRO =        -0.00000000
  eigenvalues    EBANDS =     -2096.00318245
  atomic energy  EATOM  =      8461.08393172
  ---------------------------------------------------
  free energy    TOTEN  =      -391.03065071 eV

  energy without entropy =     -391.03065071  energy(sigma->0) =     -391.03065071


--------------------------------------------------------------------------------------------------------




--------------------------------------- Iteration      1(   7)  ---------------------------------------


    POTLOK:  cpu time    7.8802: real time    7.9317
    SETDIJ:  cpu time    0.3426: real time    0.3438
    TRIAL :  cpu time    6.8902: real time    6.9410
    CORREC:  cpu time    9.6929: real time    9.7590
    CHARGE:  cpu time    0.8005: real time    0.8055
    --------------------------------------------
      LOOP:  cpu time   25.6547: real time   25.8302

 eigenvalue-minimisations  :     0
 total energy-change (2. order) :-0.1764141E+02  (-0.1996584E+01)
 number of electron     216.0000000 magnetization 
 augmentation part       -0.3819547 magnetization 

 Free energy of the ion-electron system (eV)
  ---------------------------------------------------
  alpha Z        PSCENC =        47.94900195
  Ewald energy   TEWEN  =     40658.92799854
  -Hartree energ DENC   =    -47675.09185488
  -exchange      EXHF   =         0.00000000
  -V(xc)+E(xc)   XCENC  =       430.21389028
  PAW double counting   =     86607.60106939   -86308.58035086
  entropy T*S    EENTRO =        -0.00000000
  eigenvalues    EBANDS =     -2630.77574459
  atomic energy  EATOM  =      8461.08393172
  ---------------------------------------------------
  free energy    TOTEN  =      -408.67205845 eV

  energy without entropy =     -408.67205845  energy(sigma->0) =     -408.67205845


--------------------------------------------------------------------------------------------------------




--------------------------------------- Iteration      1(   8)  ---------------------------------------


    POTLOK:  cpu time    7.8905: real time    7.9461
    SETDIJ:  cpu time    0.3162: real time    0.3173
    TRIAL :  cpu time    6.8928: real time    6.9453
    CORREC:  cpu time    9.6962: real time    9.7643
    CHARGE:  cpu time    0.7987: real time    0.8038
    --------------------------------------------
      LOOP:  cpu time   25.6653: real time   25.8652

 eigenvalue-minimisations  :     0
 total energy-change (2. order) :-0.1995592E+01  (-0.5755441E+00)
 number of electron     216.0000000 magnetization 
 augmentation part       -0.3961411 magnetization 

 Free energy of the ion-electron system (eV)
  ---------------------------------------------------
  alpha Z        PSCENC =        47.94900195
  Ewald energy   TEWEN  =     40658.92799854
  -Hartree energ DENC   =    -47645.78177875
  -exchange      EXHF   =         0.00000000
  -V(xc)+E(xc)   XCENC  =       429.58408150
  PAW double counting   =     90908.42232877   -90608.96571809
  entropy T*S    EENTRO =        -0.00000000
  eigenvalues    EBANDS =     -2661.88749620
  atomic energy  EATOM  =      8461.08393172
  ---------------------------------------------------
  free energy    TOTEN  =      -410.66765057 eV

  energy without entropy =     -410.66765057  energy(sigma->0) =     -410.66765057


--------------------------------------------------------------------------------------------------------




--------------------------------------- Iteration      1(   9)  ---------------------------------------


    POTLOK:  cpu time    7.8768: real time    7.9310
    SETDIJ:  cpu time    0.3299: real time    0.3311
    TRIAL :  cpu time    6.8896: real time    6.9419
    CORREC:  cpu time    9.7303: real time    9.7959
    CHARGE:  cpu time    0.7986: real time    0.8045
    --------------------------------------------
      LOOP:  cpu time   25.6793: real time   25.8598

 eigenvalue-minimisations  :     0
 total energy-change (2. order) :-0.5754198E+00  (-0.2223849E+00)
 number of electron     216.0000000 magnetization 
 augmentation part       -0.4004909 magnetization 

 Free energy of the ion-electron system (eV)
  ---------------------------------------------------
  alpha Z        PSCENC =        47.94900195
  Ewald energy   TEWEN  =     40658.92799854
  -Hartree energ DENC   =    -47658.40735301
  -exchange      EXHF   =         0.00000000
  -V(xc)+E(xc)   XCENC  =       429.67306654
  PAW double counting   =     94069.44763468   -93769.79863015
  entropy T*S    EENTRO =        -0.00000000
  eigenvalues    EBANDS =     -2650.11872063
  atomic energy  EATOM  =      8461.08393172
  ---------------------------------------------------
  free energy    TOTEN  =      -411.24307037 eV

  energy without entropy =     -411.24307037  energy(sigma->0) =     -411.24307037


--------------------------------------------------------------------------------------------------------




--------------------------------------- Iteration      1(  10)  ---------------------------------------


    POTLOK:  cpu time    7.8920: real time    7.9647
    SETDIJ:  cpu time    0.3100: real time    0.3110
    TRIAL :  cpu time    6.8926: real time    6.9500
    CORREC:  cpu time    9.7369: real time    9.8163
    CHARGE:  cpu time    0.7984: real time    0.8044
    --------------------------------------------
      LOOP:  cpu time   25.7053: real time   25.9239

 eigenvalue-minimisations  :     0
 total energy-change (2. order) :-0.2217115E+00  (-0.9908542E-01)
 number of electron     216.0000000 magnetization 
 augmentation part       -0.3973410 magnetization 

 Free energy of the ion-electron system (eV)
  ---------------------------------------------------
  alpha Z        PSCENC =        47.94900195
  Ewald energy   TEWEN  =     40658.92799854
  -Hartree energ DENC   =    -47655.57065431
  -exchange      EXHF   =         0.00000000
  -V(xc)+E(xc)   XCENC  =       429.51308891
  PAW double counting   =     94906.69200282   -94606.92639121
  entropy T*S    EENTRO =        -0.00000000
  eigenvalues    EBANDS =     -2653.13376025
  atomic energy  EATOM  =      8461.08393172
  ---------------------------------------------------
  free energy    TOTEN  =      -411.46478182 eV

  energy without entropy =     -411.46478182  energy(sigma->0) =     -411.46478182


--------------------------------------------------------------------------------------------------------




--------------------------------------- Iteration      1(  11)  ---------------------------------------


    POTLOK:  cpu time    7.8993: real time    7.9642
    SETDIJ:  cpu time    0.2999: real time    0.3009
    TRIAL :  cpu time    6.8881: real time    6.9492
    CORREC:  cpu time    9.7016: real time    9.7791
    CHARGE:  cpu time    0.7970: real time    0.8031
    --------------------------------------------
      LOOP:  cpu time   25.6289: real time   25.8431

 eigenvalue-minimisations  :     0
 total energy-change (2. order) :-0.9862064E-01  (-0.3707139E-01)
 number of electron     216.0000000 magnetization 
 augmentation part       -0.3946281 magnetization 

 Free energy of the ion-electron system (eV)
  ---------------------------------------------------
  alpha Z        PSCENC =        47.94900195
  Ewald energy   TEWEN  =     40658.92799854
  -Hartree energ DENC   =    -47646.85734911
  -exchange      EXHF   =         0.00000000
  -V(xc)+E(xc)   XCENC  =       429.38032408
  PAW double counting   =     94482.32463766   -94182.56133698
  entropy T*S    EENTRO =        -0.00000000
  eigenvalues    EBANDS =     -2661.81061031
  atomic energy  EATOM  =      8461.08393172
  ---------------------------------------------------
  free energy    TOTEN  =      -411.56340246 eV

  energy without entropy =     -411.56340246  energy(sigma->0) =     -411.56340246


--------------------------------------------------------------------------------------------------------




--------------------------------------- Iteration      1(  12)  ---------------------------------------


    POTLOK:  cpu time    7.8790: real time    7.9333
    SETDIJ:  cpu time    0.3117: real time    0.3127
    TRIAL :  cpu time    6.8876: real time    6.9437
    CORREC:  cpu time    9.7252: real time    9.7942
    CHARGE:  cpu time    0.7983: real time    0.8041
    --------------------------------------------
      LOOP:  cpu time   25.6634: real time   25.8504

 eigenvalue-minimisations  :     0
 total energy-change (2. order) :-0.3705682E-01  (-0.1083863E-01)
 number of electron     216.0000000 magnetization 
 augmentation part       -0.3941613 magnetization 

 Free energy of the ion-electron system (eV)
  ---------------------------------------------------
  alpha Z        PSCENC =        47.94900195
  Ewald energy   TEWEN  =     40658.92799854
  -Hartree energ DENC   =    -47642.58722010
  -exchange      EXHF   =         0.00000000
  -V(xc)+E(xc)   XCENC  =       429.29968773
  PAW double counting   =     94023.02156560   -93723.29037975
  entropy T*S    EENTRO =        -0.00000000
  eigenvalues    EBANDS =     -2666.00504496
  atomic energy  EATOM  =      8461.08393172
  ---------------------------------------------------
  free energy    TOTEN  =      -411.60045928 eV

  energy without entropy =     -411.60045928  energy(sigma->0) =     -411.60045928


--------------------------------------------------------------------------------------------------------




--------------------------------------- Iteration      1(  13)  ---------------------------------------


    POTLOK:  cpu time    7.8958: real time    7.9489
    SETDIJ:  cpu time    0.3111: real time    0.3122
    TRIAL :  cpu time    6.8927: real time    6.9483
    CORREC:  cpu time    9.7051: real time    9.7803
    CHARGE:  cpu time    0.8019: real time    0.8080
    --------------------------------------------
      LOOP:  cpu time   25.6509: real time   25.8427

 eigenvalue-minimisations  :     0
 total energy-change (2. order) :-0.1087557E-01  (-0.2870901E-02)
 number of electron     216.0000000 magnetization 
 augmentation part       -0.3939533 magnetization 

 Free energy of the ion-electron system (eV)
  ---------------------------------------------------
  alpha Z        PSCENC =        47.94900195
  Ewald energy   TEWEN  =     40658.92799854
  -Hartree energ DENC   =    -47641.75803151
  -exchange      EXHF   =         0.00000000
  -V(xc)+E(xc)   XCENC  =       429.26895842
  PAW double counting   =     93792.81584712   -93493.09988216
  entropy T*S    EENTRO =        -0.00000000
  eigenvalues    EBANDS =     -2666.79915894
  atomic energy  EATOM  =      8461.08393172
  ---------------------------------------------------
  free energy    TOTEN  =      -411.61133485 eV

  energy without entropy =     -411.61133485  energy(sigma->0) =     -411.61133485


--------------------------------------------------------------------------------------------------------




--------------------------------------- Iteration      1(  14)  ---------------------------------------


    POTLOK:  cpu time    7.8745: real time    7.9405
    SETDIJ:  cpu time    0.3215: real time    0.3228
    TRIAL :  cpu time    6.8873: real time    6.9497
    CORREC:  cpu time    9.6656: real time    9.7428
    CHARGE:  cpu time    0.7957: real time    0.8007
    --------------------------------------------
      LOOP:  cpu time   25.5841: real time   25.7988

 eigenvalue-minimisations  :     0
 total energy-change (2. order) :-0.2891620E-02  (-0.8002908E-03)
 number of electron     216.0000000 magnetization 
 augmentation part       -0.3939241 magnetization 

 Free energy of the ion-electron system (eV)
  ---------------------------------------------------
  alpha Z        PSCENC =        47.94900195
  Ewald energy   TEWEN  =     40658.92799854
  -Hartree energ DENC   =    -47641.57362969
  -exchange      EXHF   =         0.00000000
  -V(xc)+E(xc)   XCENC  =       429.25910046
  PAW double counting   =     93744.94570440   -93445.23536077
  entropy T*S    EENTRO =        -0.00000000
  eigenvalues    EBANDS =     -2666.97097308
  atomic energy  EATOM  =      8461.08393172
  ---------------------------------------------------
  free energy    TOTEN  =      -411.61422647 eV

  energy without entropy =     -411.61422647  energy(sigma->0) =     -411.61422647


--------------------------------------------------------------------------------------------------------




--------------------------------------- Iteration      1(  15)  ---------------------------------------


    POTLOK:  cpu time    7.8979: real time    7.9520
    SETDIJ:  cpu time    0.3117: real time    0.3128
    TRIAL :  cpu time    6.8928: real time    6.9498
    CORREC:  cpu time    9.7297: real time    9.8029
    CHARGE:  cpu time    0.7973: real time    0.8025
    --------------------------------------------
      LOOP:  cpu time   25.6573: real time   25.8643

 eigenvalue-minimisations  :     0
 total energy-change (2. order) :-0.8110271E-03  (-0.2625874E-03)
 number of electron     216.0000000 magnetization 
 augmentation part       -0.3938744 magnetization 

 Free energy of the ion-electron system (eV)
  ---------------------------------------------------
  alpha Z        PSCENC =        47.94900195
  Ewald energy   TEWEN  =     40658.92799854
  -Hartree energ DENC   =    -47641.39837460
  -exchange      EXHF   =         0.00000000
  -V(xc)+E(xc)   XCENC  =       429.25049173
  PAW double counting   =     93739.82294145   -93440.11320565
  entropy T*S    EENTRO =        -0.00000000
  eigenvalues    EBANDS =     -2667.13782264
  atomic energy  EATOM  =      8461.08393172
  ---------------------------------------------------
  free energy    TOTEN  =      -411.61503750 eV

  energy without entropy =     -411.61503750  energy(sigma->0) =     -411.61503750


--------------------------------------------------------------------------------------------------------




--------------------------------------- Iteration      1(  16)  ---------------------------------------


    POTLOK:  cpu time    7.8871: real time    7.9402
    SETDIJ:  cpu time    0.3372: real time    0.3385
    TRIAL :  cpu time    6.8874: real time    6.9406
    CORREC:  cpu time    9.7053: real time    9.7728
    CHARGE:  cpu time    0.7970: real time    0.8021
    --------------------------------------------
      LOOP:  cpu time   25.6491: real time   25.8323

 eigenvalue-minimisations  :     0
 total energy-change (2. order) :-0.2700296E-03  (-0.1117822E-03)
 number of electron     216.0000000 magnetization 
 augmentation part       -0.3937878 magnetization 

 Free energy of the ion-electron system (eV)
  ---------------------------------------------------
  alpha Z        PSCENC =        47.94900195
  Ewald energy   TEWEN  =     40658.92799854
  -Hartree energ DENC   =    -47641.50420103
  -exchange      EXHF   =         0.00000000
  -V(xc)+E(xc)   XCENC  =       429.25230889
  PAW double counting   =     93719.09146890   -93419.38203447
  entropy T*S    EENTRO =        -0.00000000
  eigenvalues    EBANDS =     -2667.03378203
  atomic energy  EATOM  =      8461.08393172
  ---------------------------------------------------
  free energy    TOTEN  =      -411.61530753 eV

  energy without entropy =     -411.61530753  energy(sigma->0) =     -411.61530753


--------------------------------------------------------------------------------------------------------




--------------------------------------- Iteration      1(  17)  ---------------------------------------


    POTLOK:  cpu time    7.8847: real time    7.9391
    SETDIJ:  cpu time    0.2970: real time    0.2980
    TRIAL :  cpu time    6.8917: real time    6.9459
    CORREC:  cpu time    9.7014: real time    9.7830
    CHARGE:  cpu time    0.7997: real time    0.8049
    --------------------------------------------
      LOOP:  cpu time   25.6012: real time   25.8378

 eigenvalue-minimisations  :     0
 total energy-change (2. order) :-0.1160900E-03  (-0.4813405E-04)
 number of electron     216.0000000 magnetization 
 augmentation part       -0.3938161 magnetization 

 Free energy of the ion-electron system (eV)
  ---------------------------------------------------
  alpha Z        PSCENC =        47.94900195
  Ewald energy   TEWEN  =     40658.92799854
  -Hartree energ DENC   =    -47641.69377708
  -exchange      EXHF   =         0.00000000
  -V(xc)+E(xc)   XCENC  =       429.25860733
  PAW double counting   =     93699.75681399   -93400.04778340
  entropy T*S    EENTRO =        -0.00000000
  eigenvalues    EBANDS =     -2666.85021668
  atomic energy  EATOM  =      8461.08393172
  ---------------------------------------------------
  free energy    TOTEN  =      -411.61542362 eV

  energy without entropy =     -411.61542362  energy(sigma->0) =     -411.61542362


--------------------------------------------------------------------------------------------------------




--------------------------------------- Iteration      1(  18)  ---------------------------------------


    POTLOK:  cpu time    7.8972: real time    7.9596
    SETDIJ:  cpu time    0.2758: real time    0.2767
    TRIAL :  cpu time    6.8777: real time    6.9366
    CORREC:  cpu time    9.7640: real time    9.8307
    CHARGE:  cpu time    0.8016: real time    0.8068
    --------------------------------------------
      LOOP:  cpu time   25.6534: real time   25.8755

 eigenvalue-minimisations  :     0
 total energy-change (2. order) :-0.5073620E-04  (-0.2025880E-04)
 number of electron     216.0000000 magnetization 
 augmentation part       -0.3938420 magnetization 

 Free energy of the ion-electron system (eV)
  ---------------------------------------------------
  alpha Z        PSCENC =        47.94900195
  Ewald energy   TEWEN  =     40658.92799854
  -Hartree energ DENC   =    -47641.70980350
  -exchange      EXHF   =         0.00000000
  -V(xc)+E(xc)   XCENC  =       429.25848437
  PAW double counting   =     93698.29244493   -93398.58256416
  entropy T*S    EENTRO =        -0.00000000
  eigenvalues    EBANDS =     -2666.83496821
  atomic energy  EATOM  =      8461.08393172
  ---------------------------------------------------
  free energy    TOTEN  =      -411.61547436 eV

  energy without entropy =     -411.61547436  energy(sigma->0) =     -411.61547436


--------------------------------------------------------------------------------------------------------




--------------------------------------- Iteration      1(  19)  ---------------------------------------


    POTLOK:  cpu time    7.8742: real time    7.9305
    SETDIJ:  cpu time    0.3677: real time    0.3689
    TRIAL :  cpu time    6.8722: real time    6.9383
    CORREC:  cpu time    9.6855: real time    9.7563
    CHARGE:  cpu time    0.7985: real time    0.8047
    --------------------------------------------
      LOOP:  cpu time   25.6423: real time   25.8583

 eigenvalue-minimisations  :     0
 total energy-change (2. order) :-0.2128062E-04  (-0.8090193E-05)
 number of electron     216.0000000 magnetization 
 augmentation part       -0.3938694 magnetization 

 Free energy of the ion-electron system (eV)
  ---------------------------------------------------
  alpha Z        PSCENC =        47.94900195
  Ewald energy   TEWEN  =     40658.92799854
  -Hartree energ DENC   =    -47641.75460440
  -exchange      EXHF   =         0.00000000
  -V(xc)+E(xc)   XCENC  =       429.26012546
  PAW double counting   =     93706.74042085   -93407.03028138
  entropy T*S    EENTRO =        -0.00000000
  eigenvalues    EBANDS =     -2666.79208838
  atomic energy  EATOM  =      8461.08393172
  ---------------------------------------------------
  free energy    TOTEN  =      -411.61549564 eV

  energy without entropy =     -411.61549564  energy(sigma->0) =     -411.61549564


--------------------------------------------------------------------------------------------------------




--------------------------------------- Iteration      1(  20)  ---------------------------------------


    POTLOK:  cpu time    7.8661: real time    7.9258
    SETDIJ:  cpu time    0.3194: real time    0.3205
    TRIAL :  cpu time    6.8885: real time    6.9456
    CORREC:  cpu time    9.7501: real time    9.8192
    CHARGE:  cpu time    0.7994: real time    0.8051
    --------------------------------------------
      LOOP:  cpu time   25.6761: real time   25.8714

 eigenvalue-minimisations  :     0
 total energy-change (2. order) :-0.8322197E-05  (-0.2843263E-05)
 number of electron     216.0000000 magnetization 
 augmentation part       -0.3938715 magnetization 

 Free energy of the ion-electron system (eV)
  ---------------------------------------------------
  alpha Z        PSCENC =        47.94900195
  Ewald energy   TEWEN  =     40658.92799854
  -Hartree energ DENC   =    -47641.77210704
  -exchange      EXHF   =         0.00000000
  -V(xc)+E(xc)   XCENC  =       429.26043834
  PAW double counting   =     93714.72498398   -93415.01469487
  entropy T*S    EENTRO =        -0.00000000
  eigenvalues    EBANDS =     -2666.77505658
  atomic energy  EATOM  =      8461.08393172
  ---------------------------------------------------
  free energy    TOTEN  =      -411.61550396 eV

  energy without entropy =     -411.61550396  energy(sigma->0) =     -411.61550396


--------------------------------------------------------------------------------------------------------




--------------------------------------- Iteration      1(  21)  ---------------------------------------


    POTLOK:  cpu time    7.8474: real time    7.9057
    SETDIJ:  cpu time    0.3573: real time    0.3586
    TRIAL :  cpu time    6.8871: real time    6.9383
    CORREC:  cpu time    9.6871: real time    9.7549
    CHARGE:  cpu time    0.7986: real time    0.8039
    --------------------------------------------
      LOOP:  cpu time   25.6788: real time   25.8662

 eigenvalue-minimisations  :     0
 total energy-change (2. order) :-0.2887056E-05  (-0.1362969E-05)
 number of electron     216.0000000 magnetization 
 augmentation part       -0.3938607 magnetization 

 Free energy of the ion-electron system (eV)
  ---------------------------------------------------
  alpha Z        PSCENC =        47.94900195
  Ewald energy   TEWEN  =     40658.92799854
  -Hartree energ DENC   =    -47641.76437269
  -exchange      EXHF   =         0.00000000
  -V(xc)+E(xc)   XCENC  =       429.26008604
  PAW double counting   =     93717.35124533   -93417.64098218
  entropy T*S    EENTRO =        -0.00000000
  eigenvalues    EBANDS =     -2666.78241554
  atomic energy  EATOM  =      8461.08393172
  ---------------------------------------------------
  free energy    TOTEN  =      -411.61550684 eV

  energy without entropy =     -411.61550684  energy(sigma->0) =     -411.61550684


--------------------------------------------------------------------------------------------------------




--------------------------------------- Iteration      1(  22)  ---------------------------------------


    POTLOK:  cpu time    7.8987: real time    7.9520
    SETDIJ:  cpu time    0.2791: real time    0.2801
    TRIAL :  cpu time    6.8892: real time    6.9401
    CORREC:  cpu time    9.7385: real time    9.8195
    CHARGE:  cpu time    0.7992: real time    0.8053
    --------------------------------------------
      LOOP:  cpu time   25.6561: real time   25.8745

 eigenvalue-minimisations  :     0
 total energy-change (2. order) :-0.1141845E-05  (-0.3947358E-06)
 number of electron     216.0000000 magnetization 
 augmentation part       -0.3938589 magnetization 

 Free energy of the ion-electron system (eV)
  ---------------------------------------------------
  alpha Z        PSCENC =        47.94900195
  Ewald energy   TEWEN  =     40658.92799854
  -Hartree energ DENC   =    -47641.75838864
  -exchange      EXHF   =         0.00000000
  -V(xc)+E(xc)   XCENC  =       429.25980400
  PAW double counting   =     93716.17777588   -93416.46762588
  entropy T*S    EENTRO =        -0.00000000
  eigenvalues    EBANDS =     -2666.78800556
  atomic energy  EATOM  =      8461.08393172
  ---------------------------------------------------
  free energy    TOTEN  =      -411.61550799 eV

  energy without entropy =     -411.61550799  energy(sigma->0) =     -411.61550799


--------------------------------------------------------------------------------------------------------




--------------------------------------- Iteration      1(  23)  ---------------------------------------


    POTLOK:  cpu time    7.9263: real time    7.9933
    SETDIJ:  cpu time    0.3039: real time    0.3050
    TRIAL :  cpu time    6.8852: real time    6.9426
    CORREC:  cpu time    9.6899: real time    9.7583
    CHARGE:  cpu time    0.8073: real time    0.8128
    --------------------------------------------
      LOOP:  cpu time   25.6375: real time   25.8377

 eigenvalue-minimisations  :     0
 total energy-change (2. order) :-0.3648456E-06  (-0.2196085E-06)
 number of electron     216.0000000 magnetization 
 augmentation part       -0.3938625 magnetization 

 Free energy of the ion-electron system (eV)
  ---------------------------------------------------
  alpha Z        PSCENC =        47.94900195
  Ewald energy   TEWEN  =     40658.92799854
  -Hartree energ DENC   =    -47641.74969632
  -exchange      EXHF   =         0.00000000
  -V(xc)+E(xc)   XCENC  =       429.25960494
  PAW double counting   =     93715.00651062   -93415.29640134
  entropy T*S    EENTRO =        -0.00000000
  eigenvalues    EBANDS =     -2666.79645847
  atomic energy  EATOM  =      8461.08393172
  ---------------------------------------------------
  free energy    TOTEN  =      -411.61550835 eV

  energy without entropy =     -411.61550835  energy(sigma->0) =     -411.61550835


--------------------------------------------------------------------------------------------------------




--------------------------------------- Iteration      1(  24)  ---------------------------------------


    POTLOK:  cpu time    7.8718: real time    7.9283
    SETDIJ:  cpu time    0.3176: real time    0.3186
    TRIAL :  cpu time    6.9037: real time    6.9589
    CORREC:  cpu time    9.7024: real time    9.7706
    CHARGE:  cpu time    0.8132: real time    0.8195
    --------------------------------------------
      LOOP:  cpu time   25.6786: real time   25.8719

 eigenvalue-minimisations  :     0
 total energy-change (2. order) :-0.2079469E-06  (-0.2205477E-06)
 number of electron     216.0000000 magnetization 
 augmentation part       -0.3938725 magnetization 

 Free energy of the ion-electron system (eV)
  ---------------------------------------------------
  alpha Z        PSCENC =        47.94900195
  Ewald energy   TEWEN  =     40658.92799854
  -Hartree energ DENC   =    -47641.74526527
  -exchange      EXHF   =         0.00000000
  -V(xc)+E(xc)   XCENC  =       429.25956261
  PAW double counting   =     93714.48674230   -93414.77662823
  entropy T*S    EENTRO =        -0.00000000
  eigenvalues    EBANDS =     -2666.80085218
  atomic energy  EATOM  =      8461.08393172
  ---------------------------------------------------
  free energy    TOTEN  =      -411.61550856 eV

  energy without entropy =     -411.61550856  energy(sigma->0) =     -411.61550856


--------------------------------------------------------------------------------------------------------




--------------------------------------- Iteration      1(  25)  ---------------------------------------


    POTLOK:  cpu time    7.9092: real time    7.9662
    SETDIJ:  cpu time    0.2689: real time    0.2698
    TRIAL :  cpu time    6.8828: real time    6.9362
    CORREC:  cpu time    9.7367: real time    9.8018
    CHARGE:  cpu time    0.7988: real time    0.8039
    --------------------------------------------
      LOOP:  cpu time   25.6301: real time   25.8211

 eigenvalue-minimisations  :     0
 total energy-change (2. order) : 0.8440111E-09  (-0.1744650E-06)
 number of electron     216.0000000 magnetization 
 augmentation part       -0.3938698 magnetization 

 Free energy of the ion-electron system (eV)
  ---------------------------------------------------
  alpha Z        PSCENC =        47.94900195
  Ewald energy   TEWEN  =     40658.92799854
  -Hartree energ DENC   =    -47641.74451656
  -exchange      EXHF   =         0.00000000
  -V(xc)+E(xc)   XCENC  =       429.25959872
  PAW double counting   =     93714.09670746   -93414.38653743
  entropy T*S    EENTRO =        -0.00000000
  eigenvalues    EBANDS =     -2666.80169295
  atomic energy  EATOM  =      8461.08393172
  ---------------------------------------------------
  free energy    TOTEN  =      -411.61550856 eV

  energy without entropy =     -411.61550856  energy(sigma->0) =     -411.61550856


--------------------------------------------------------------------------------------------------------




--------------------------------------- Iteration      1(  26)  ---------------------------------------


    POTLOK:  cpu time    7.8874: real time    7.9411
    SETDIJ:  cpu time    0.3325: real time    0.3341
    TRIAL :  cpu time    6.8921: real time    6.9439
    CORREC:  cpu time    9.7055: real time    9.7697
    CHARGE:  cpu time    0.7994: real time    0.8043
    --------------------------------------------
      LOOP:  cpu time   25.6246: real time   25.8497

 eigenvalue-minimisations  :     0
 total energy-change (2. order) :-0.1691515E-06  (-0.1264001E-06)
 number of electron     216.0000000 magnetization 
 augmentation part       -0.3938650 magnetization 

 Free energy of the ion-electron system (eV)
  ---------------------------------------------------
  alpha Z        PSCENC =        47.94900195
  Ewald energy   TEWEN  =     40658.92799854
  -Hartree energ DENC   =    -47641.74433342
  -exchange      EXHF   =         0.00000000
  -V(xc)+E(xc)   XCENC  =       429.25959108
  PAW double counting   =     93714.06078035   -93414.35062135
  entropy T*S    EENTRO =        -0.00000000
  eigenvalues    EBANDS =     -2666.80185760
  atomic energy  EATOM  =      8461.08393172
  ---------------------------------------------------
  free energy    TOTEN  =      -411.61550873 eV

  energy without entropy =     -411.61550873  energy(sigma->0) =     -411.61550873


--------------------------------------------------------------------------------------------------------




--------------------------------------- Iteration      1(  27)  ---------------------------------------


    POTLOK:  cpu time    7.8759: real time    7.9294
    SETDIJ:  cpu time    0.3277: real time    0.3289
    TRIAL :  cpu time    6.8904: real time    6.9460
    CORREC:  cpu time    9.7246: real time    9.7896
    EDDIAG:  cpu time    1.1061: real time    1.1143
    CHARGE:  cpu time    0.8236: real time    0.8288
    --------------------------------------------
      LOOP:  cpu time   26.7793: real time   26.9683

 eigenvalue-minimisations  :     0
 total energy-change (2. order) : 0.4703179E-07  (-0.9213512E-07)
 number of electron     216.0000000 magnetization 
[...]
      9     -21.5347      2.00000
     10     -19.7050      2.00000
     11     -19.7049      2.00000
     12     -19.7047      2.00000
     13     -19.7040      2.00000
     14     -19.7035      2.00000
     15     -19.7033      2.00000
     16     -18.8142      2.00000
     17     -18.8140      2.00000
     18     -18.8136      2.00000
     19     -18.8134      2.00000
     20     -18.8126      2.00000
     21     -18.8123      2.00000
     22     -16.6712      2.00000
     23     -16.6708      2.00000
     24     -16.6702      2.00000
     25     -16.6700      2.00000
     26     -16.6694      2.00000
     27     -16.6693      2.00000
     28     -15.6776      2.00000
     29     -15.6776      2.00000
     30     -15.6766      2.00000
     31     -15.6764      2.00000
     32     -15.6761      2.00000
     33     -15.6760      2.00000
     34     -14.3392      2.00000
     35     -14.3391      2.00000
     36     -14.3385      2.00000
     37     -14.3384      2.00000
     38     -14.3383      2.00000
     39     -14.3380      2.00000
     40     -12.6123      2.00000
     41     -11.9861      2.00000
     42     -11.9859      2.00000
     43     -11.9854      2.00000
     44     -11.9853      2.00000
     45     -11.9842      2.00000
     46     -11.9840      2.00000
     47     -11.8750      2.00000
     48     -11.8749      2.00000
     49     -11.8742      2.00000
     50     -11.8741      2.00000
     51     -11.8740      2.00000
     52     -11.8738      2.00000
     53     -11.4700      2.00000
     54     -11.3770      2.00000
     55     -11.3769      2.00000
     56     -10.6334      2.00000
     57     -10.5112      2.00000
     58     -10.5110      2.00000
     59     -10.5094      2.00000
     60     -10.5091      2.00000
     61     -10.5089      2.00000
     62     -10.5088      2.00000
     63      -9.5191      2.00000
     64      -9.5179      2.00000
     65      -9.5177      2.00000
     66      -9.5176      2.00000
     67      -9.5175      2.00000
     68      -9.5170      2.00000
     69      -9.2708      2.00000
     70      -9.2695      2.00000
     71      -9.2692      2.00000
     72      -9.2691      2.00000
     73      -9.2689      2.00000
     74      -9.2685      2.00000
     75      -9.2112      2.00000
     76      -9.2109      2.00000
     77      -9.2101      2.00000
     78      -9.2100      2.00000
     79      -9.2098      2.00000
     80      -9.2090      2.00000
     81      -7.8530      2.00000
     82      -7.8529      2.00000
     83      -7.6341      2.00000
     84      -7.6323      2.00000
     85      -7.6322      2.00000
     86      -7.6319      2.00000
     87      -7.6310      2.00000
     88      -7.6309      2.00000
     89      -7.3926      2.00000
     90      -7.3924      2.00000
     91      -7.3922      2.00000
     92      -7.3918      2.00000
     93      -7.3914      2.00000
     94      -7.3911      2.00000
     95      -6.4979      2.00000
     96      -6.4977      2.00000
     97      -6.4975      2.00000
     98      -6.4975      2.00000
     99      -6.4967      2.00000
    100      -6.4965      2.00000
    101      -6.1721      2.00000
    102      -6.1700      2.00000
    103      -4.5200      2.00000
    104      -4.5195      2.00000
    105      -4.5191      2.00000
    106      -4.5190      2.00000
    107      -4.5185      2.00000
    108      -4.5185      2.00000
    109      -1.7240      0.00000
    110      -1.7239      0.00000
    111      -1.7236      0.00000
    112      -1.7235      0.00000
    113      -1.7228      0.00000
    114      -1.7225      0.00000
    115      -0.8939      0.00000
    116      -0.0707      0.00000
    117       0.0794      0.00000
    118       0.1334      0.00000
    119       0.1336      0.00000
    120       0.1339      0.00000
    121       0.1340      0.00000
    122       0.1344      0.00000
    123       0.1354      0.00000
    124       0.1938      0.00000
    125       0.2589      0.00000
    126       0.2950      0.00000
    127       0.5723      0.00000
    128       0.5939      0.00000
    129       0.5952      0.00000
    130       0.6721      0.00000
    131       0.7071      0.00000
    132       0.9661      0.00000
    133       1.0446      0.00000
    134       1.1961      0.00000
    135       1.2130      0.00000
    136       1.2174      0.00000
    137       1.2284      0.00000
    138       1.2436      0.00000
    139       1.2622      0.00000
    140       1.2943      0.00000
    141       1.7090      0.00000
    142       1.7337      0.00000
    143       1.7458      0.00000
    144       1.7689      0.00000
    145       1.8501      0.00000
    146       1.8638      0.00000
    147       1.8640      0.00000
    148       1.8643      0.00000
    149       1.8646      0.00000
    150       1.8648      0.00000
    151       1.8653      0.00000
    152       2.0615      0.00000
    153       2.0858      0.00000
    154       2.1859      0.00000
    155       2.2023      0.00000
    156       2.2181      0.00000
    157       2.2549      0.00000
    158       2.2843      0.00000
    159       2.3477      0.00000
    160       2.3566      0.00000
    161       2.3754      0.00000
    162       2.4361      0.00000
    163       3.0812      0.00000
    164       3.9371      0.00000
    165       4.3558      0.00000
    166       4.4799      0.00000
    167       4.5313      0.00000
    168       4.5566      0.00000


--------------------------------------------------------------------------------------------------------


 soft charge-density along one line, spin component           1
         0         1         2         3         4         5         6         7         8         9
 total charge-density along one line
 
 pseudopotential strength for first ion, spin component:           1
 12.687  21.351   0.000   0.000   0.000   0.000   0.000   0.000
 21.351  35.929   0.000   0.000   0.000   0.000   0.000   0.000
  0.000   0.000  -3.244  -0.000   0.000  -5.814  -0.000   0.000
  0.000   0.000  -0.000  -3.251  -0.000  -0.000  -5.828  -0.000
  0.000   0.000   0.000  -0.000  -3.244   0.000  -0.000  -5.814
  0.000   0.000  -5.814  -0.000   0.000 -10.398  -0.000   0.000
  0.000   0.000  -0.000  -5.828  -0.000  -0.000 -10.422  -0.000
  0.000   0.000   0.000  -0.000  -5.814   0.000  -0.000 -10.398
 total augmentation occupancy for first ion, spin component:           1
  6.917  -2.317  -0.000  -0.002  -0.000   0.000   0.001   0.000
 -2.317   0.818   0.000   0.001   0.000  -0.000  -0.000  -0.000
 -0.000   0.000   6.628  -0.007   0.000  -2.167   0.003  -0.000
 -0.002   0.001  -0.007   2.819  -0.000   0.003  -0.689   0.000
 -0.000   0.000   0.000  -0.000   6.627  -0.000   0.000  -2.167
  0.000  -0.000  -2.167   0.003  -0.000   0.725  -0.001   0.000
  0.001  -0.000   0.003  -0.689   0.000  -0.001   0.176  -0.000
  0.000  -0.000  -0.000   0.000  -2.167   0.000  -0.000   0.724


------------------------ aborting loop because EDIFF is reached ----------------------------------------


    FORLOC:  cpu time    0.1364: real time    0.1373
    FORNL :  cpu time    3.5908: real time    3.6183
    FORCOR:  cpu time    7.9287: real time    7.9842
    OFIELD:  cpu time    0.0029: real time    0.0029

 VOLUME and BASIS-vectors are now :
 -----------------------------------------------------------------------------
  energy-cutoff  :     1000.00
  volume of cell :     3288.85
      direct lattice vectors                 reciprocal lattice vectors
    12.325000000  0.000000000  0.000000000     0.081135903  0.046843835  0.000000000
    -6.162500000 10.673763102  0.000000000     0.000000000  0.093687670  0.000000000
     0.000000000  0.000000000 25.000000000     0.000000000  0.000000000  0.040000000

  length of vectors
    12.325000000 12.325000000 25.000000000     0.093687670  0.093687670  0.040000000


 FORCES acting on ions:
    Electron-Ion                     Ewald-Force                    Non-Local-Force
 -----------------------------------------------------------------------------------------------
   0.339E+00 0.313E+00 0.101E+02   -.339E+00 -.314E+00 -.101E+02   0.393E-02 -.622E-03 0.576E-02
   0.461E+00 0.299E+00 0.109E+02   -.464E+00 -.296E+00 -.109E+02   0.213E-02 -.280E-02 -.589E-02
   0.181E+00 0.498E+00 0.107E+02   -.183E+00 -.498E+00 -.107E+02   -.130E-03 0.109E-01 -.227E-02
   0.229E+00 0.344E+00 0.126E+02   -.226E+00 -.343E+00 -.126E+02   0.112E-01 0.557E-03 -.171E-01
   0.412E+00 0.122E+00 0.106E+02   -.410E+00 -.123E+00 -.106E+02   -.111E-02 -.489E-02 0.425E-02
   0.422E+00 -.993E-01 0.107E+02   -.424E+00 0.101E+00 -.107E+02   -.651E-02 0.358E-02 -.157E-02
   0.420E+00 0.246E+00 0.128E+02   -.420E+00 -.247E+00 -.128E+02   0.109E-01 -.186E-01 -.741E-02
   0.465E+00 -.114E+00 0.140E+02   -.468E+00 0.116E+00 -.139E+02   -.793E-02 -.469E-02 -.604E-02
   -.201E+00 0.544E+00 0.111E+02   0.204E+00 -.547E+00 -.111E+02   0.760E-03 -.135E-01 -.508E-02
   -.213E+00 0.208E+00 0.130E+02   0.213E+00 -.209E+00 -.129E+02   -.247E-01 0.140E-01 0.118E-02
   0.109E+00 -.104E+00 0.100E+02   -.106E+00 0.104E+00 -.101E+02   0.397E-02 -.268E-02 0.123E-02
   0.122E+00 -.952E-01 0.993E+01   -.123E+00 0.956E-01 -.993E+01   -.609E-02 0.312E-02 0.712E-02
   0.560E-01 -.333E+00 0.147E+02   -.554E-01 0.334E+00 -.146E+02   0.255E-01 -.685E-02 -.340E-02
   0.445E-01 -.587E+00 0.124E+02   -.477E-01 0.589E+00 -.123E+02   0.285E-02 0.740E-02 -.161E-01
   -.400E+00 0.235E+00 0.102E+02   0.402E+00 -.237E+00 -.102E+02   0.750E-02 -.413E-02 0.872E-02
   -.478E+00 0.107E+00 0.102E+02   0.477E+00 -.107E+00 -.102E+02   -.881E-03 0.464E-02 -.401E-02
   -.618E-01 -.308E-01 0.952E+01   0.641E-01 0.293E-01 -.952E+01   0.518E-03 0.802E-04 0.232E-02
   0.373E-01 0.231E+00 0.953E+01   -.372E-01 -.231E+00 -.954E+01   -.240E-02 0.119E-02 0.933E-02
   -.116E+00 -.533E+00 0.111E+02   0.116E+00 0.534E+00 -.111E+02   0.539E-02 -.104E-02 0.341E-04
   -.720E-01 -.337E+00 0.102E+02   0.695E-01 0.337E+00 -.102E+02   -.677E-03 -.437E-03 -.473E-03
   0.532E+00 -.208E+00 0.118E+02   -.531E+00 0.208E+00 -.118E+02   -.248E-02 -.160E-02 -.155E-01
   0.397E+00 -.312E+00 0.112E+02   -.399E+00 0.313E+00 -.112E+02   -.698E-02 0.549E-02 -.568E-03
   -.785E-01 0.123E+00 0.143E+02   0.744E-01 -.121E+00 -.143E+02   -.993E-02 0.101E-01 -.167E-02
   -.141E+00 -.198E+00 0.143E+02   0.143E+00 0.196E+00 -.143E+02   0.118E-01 -.142E-01 -.132E-01
   0.205E+00 -.744E-01 0.101E+02   -.203E+00 0.731E-01 -.101E+02   0.381E-02 -.269E-02 -.184E-02
   0.759E-01 0.167E+00 0.995E+01   -.765E-01 -.166E+00 -.995E+01   -.446E-02 0.295E-02 0.679E-02
   -.562E+00 0.765E-02 0.115E+02   0.565E+00 -.939E-02 -.115E+02   0.127E-01 0.723E-02 -.265E-02
   -.481E+00 -.225E+00 0.110E+02   0.482E+00 0.225E+00 -.110E+02   -.763E-02 0.877E-02 -.853E-04
   0.191E+00 -.441E+00 0.112E+02   -.190E+00 0.441E+00 -.112E+02   0.355E-02 0.263E-02 -.554E-02
   0.252E-01 -.189E+00 0.103E+02   -.271E-01 0.191E+00 -.103E+02   -.496E-02 0.245E-02 -.885E-03
   -.348E+00 -.323E+00 0.118E+02   0.345E+00 0.324E+00 -.118E+02   -.112E-01 -.755E-02 -.147E-01
   -.265E+00 -.521E+00 0.108E+02   0.267E+00 0.520E+00 -.108E+02   0.600E-03 -.458E-03 0.977E-03
   0.869E-02 0.130E+00 0.980E+01   -.809E-02 -.131E+00 -.981E+01   0.437E-02 -.436E-02 0.803E-02
   0.634E-01 0.958E-01 0.990E+01   -.660E-01 -.949E-01 -.990E+01   -.252E-02 0.463E-02 -.588E-04
   -.253E+00 0.508E-01 0.997E+01   0.256E+00 -.517E-01 -.998E+01   0.430E-02 -.249E-02 0.718E-02
   -.216E+00 -.112E+00 0.992E+01   0.215E+00 0.113E+00 -.992E+01   -.317E-02 0.201E-02 0.471E-02
   -.397E+00 -.237E+00 0.999E+01   0.399E+00 0.235E+00 -.999E+01   0.101E-03 0.787E-03 0.337E-02
   -.268E+00 -.223E+00 0.975E+01   0.268E+00 0.224E+00 -.975E+01   -.316E-02 0.120E-02 0.886E-02
   -.254E+00 -.314E+00 0.987E+01   0.254E+00 0.315E+00 -.988E+01   -.249E-02 0.457E-03 0.411E-02
   -.352E-01 -.980E-01 0.966E+01   0.363E-01 0.975E-01 -.966E+01   0.170E-02 0.786E-03 0.695E-02
   0.102E+00 0.240E+00 0.956E+01   -.103E+00 -.240E+00 -.957E+01   -.375E-02 0.127E-02 0.644E-02
   0.301E+00 0.427E+00 0.995E+01   -.300E+00 -.428E+00 -.996E+01   -.104E-02 -.122E-02 0.678E-02
   0.453E-01 0.387E+00 0.969E+01   -.427E-01 -.388E+00 -.970E+01   0.510E-03 -.225E-04 0.254E-02
   0.192E-01 0.546E+00 0.104E+02   -.191E-01 -.547E+00 -.104E+02   -.730E-02 0.977E-03 0.477E-02
   -.808E-01 0.142E+00 0.101E+02   0.825E-01 -.143E+00 -.101E+02   0.422E-02 -.320E-02 0.287E-02
   -.252E+00 0.357E+00 0.103E+02   0.251E+00 -.357E+00 -.103E+02   -.522E-02 -.365E-03 -.261E-03
   -.100E+00 -.178E+00 0.102E+02   0.101E+00 0.177E+00 -.102E+02   0.548E-02 -.101E-02 0.701E-02
   -.164E+00 0.521E-01 0.978E+01   0.162E+00 -.514E-01 -.978E+01   -.382E-02 0.322E-02 -.187E-02
   0.331E-02 -.100E+00 0.977E+01   -.315E-02 0.100E+00 -.977E+01   0.370E-02 -.285E-02 0.569E-02
   0.165E+00 0.124E+00 0.972E+01   -.167E+00 -.122E+00 -.973E+01   -.103E-02 0.185E-02 0.341E-02
   -.468E-02 0.300E-01 -.134E+03   0.529E-03 -.264E-01 0.134E+03   -.285E-02 0.194E-02 0.862E-04
   -.229E+03 0.156E+03 -.214E+03   0.279E+03 -.190E+03 0.217E+03   -.513E+02 0.349E+02 -.344E+01
   0.229E+03 -.156E+03 -.192E+03   -.279E+03 0.190E+03 0.189E+03   0.513E+02 -.349E+02 0.310E+01
 -----------------------------------------------------------------------------------------------
   -.742E-02 0.139E-01 0.343E+00   0.114E-12 -.114E-12 0.341E-12   0.739E-02 -.140E-01 -.342E+00
 
 
 POSITION                                       TOTAL-FORCE (eV/Angst)
 -----------------------------------------------------------------------------------
     11.98348      0.00342      0.01417         0.003275     -0.001747     -0.000940
     -0.34154      1.42665      0.01100        -0.000556      0.000016     -0.003599
      2.12355      0.00315      0.01249        -0.001925      0.010963     -0.006525
      2.12326      1.42653      0.00641         0.013718      0.001288     -0.008497
     10.75099      2.13819      0.01213         0.000587     -0.005774     -0.000090
     -1.57382      3.56123      0.01110        -0.008957      0.004636     -0.001527
      0.89078      2.13854      0.00548         0.009800     -0.019236      0.002213
      0.89099      3.56147      0.00181        -0.011566     -0.002556      0.011711
      4.58864      0.00346      0.01135         0.003521     -0.015546     -0.003786
      4.58894      1.42623      0.00646        -0.023739      0.013421      0.013507
      9.51854      4.27281      0.01369         0.006521     -0.003041      0.000180
     -2.80632      5.69591      0.01434        -0.006626      0.003425      0.000769
      2.12300      4.27302      0.00000         0.025258     -0.005183      0.020277
      2.12335      5.69594      0.00581        -0.000490      0.008919     -0.002757
      7.05344      0.00333      0.01399         0.009282     -0.005246     -0.000245
      7.05353      1.42635      0.01368        -0.001819      0.004988     -0.003657
      8.28610      6.40752      0.01601         0.002821     -0.001425     -0.000742
     -4.03885      7.83070      0.01636        -0.002282      0.000921     -0.000035
      3.35586      6.40753      0.01007         0.005664      0.000492     -0.001335
      3.35599      7.83072      0.01320        -0.003104     -0.000060     -0.000726
     -0.34146      4.27290      0.00723        -0.001692     -0.001536     -0.004592
     -0.34138      5.69591      0.00946        -0.009098      0.006510     -0.001064
      3.35624      2.13791      0.00222        -0.013925      0.012088      0.015700
      3.35573      3.56155      0.00139         0.013843     -0.016158      0.008311
     -1.57395      6.40758      0.01311         0.005310     -0.003903     -0.000656
     -1.57385      7.83068      0.01438        -0.004925      0.003825      0.000071
      5.82093      2.13784      0.01033         0.015737      0.005190     -0.003177
      5.82114      3.56097      0.01156        -0.006560      0.008706     -0.003960
      0.89092      6.40755      0.00907         0.004708      0.002217     -0.002307
      0.89106      7.83068      0.01235        -0.006760      0.003915      0.000275
      4.58871      4.27293      0.00850        -0.013230     -0.006386     -0.010995
      4.58852      5.69606      0.01149         0.002093     -0.001445     -0.004087
      9.51845      0.00337      0.01490         0.004859     -0.004678      0.000230
      9.51855      1.42644      0.01438        -0.005124      0.005368     -0.000298
      8.28593      2.13803      0.01453         0.006778     -0.003338      0.000642
      8.28613      3.56115      0.01464        -0.004462      0.002259      0.000012
      7.05356      4.27269      0.01457         0.002487     -0.001123     -0.000517
      7.05362      5.69588      0.01553        -0.002579      0.001606     -0.000017
      5.82112      6.40755      0.01489        -0.003101      0.001600     -0.000027
      5.82102      7.83073      0.01579         0.002794      0.000187     -0.000221
      7.05363      8.54227      0.01631        -0.004725      0.001363      0.001116
     -5.27149      9.96549      0.01495         0.000381     -0.001978     -0.002063
     -2.80638      8.54234      0.01558         0.003076     -0.001278     -0.001102
     -2.80627      9.96553      0.01362        -0.007011     -0.000005     -0.003746
     -0.34149      8.54239      0.01378         0.005728     -0.004920      0.000227
     -0.34138      9.96550      0.01354        -0.005951      0.000011     -0.001133
      2.12343      8.54232      0.01336         0.005974     -0.001585      0.000729
      2.12354      9.96544      0.01469        -0.005082      0.003781     -0.001814
      4.58846      8.54235      0.01505         0.003762     -0.002785      0.001057
      4.58853      9.96550      0.01517        -0.002649      0.003300      0.000198
      3.04930      2.68154      9.43874        -0.006964      0.005578      0.033948
      4.02070      2.02068      9.50316        -0.662049      0.450046     -0.060207
      2.07767      3.34267      9.37929         0.668975     -0.455688      0.025273
 -----------------------------------------------------------------------------------
    total drift:                               -0.000032     -0.000056      0.000576


--------------------------------------------------------------------------------------------------------



  FREE ENERGIE OF THE ION-ELECTRON SYSTEM (eV)
  ---------------------------------------------------
  free  energy   TOTEN  =      -411.61550868 eV

  energy  without entropy=     -411.61550868  energy(sigma->0) =     -411.61550868
 


--------------------------------------------------------------------------------------------------------


    POTLOK:  cpu time    8.4409: real time    8.5006


--------------------------------------------------------------------------------------------------------


 writing wavefunctions
     LOOP+:  cpu time  717.0260: real time  722.9843
    4ORBIT:  cpu time    0.0000: real time    0.0000

 total amount of memory used by VASP MPI-rank0   551512. kBytes
=======================================================================

   base      :      30000. kBytes
   nonl-proj :     230539. kBytes
   fftplans  :      40716. kBytes
   grid      :     216018. kBytes
   one-center:        162. kBytes
   wavefun   :      34077. kBytes
 
  
  
 General timing and accounting informations for this job:
 ========================================================
  
                  Total CPU time used (sec):      761.800
                            User time (sec):      719.769
                          System time (sec):       42.031
                         Elapsed time (sec):      769.011
  
                   Maximum memory used (kb):     1325584.
                   Average memory used (kb):          N/A
  
                          Minor page faults:       508902
                          Major page faults:           94
                 Voluntary context switches:         3822
