 vasp.6.2.1 16May21 (build Nov 06 2021 14:46:37) complex                        
  
 executed on             LinuxIFC date 2025.04.16  20:53:43
 running on  112 total cores
 distrk:  each k-point on   56 cores,    2 groups
 distr:  one band on NCORE=   1 cores,   56 groups


--------------------------------------------------------------------------------------------------------


 INCAR:
   ALGO = Conjugate
   KPAR = 2
   NCORE = 32
   ISMEAR = 0
   SIGMA = 0.01
   PREC = Accurate
   EDIFF = 1E-7
   ENCUT = 1000
   ISIF = 0
   GGA = BO
   PARAM1 = 0.1833333333
   PARAM2 = 0.2200000000
   LUSE_VDW = .TRUE.
   AGGAC = 0.0000
   LASPH = .TRUE.
   SYMPREC = 1E-7

 POTCAR:    PAW_PBE C_h 06Feb2004                 
 POTCAR:    PAW_PBE O_h 06Feb2004                 
 -----------------------------------------------------------------------------
|                                                                             |
|           W    W    AA    RRRRR   N    N  II  N    N   GGGG   !!!           |
|           W    W   A  A   R    R  NN   N  II  NN   N  G    G  !!!           |
|           W    W  A    A  R    R  N N  N  II  N N  N  G       !!!           |
|           W WW W  AAAAAA  RRRRR   N  N N  II  N  N N  G  GGG   !            |
|           WW  WW  A    A  R   R   N   NN  II  N   NN  G    G                |
|           W    W  A    A  R    R  N    N  II  N    N   GGGG   !!!           |
|                                                                             |
|     The value NCORE = 32 specified in the INCAR file was overwritten,       |
|     because it was not compatible with the 56 processes available:          |
|     NCORE = 1                                                               |
|     was used instead, please check that this makes sense for your           |
|     machine.                                                                |
|                                                                             |
 -----------------------------------------------------------------------------

 -----------------------------------------------------------------------------
|                                                                             |
|           W    W    AA    RRRRR   N    N  II  N    N   GGGG   !!!           |
|           W    W   A  A   R    R  NN   N  II  NN   N  G    G  !!!           |
|           W    W  A    A  R    R  N N  N  II  N N  N  G       !!!           |
|           W WW W  AAAAAA  RRRRR   N  N N  II  N  N N  G  GGG   !            |
|           WW  WW  A    A  R   R   N   NN  II  N   NN  G    G                |
|           W    W  A    A  R    R  N    N  II  N    N   GGGG   !!!           |
|                                                                             |
|     For optimal performance we recommend to set                             |
|       NCORE = 2 up to number-of-cores-per-socket                            |
|     NCORE specifies how many cores store one orbital (NPAR=cpu/NCORE).      |
|     This setting can greatly improve the performance of VASP for DFT.       |
|     The default, NCORE=1 might be grossly inefficient on modern             |
|     multi-core architectures or massively parallel machines. Do your        |
|     own testing! More info at https://www.vasp.at/wiki/index.php/NCORE      |
|     Unfortunately you need to use the default for GW and RPA                |
|     calculations (for HF NCORE is supported but not extensively tested      |
|     yet).                                                                   |
|                                                                             |
 -----------------------------------------------------------------------------

 -----------------------------------------------------------------------------
|                                                                             |
|               ----> ADVICE to this user running VASP <----                  |
|                                                                             |
|     You have switched on vdW-DFT.                                           |
|     This routine was written and supplied by Jiri Klimes. We recommend      |
|     that you carefully read and cite the following publications:            |
|       J. Klimes, D.R. Bowler, A. Michelides                                 |
|          J. Phys.: Cond Matt. 22 022201 (2010)                              |
|       J. Klimes, D.R. Bowler, A. Michelides                                 |
|          Phys. Rev. B. 83, 195131 (2011)                                    |
|     and references therein.                                                 |
|                                                                             |
 -----------------------------------------------------------------------------

 POTCAR:    PAW_PBE C_h 06Feb2004                 
   VRHFIN =C: s2p2                                                                                  
   LEXCH  = PE                                                                                      
   EATOM  =   147.1560 eV,   10.8157 Ry                                                             
                                                                                                    
   TITEL  = PAW_PBE C_h 06Feb2004                                                                   
   LULTRA =        F    use ultrasoft PP ?                                                          
   IUNSCR =        1    unscreen: 0-lin 1-nonlin 2-no                                               
   RPACOR =    0.800    partial core radius                                                         
   POMASS =   12.011; ZVAL   =    4.000    mass and valenz                                          
   RCORE  =    1.100    outmost cutoff radius                                                       
   RWIGS  =    1.630; RWIGS  =    0.863    wigner-seitz radius (au A)                               
   ENMAX  =  700.000; ENMIN  =  500.000 eV                                                          
   ICORE  =        2    local potential                                                             
   LCOR   =        T    correct aug charges                                                         
   LPAW   =        T    paw PP                                                                      
   EAUG   =  946.768                                                                                
   DEXC   =    0.000                                                                                
   RMAX   =    1.128    core radius for proj-oper                                                   
   RAUG   =    1.300    factor for augmentation sphere                                              
   RDEP   =    1.162    radius for radial grids                                                     
   RDEPT  =    1.088    core radius for aug-charge                                                  
                                                                                                    
   Atomic configuration                                                                             
    4 entries                                                                                       
     n  l   j            E        occ.                                                              
     1  0  0.50      -273.3789   2.0000                                                             
     2  0  0.50       -13.7508   2.0000                                                             
     2  1  0.50        -5.2854   2.0000                                                             
     3  2  1.50        -5.4423   0.0000                                                             
   Description                                                                                      
     l       E           TYP  RCUT    TYP  RCUT                                                     
     0    -13.7508458     23  1.100                                                                 
     0     -8.2022199     23  1.100                                                                 
     1     -5.2854383     23  1.100                                                                 
     1      1.1560700     23  1.100                                                                 
     2     -5.4423304      7  1.100                                                                 
  local pseudopotential read in
  partial core-charges read in
  partial kinetic energy density read in
  atomic valenz-charges read in
  non local Contribution for L=           0  read in
    real space projection operators read in
  non local Contribution for L=           0  read in
    real space projection operators read in
  non local Contribution for L=           1  read in
    real space projection operators read in
  non local Contribution for L=           1  read in
    real space projection operators read in
    PAW grid and wavefunctions read in
 
   number of l-projection  operators is LMAX  =           4
   number of lm-projection operators is LMMAX =           8
 
 POTCAR:    PAW_PBE O_h 06Feb2004                 
   VRHFIN =O: s2p4                                                                                  
   LEXCH  = PE                                                                                      
   EATOM  =   432.3788 eV,   31.7789 Ry                                                             
                                                                                                    
   TITEL  = PAW_PBE O_h 06Feb2004                                                                   
   LULTRA =        F    use ultrasoft PP ?                                                          
   IUNSCR =        1    unscreen: 0-lin 1-nonlin 2-no                                               
   RPACOR =    0.800    partial core radius                                                         
   POMASS =   16.000; ZVAL   =    6.000    mass and valenz                                          
   RCORE  =    1.100    outmost cutoff radius                                                       
   RWIGS  =    1.400; RWIGS  =    0.741    wigner-seitz radius (au A)                               
   ENMAX  =  700.000; ENMIN  =  500.000 eV                                                          
   ICORE  =        2    local potential                                                             
   LCOR   =        T    correct aug charges                                                         
   LPAW   =        T    paw PP                                                                      
   EAUG   =  888.804                                                                                
   DEXC   =    0.000                                                                                
   RMAX   =    1.128    core radius for proj-oper                                                   
   RAUG   =    1.300    factor for augmentation sphere                                              
   RDEP   =    1.125    radius for radial grids                                                     
   RDEPT  =    1.088    core radius for aug-charge                                                  
                                                                                                    
   Atomic configuration                                                                             
    4 entries                                                                                       
     n  l   j            E        occ.                                                              
     1  0  0.50      -514.6923   2.0000                                                             
     2  0  0.50       -23.9615   2.0000                                                             
     2  1  0.50        -9.0305   4.0000                                                             
     3  2  1.50        -9.5241   0.0000                                                             
   Description                                                                                      
     l       E           TYP  RCUT    TYP  RCUT                                                     
     0    -23.9615319     23  1.100                                                                 
     0    -25.3221145     23  1.100                                                                 
     1     -9.0304911     23  1.100                                                                 
     1     -5.4802209     23  1.100                                                                 
     2     -9.5240782      7  1.100                                                                 
  local pseudopotential read in
  partial core-charges read in
  partial kinetic energy density read in
  atomic valenz-charges read in
  non local Contribution for L=           0  read in
    real space projection operators read in
  non local Contribution for L=           0  read in
    real space projection operators read in
  non local Contribution for L=           1  read in
    real space projection operators read in
  non local Contribution for L=           1  read in
    real space projection operators read in
    PAW grid and wavefunctions read in
 
   number of l-projection  operators is LMAX  =           4
   number of lm-projection operators is LMMAX =           8
 
 -----------------------------------------------------------------------------
|                                                                             |
|               ----> ADVICE to this user running VASP <----                  |
|                                                                             |
|     You have a (more or less) 'large supercell' and for larger cells it     |
|     might be more efficient to use real-space projection operators.         |
|     Therefore, try LREAL= Auto in the INCAR file.                           |
|     Mind: For very accurate calculation, you might also keep the            |
|     reciprocal projection scheme (i.e. LREAL=.FALSE.).                      |
|                                                                             |
 -----------------------------------------------------------------------------

 -----------------------------------------------------------------------------
|                                                                             |
|               ----> ADVICE to this user running VASP <----                  |
|                                                                             |
|     You enforced a specific xc type in the INCAR file but a different       |
|     type was found in the POTCAR file.                                      |
|     I HOPE YOU KNOW WHAT YOU ARE DOING!                                     |
|                                                                             |
 -----------------------------------------------------------------------------

  PAW_PBE C_h 06Feb2004                 :
 energy of atom  1       EATOM= -147.1560
 kinetic energy error for atom=    0.0031 (will be added to EATOM!!)
  PAW_PBE O_h 06Feb2004                 :
 energy of atom  2       EATOM= -432.3788
 kinetic energy error for atom=    0.0171 (will be added to EATOM!!)
 
 
 POSCAR:  C  O
  positions in cartesian coordinates
  No initial velocities read in
 exchange correlation table for  LEXCH =       42
   RHO(1)=    0.500       N(1)  =     2000
   RHO(2)=  100.500       N(2)  =     4000
 


--------------------------------------------------------------------------------------------------------


 ion  position               nearest neighbor table
   1  0.972  0.000  0.001-  50 1.42   2 1.42  42 1.42
   2  0.039  0.134  0.000-   5 1.42   7 1.42   1 1.42
   3  0.172  0.000  0.000-  42 1.42  44 1.42   4 1.42
   4  0.239  0.134  0.000-   7 1.42   3 1.42  23 1.42
   5  0.972  0.200  0.000-   6 1.42   2 1.42  34 1.42
   6  0.039  0.334  0.000-   5 1.42  21 1.42  11 1.42
   7  0.172  0.200  0.000-   8 1.42   2 1.42   4 1.42
   8  0.239  0.334  0.000-  13 1.42   7 1.42  21 1.42
   9  0.372  0.000  0.000-  10 1.42  44 1.42  46 1.42
  10  0.439  0.134  0.000-  27 1.42   9 1.42  23 1.42
  11  0.972  0.400  0.001-  12 1.42  36 1.42   6 1.42
  12  0.039  0.534  0.001-  25 1.42  11 1.42  17 1.42
  13  0.372  0.400  0.000-   8 1.42  14 1.42  24 1.42
  14  0.439  0.534  0.000-  13 1.42  29 1.42  19 1.42
  15  0.572  0.000  0.001-  46 1.42  16 1.42  48 1.42
  16  0.639  0.134  0.001-  15 1.42  35 1.42  27 1.42
  17  0.972  0.600  0.001-  38 1.42  18 1.42  12 1.42
  18  0.039  0.734  0.001-  43 1.42  41 1.42  17 1.42
  19  0.572  0.600  0.000-  14 1.42  20 1.42  32 1.42
  20  0.639  0.734  0.001-  49 1.42  19 1.42  47 1.42
  21  0.172  0.400  0.000-  22 1.42   8 1.42   6 1.42
  22  0.239  0.534  0.000-  21 1.42  29 1.42  25 1.42
  23  0.372  0.200  0.000-  10 1.42   4 1.42  24 1.42
  24  0.439  0.334  0.000-  13 1.42  31 1.42  23 1.42
  25  0.172  0.600  0.001-  26 1.42  12 1.42  22 1.42
  26  0.239  0.734  0.001-  25 1.42  45 1.42  43 1.42
  27  0.572  0.200  0.000-  10 1.42  28 1.42  16 1.42
  28  0.639  0.334  0.000-  27 1.42  37 1.42  31 1.42
  29  0.372  0.600  0.000-  22 1.42  14 1.42  30 1.42
  30  0.439  0.734  0.000-  47 1.42  29 1.42  45 1.42
  31  0.572  0.400  0.000-  32 1.42  28 1.42  24 1.42
  32  0.639  0.534  0.000-  31 1.42  39 1.42  19 1.42
  33  0.772  0.000  0.001-  34 1.42  48 1.42  50 1.42
  34  0.839  0.134  0.001-  33 1.42   5 1.42  35 1.42
  35  0.772  0.200  0.001-  36 1.42  16 1.42  34 1.42
  36  0.839  0.334  0.001-  35 1.42  11 1.42  37 1.42
  37  0.772  0.400  0.001-  28 1.42  38 1.42  36 1.42
  38  0.839  0.534  0.001-  17 1.42  37 1.42  39 1.42
  39  0.772  0.600  0.001-  40 1.42  38 1.42  32 1.42
  40  0.839  0.734  0.001-  39 1.42  49 1.42  41 1.42
  41  0.972  0.800  0.001-  18 1.42  42 1.42  40 1.42
  42  0.039  0.934  0.001-   3 1.42  41 1.42   1 1.42
  43  0.172  0.800  0.001-  18 1.42  44 1.42  26 1.42
  44  0.239  0.934  0.001-   9 1.42  43 1.42   3 1.42
  45  0.372  0.800  0.001-  26 1.42  46 1.42  30 1.42
  46  0.439  0.934  0.001-  15 1.42  45 1.42   9 1.42
  47  0.572  0.800  0.001-  30 1.42  48 1.42  20 1.42
  48  0.639  0.934  0.001-  47 1.42  33 1.42  15 1.42
  49  0.772  0.800  0.001-  50 1.42  20 1.42  40 1.42
  50  0.839  0.934  0.001-  49 1.42   1 1.42  33 1.42
  51  0.373  0.251  0.300-  52 1.18  53 1.18
  52  0.421  0.189  0.302-  51 1.18
  53  0.325  0.313  0.297-  51 1.18
 
  LATTYP: Found a hexagonal cell.
 ALAT       =    12.3250000000
 C/A-ratio  =     2.0283975659
  
  Lattice vectors:
  
 A1 = (  12.3250000000,   0.0000000000,   0.0000000000)
 A2 = (  -6.1625000000,  10.6737631016,   0.0000000000)
 A3 = (   0.0000000000,   0.0000000000,  25.0000000000)


Analysis of symmetry for initial positions (statically):
=====================================================================
 Subroutine PRICEL returns:
 Original cell was already a primitive cell.
 

 Routine SETGRP: Setting up the symmetry group for a 
 hexagonal supercell.


 Subroutine GETGRP returns: Found  1 space group operations
 (whereof  1 operations were pure point group operations)
 out of a pool of 24 trial point group operations.


The static configuration has the point symmetry C_1 .


Analysis of symmetry for dynamics (positions and initial velocities):
=====================================================================
 Subroutine PRICEL returns:
 Original cell was already a primitive cell.
 

 Routine SETGRP: Setting up the symmetry group for a 
 hexagonal supercell.


 Subroutine GETGRP returns: Found  1 space group operations
 (whereof  1 operations were pure point group operations)
 out of a pool of 24 trial point group operations.


The dynamic configuration has the point symmetry C_1 .


 Subroutine INISYM returns: Found  1 space group operations
 (whereof  1 operations are pure point group operations),
 and found     1 'primitive' translations


----------------------------------------------------------------------------------------

                                     Primitive cell                                     

  volume of cell :    3288.8533

  direct lattice vectors                    reciprocal lattice vectors
    12.325000000  0.000000000  0.000000000     0.081135903  0.046843835  0.000000000
    -6.162500000 10.673763102  0.000000000     0.000000000  0.093687670  0.000000000
     0.000000000  0.000000000 25.000000000     0.000000000  0.000000000  0.040000000

  length of vectors
    12.325000000 12.325000000 25.000000000     0.093687670  0.093687670  0.040000000

  position of ions in fractional coordinates (direct lattice)
     0.972450841  0.000320818  0.000566711
     0.039118382  0.133659505  0.000440173
     0.172443627  0.000295449  0.000499628
     0.239096278  0.133647917  0.000256468
     0.972452058  0.200322012  0.000485219
     0.039128360  0.333643771  0.000444150
     0.172451764  0.200354552  0.000219167
     0.239124359  0.333665720  0.000072260
     0.372465565  0.000324403  0.000453913
     0.439137473  0.133619939  0.000258338
     0.972449824  0.400309362  0.000547611
     0.039124981  0.533636789  0.000573410
     0.372416176  0.400329481  0.000000000
     0.439099602  0.533638981  0.000232414
     0.572443676  0.000312125  0.000559580
     0.639110207  0.133631751  0.000547275
     0.972452703  0.600305653  0.000640289
     0.039124495  0.733640359  0.000654513
     0.572433471  0.600306242  0.000402895
     0.639111888  0.733641879  0.000527905
     0.172454630  0.400318228  0.000289045
     0.239120185  0.533636548  0.000378509
     0.372459750  0.200295993  0.000088997
     0.439107096  0.333673419  0.000055762
     0.172452155  0.600311506  0.000524340
     0.239123371  0.733638574  0.000575129
     0.572431082  0.200289171  0.000413296
     0.639112773  0.333618630  0.000462376
     0.372439808  0.600308022  0.000362844
     0.439116090  0.733637858  0.000494190
     0.572469358  0.400320504  0.000339918
     0.639119408  0.533650873  0.000459610
     0.772445723  0.000315427  0.000596161
     0.839116277  0.133640203  0.000575306
     0.772440513  0.200307432  0.000581033
     0.839120241  0.333635728  0.000585467
     0.772446320  0.400298367  0.000582978
     0.839118980  0.533633964  0.000621100
     0.772456143  0.600308173  0.000595712
     0.839115033  0.733643180  0.000631512
     0.972455313  0.800305582  0.000652233
     0.039114714  0.933643289  0.000598051
     0.172457971  0.800312211  0.000623372
     0.239134551  0.933647193  0.000544850
     0.372451396  0.800316674  0.000551399
     0.439124489  0.933644769  0.000541430
     0.572441101  0.800310054  0.000534535
     0.639115067  0.933638985  0.000587644
     0.772445098  0.800313187  0.000602062
     0.839116614  0.933644338  0.000606830
     0.373021009  0.251226878  0.299661415
     0.420879805  0.189313152  0.302238290
     0.325156981  0.313167186  0.297283220

  ion indices of the primitive-cell ions
   primitive index   ion index
                 1           1
                 2           2
                 3           3
                 4           4
                 5           5
                 6           6
                 7           7
                 8           8
                 9           9
                10          10
                11          11
                12          12
                13          13
                14          14
                15          15
                16          16
                17          17
                18          18
                19          19
                20          20
                21          21
                22          22
                23          23
                24          24
                25          25
                26          26
                27          27
                28          28
                29          29
                30          30
                31          31
                32          32
                33          33
                34          34
                35          35
                36          36
                37          37
                38          38
                39          39
                40          40
                41          41
                42          42
                43          43
                44          44
                45          45
                46          46
                47          47
                48          48
                49          49
                50          50
                51          51
                52          52
                53          53

----------------------------------------------------------------------------------------

 
 
 KPOINTS: auto                                    

Automatic generation of k-mesh.
 Grid dimensions read from file:
 generate k-points for:    1    1    1

 Generating k-lattice:

  Cartesian coordinates                     Fractional coordinates (reciprocal lattice)
     0.081135903  0.046843835  0.000000000     1.000000000 -0.000000000  0.000000000
     0.000000000  0.093687670  0.000000000     0.000000000  1.000000000  0.000000000
     0.000000000  0.000000000  0.040000000     0.000000000  0.000000000  1.000000000

  Length of vectors
     0.093687670  0.093687670  0.040000000

  Shift w.r.t. Gamma in fractional coordinates (k-lattice)
     0.000000000  0.000000000  0.000000000

 
 Subroutine IBZKPT returns following result:
 ===========================================
 
 Found      1 irreducible k-points:
 
 Following reciprocal coordinates:
            Coordinates               Weight
  0.000000  0.000000  0.000000      1.000000
 
 Following cartesian coordinates:
            Coordinates               Weight
  0.000000  0.000000  0.000000      1.000000
 


--------------------------------------------------------------------------------------------------------




 Dimension of arrays:
   k-points           NKPTS =      1   k-points in BZ     NKDIM =      1   number of bands    NBANDS=    168
   number of dos      NEDOS =    301   number of ions     NIONS =     53
   non local maximal  LDIM  =      4   non local SUM 2l+1 LMDIM =      8
   total plane-waves  NPLWV = ******
   max r-space proj   IRMAX =      1   max aug-charges    IRDMAX=  10008
   dimension x,y,z NGX =   128 NGY =  128 NGZ =  270
   dimension x,y,z NGXF=   256 NGYF=  256 NGZF=  540
   support grid    NGXF=   256 NGYF=  256 NGZF=  540
   ions per type =              51   2
   NGX,Y,Z   is equivalent  to a cutoff of  17.27, 17.27, 17.95 a.u.
   NGXF,Y,Z  is equivalent  to a cutoff of  34.53, 34.53, 35.91 a.u.

 SYSTEM =  unknown system                          
 POSCAR =   C  O                                   

 Startparameter for this run:
   NWRITE =      2    write-flag & timer
   PREC   = accura    normal or accurate (medium, high low for compatibility)
   ISTART =      0    job   : 0-new  1-cont  2-samecut
   ICHARG =      2    charge: 1-file 2-atom 10-const
   ISPIN  =      1    spin polarized calculation?
   LNONCOLLINEAR =      F non collinear calculations
   LSORBIT =      F    spin-orbit coupling
   INIWAV =      1    electr: 0-lowe 1-rand  2-diag
   LASPH  =      T    aspherical Exc in radial PAW
 Electronic Relaxation 1
   ENCUT  = 1000.0 eV  73.50 Ry    8.57 a.u.  31.78 31.78 64.46*2*pi/ulx,y,z
   ENINI  = 1000.0     initial cutoff
   ENAUG  =  946.8 eV  augmentation charge cutoff
   NELM   =     60;   NELMIN=  2; NELMDL= -5     # of ELM steps 
   EDIFF  = 0.1E-06   stopping-criterion for ELM
   LREAL  =      F    real-space projection
   NLSPLINE    = F    spline interpolate recip. space projectors
   LCOMPAT=      F    compatible to vasp.4.4
   GGA_COMPAT  = T    GGA compatible to vasp.4.4-vasp.4.6
   LMAXPAW     = -100 max onsite density
   LMAXMIX     =    2 max onsite mixed and CHGCAR
   VOSKOWN=      0    Vosko Wilk Nusair interpolation
   ROPT   =    0.00000   0.00000
 Ionic relaxation
   EDIFFG = 0.1E-05   stopping-criterion for IOM
   NSW    =      0    number of steps for IOM
   NBLOCK =      1;   KBLOCK =      1    inner block; outer block 
   IBRION =     -1    ionic relax: 0-MD 1-quasi-New 2-CG
   NFREE  =      0    steps in history (QN), initial steepest desc. (CG)
   ISIF   =      0    stress and relaxation
   IWAVPR =     10    prediction:  0-non 1-charg 2-wave 3-comb
   ISYM   =      2    0-nonsym 1-usesym 2-fastsym
   LCORR  =      T    Harris-Foulkes like correction to forces

   POTIM  = 0.5000    time-step for ionic-motion
   TEIN   =    0.0    initial temperature
   TEBEG  =    0.0;   TEEND  =   0.0 temperature during run
   SMASS  =  -3.00    Nose mass-parameter (am)
   estimated Nose-frequenzy (Omega)   =  0.10E-29 period in steps = 0.13E+47 mass=  -0.347E-26a.u.
   SCALEE = 1.0000    scale energy and forces
   NPACO  =    256;   APACO  = 16.0  distance and # of slots for P.C.
   PSTRESS=    0.0 pullay stress

  Mass of Ions in am
   POMASS =  12.01 16.00
  Ionic Valenz
   ZVAL   =   4.00  6.00
  Atomic Wigner-Seitz radii
   RWIGS  =  -1.00 -1.00
  virtual crystal weights 
   VCA    =   1.00  1.00
   NELECT =     216.0000    total number of electrons
   NUPDOWN=      -1.0000    fix difference up-down

 DOS related values:
   EMIN   =  10.00;   EMAX   =-10.00  energy-range for DOS
   EFERMI =   0.00
   ISMEAR =     0;   SIGMA  =   0.01  broadening in eV -4-tet -1-fermi 0-gaus

 Electronic relaxation 2 (details)
   IALGO  =     58    algorithm
   LDIAG  =      T    sub-space diagonalisation (order eigenvalues)
   LSUBROT=      F    optimize rotation matrix (better conditioning)
   TURBO    =      0    0=normal 1=particle mesh
   IRESTART =      0    0=no restart 2=restart with 2 vectors
   NREBOOT  =      0    no. of reboots
   NMIN     =      0    reboot dimension
   EREF     =   0.00    reference energy to select bands
   IMIX   =      4    mixing-type and parameters
     AMIX     =   0.40;   BMIX     =  1.00
     AMIX_MAG =   1.60;   BMIX_MAG =  1.00
     AMIN     =   0.10
     WC   =   100.;   INIMIX=   1;  MIXPRE=   1;  MAXMIX= -45

 Intra band minimization:
   WEIMIN = 0.0000     energy-eigenvalue tresh-hold
   EBREAK =  0.15E-09  absolut break condition
   DEPER  =   0.30     relativ break condition  

   TIME   =   0.40     timestep for ELM

  volume/ion in A,a.u.               =      62.05       418.76
  Fermi-wavevector in a.u.,A,eV,Ry     =   0.660508  1.248179  5.935820  0.436270
  Thomas-Fermi vector in A             =   1.732977
 
 Write flags
   LWAVE        =      T    write WAVECAR
   LDOWNSAMPLE  =      F    k-point downsampling of WAVECAR
   LCHARG       =      T    write CHGCAR
   LVTOT        =      F    write LOCPOT, total local potential
   LVHAR        =      F    write LOCPOT, Hartree potential only
   LELF         =      F    write electronic localiz. function (ELF)
   LORBIT       =      0    0 simple, 1 ext, 2 COOP (PROOUT), +10 PAW based schemes


 Dipole corrections
   LMONO  =      F    monopole corrections only (constant potential shift)
   LDIPOL =      F    correct potential (dipole corrections)
   IDIPOL =      0    1-x, 2-y, 3-z, 4-all directions 
   EPSILON=  1.0000000 bulk dielectric constant

 Exchange correlation treatment:
   GGA     =    BO    GGA type
   LEXCH   =    42    internal setting for exchange type
   VOSKOWN=      0    Vosko Wilk Nusair interpolation
   LHFCALC =     F    Hartree Fock is set to
   LHFONE  =     F    Hartree Fock one center treatment
   AEXX    =    0.0000 exact exchange contribution

 vdW DFT:
   LUSE_VDW   =     T    switch on vdW DFT
   Zab_VDW    =-.8491    correlation parameter
   PARAM1     =0.1833
   PARAM2     =0.2200
   PARAM3     =0.0000
   -- rVV10 --
   BPARAM     = 6.3000
   CPARAM     = 0.0093

 Linear response parameters
   LEPSILON=     F    determine dielectric tensor
   LRPA    =     F    only Hartree local field effects (RPA)
   LNABLA  =     F    use nabla operator in PAW spheres
   LVEL    =     F    velocity operator in full k-point grid
   LINTERFAST=   F  fast interpolation
   KINTER  =     0    interpolate to denser k-point grid
   CSHIFT  =0.1000    complex shift for real part using Kramers Kronig
   OMEGAMAX=  -1.0    maximum frequency
   DEG_THRESHOLD= 0.2000000E-02 threshold for treating states as degnerate
   RTIME   =   -0.100 relaxation time in fs
  (WPLASMAI=    0.000 imaginary part of plasma frequency in eV, 0.658/RTIME)
   DFIELD  = 0.0000000 0.0000000 0.0000000 field for delta impulse in time
 
 Orbital magnetization related:
   ORBITALMAG=     F  switch on orbital magnetization
   LCHIMAG   =     F  perturbation theory with respect to B field
   DQ        =  0.001000  dq finite difference perturbation B field
   LLRAUG    =     F  two centre corrections for induced B field



--------------------------------------------------------------------------------------------------------


 Static calculation
 charge density and potential will be updated during run
 non-spin polarized calculation
 Conjugate gradient for all bands (Freysoldt, et al. PRB 79, 241103 (2009))
 preconditioned conjugated gradient                                        
 perform sub-space diagonalisation
    before iterative eigenvector-optimisation
 modified Broyden-mixing scheme, WC =      100.0
 initial mixing is a Kerker type mixing with AMIX =  0.4000 and BMIX =      1.0000
 Hartree-type preconditioning will be used
 using additional bands           60
 reciprocal scheme for non local part
 use partial core corrections
 no Harris-corrections to forces 
 use gradient corrections 
 use of overlap-Matrix (Vanderbilt PP)
 Gauss-broadening in eV      SIGMA  =   0.01


--------------------------------------------------------------------------------------------------------


  energy-cutoff  :     1000.00
  volume of cell :     3288.85
      direct lattice vectors                 reciprocal lattice vectors
    12.325000000  0.000000000  0.000000000     0.081135903  0.046843835  0.000000000
    -6.162500000 10.673763102  0.000000000     0.000000000  0.093687670  0.000000000
     0.000000000  0.000000000 25.000000000     0.000000000  0.000000000  0.040000000

  length of vectors
    12.325000000 12.325000000 25.000000000     0.093687670  0.093687670  0.040000000


 
 k-points in units of 2pi/SCALE and weight: auto                                    
   0.00000000  0.00000000  0.00000000       1.000
 
 k-points in reciprocal lattice and weights: auto                                    
   0.00000000  0.00000000  0.00000000       1.000
 
 position of ions in fractional coordinates (direct lattice) 
   0.97245084  0.00032082  0.00056671
   0.03911838  0.13365950  0.00044017
   0.17244363  0.00029545  0.00049963
   0.23909628  0.13364792  0.00025647
   0.97245206  0.20032201  0.00048522
   0.03912836  0.33364377  0.00044415
   0.17245176  0.20035455  0.00021917
   0.23912436  0.33366572  0.00007226
   0.37246557  0.00032440  0.00045391
   0.43913747  0.13361994  0.00025834
   0.97244982  0.40030936  0.00054761
   0.03912498  0.53363679  0.00057341
   0.37241618  0.40032948  0.00000000
   0.43909960  0.53363898  0.00023241
   0.57244368  0.00031213  0.00055958
   0.63911021  0.13363175  0.00054727
   0.97245270  0.60030565  0.00064029
   0.03912449  0.73364036  0.00065451
   0.57243347  0.60030624  0.00040289
   0.63911189  0.73364188  0.00052791
   0.17245463  0.40031823  0.00028904
   0.23912018  0.53363655  0.00037851
   0.37245975  0.20029599  0.00008900
   0.43910710  0.33367342  0.00005576
   0.17245216  0.60031151  0.00052434
   0.23912337  0.73363857  0.00057513
   0.57243108  0.20028917  0.00041330
   0.63911277  0.33361863  0.00046238
   0.37243981  0.60030802  0.00036284
   0.43911609  0.73363786  0.00049419
   0.57246936  0.40032050  0.00033992
   0.63911941  0.53365087  0.00045961
   0.77244572  0.00031543  0.00059616
   0.83911628  0.13364020  0.00057531
   0.77244051  0.20030743  0.00058103
   0.83912024  0.33363573  0.00058547
   0.77244632  0.40029837  0.00058298
   0.83911898  0.53363396  0.00062110
   0.77245614  0.60030817  0.00059571
   0.83911503  0.73364318  0.00063151
   0.97245531  0.80030558  0.00065223
   0.03911471  0.93364329  0.00059805
   0.17245797  0.80031221  0.00062337
   0.23913455  0.93364719  0.00054485
   0.37245140  0.80031667  0.00055140
   0.43912449  0.93364477  0.00054143
   0.57244110  0.80031005  0.00053453
   0.63911507  0.93363899  0.00058764
   0.77244510  0.80031319  0.00060206
   0.83911661  0.93364434  0.00060683
   0.37302101  0.25122688  0.29966142
   0.42087980  0.18931315  0.30223829
   0.32515698  0.31316719  0.29728322
 
 position of ions in cartesian coordinates  (Angst):
  11.98347958  0.00342433  0.01416777
  -0.34154264  1.42664989  0.01100432
   2.12354700  0.00315355  0.01249070
   2.12325634  1.42652621  0.00641170
  10.75098721  2.13818970  0.01213047
  -1.57382270  3.56123457  0.01110375
   0.89078307  2.13853702  0.00547917
   0.89099273  3.56146885  0.00180651
   4.58863896  0.00346260  0.01134782
   4.58893648  1.42622757  0.00645846
   9.51853763  4.27280730  0.01369027
  -2.80632132  5.69591267  0.01433526
   2.12299894  4.27302204  0.00000000
   2.12335237  5.69593607  0.00581036
   7.05344483  0.00333155  0.01398950
   7.05352764  1.42635365  0.01368187
   8.28609598  6.40752033  0.01600723
  -4.03884931  7.83070339  0.01636283
   3.35585531  6.40752662  0.01007237
   3.35598594  7.83071962  0.01319763
  -0.34145776  4.27290193  0.00722612
  -0.34137895  5.69591010  0.00946273
   3.35624236  2.13791198  0.00222492
   3.35573251  3.56155103  0.00139405
  -1.57394684  6.40758280  0.01310850
  -1.57385216  7.83068434  0.01437823
   5.82093107  2.13783916  0.01033241
   5.82114012  3.56096622  0.01155939
   0.89092245  6.40754561  0.00907111
   0.89106251  7.83067670  0.01235474
   4.58870974  4.27292622  0.00849795
   4.58852320  5.69606300  0.01149026
   9.51844972  0.00336679  0.01490402
   9.51855036  1.42644387  0.01438264
   8.28593477  2.13803408  0.01452582
   8.28612680  3.56114872  0.01463668
   7.05356221  4.27268994  0.01457444
   7.05362213  5.69588251  0.01552751
   5.82112285  6.40754723  0.01489279
   5.82101669  7.83073350  0.01578780
   7.05362858  8.54227219  0.01630582
  -5.27148792  9.96548729  0.01495127
  -2.80637951  8.54234295  0.01558431
  -2.80626749  9.96552896  0.01362126
  -0.34148805  8.54239058  0.01378498
  -0.34137657  9.96550309  0.01353576
   2.12342586  8.54231992  0.01336337
   2.12354296  9.96544135  0.01469111
   4.58845581  8.54235337  0.01505154
   4.58852904  9.96549848  0.01517076
   3.04929830  2.68153618  7.49153538
   4.02070129  2.02068374  7.55595724
   2.07766701  3.34267235  7.43208051
 


--------------------------------------------------------------------------------------------------------


 k-point   1 :   0.0000 0.0000 0.0000  plane waves:  236157

 maximum and minimum number of plane-waves per node :    236157   236157

 maximum number of plane-waves:    236157
 maximum index in each direction: 
   IXMAX=   31   IYMAX=   31   IZMAX=   64
   IXMIN=  -31   IYMIN=  -31   IZMIN=  -64


 serial   3D FFT for wavefunctions
 parallel 3D FFT for charge:
    minimum data exchange during FFTs selected (reduces bandwidth)


 total amount of memory used by VASP MPI-rank0   551512. kBytes
=======================================================================

   base      :      30000. kBytes
   nonl-proj :     230539. kBytes
   fftplans  :      40716. kBytes
   grid      :     216018. kBytes
   one-center:        162. kBytes
   wavefun   :      34077. kBytes
 
     INWAV:  cpu time    0.0000: real time    0.0000
 Broyden mixing: mesh for mixing (old mesh)
   NGX = 63   NGY = 63   NGZ =129
  (NGX  =256   NGY  =256   NGZ  =540)
  gives a total of 512001 points

 initial charge density was supplied:
 charge density of overlapping atoms calculated
 number of electron     216.0000000 magnetization 
 keeping initial charge density in first step


--------------------------------------------------------------------------------------------------------


 Maximum index for augmentation-charges          471 (set IRDMAX)


--------------------------------------------------------------------------------------------------------


 First call to EWALD:  gamma=   0.119
 Maximum number of real-space cells 4x 4x 2
 Maximum number of reciprocal cells 2x 2x 4

    FEWALD:  cpu time    0.0033: real time    0.0033


--------------------------------------- Iteration      1(   1)  ---------------------------------------


vdW kernel read from vdw_kernel.bindat
  0.0000  0.2424  0.5071  0.7962  1.1119  1.4567  1.8333  2.2446  2.6937  3.1842
  3.7199  4.3049  4.9438  5.6415  6.4036  7.2358  8.1446  9.1372 10.2212 11.4050
 12.6979 14.1099 15.6519 17.3360 19.1751 21.1837 23.3773 25.7729 28.3892 31.2465
 34.3669 37.7748 41.4965 45.5611 50.0000
 
    POTLOK:  cpu time    8.2472: real time    8.3254
    SETDIJ:  cpu time    0.2825: real time    0.2836
    TRIAL :  cpu time   15.2974: real time   15.4171
    CORREC:  cpu time    0.0007: real time    0.0009
    --------------------------------------------
      LOOP:  cpu time   23.8400: real time   24.0518

 eigenvalue-minimisations  :   336
 total energy-change (2. order) : 0.2641105E+04  (-0.1071701E+05)
 number of electron     216.0000000 magnetization 
 augmentation part      216.0000000 magnetization 

 Free energy of the ion-electron system (eV)
  ---------------------------------------------------
  alpha Z        PSCENC =        47.94900195
  Ewald energy   TEWEN  =     42045.44139955
  -Hartree energ DENC   =    -48114.65086350
  -exchange      EXHF   =         0.00000000
  -V(xc)+E(xc)   XCENC  =       398.24183079
  PAW double counting   =      6564.79108649    -6260.84737255
  entropy T*S    EENTRO =        -0.00000000
  eigenvalues    EBANDS =      -500.90362713
  atomic energy  EATOM  =      8461.08393172
  ---------------------------------------------------
  free energy    TOTEN  =      2641.10538731 eV

  energy without entropy =     2641.10538731  energy(sigma->0) =     2641.10538731


--------------------------------------------------------------------------------------------------------




--------------------------------------- Iteration      1(   2)  ---------------------------------------


    TRIAL :  cpu time   23.0166: real time   23.1848
    CORREC:  cpu time    0.0001: real time    0.0001
    --------------------------------------------
      LOOP:  cpu time   23.0469: real time   23.2202

 eigenvalue-minimisations  :   560
 total energy-change (2. order) :-0.2386580E+04  (-0.2218919E+04)
 number of electron     216.0000000 magnetization 
 augmentation part      216.0000000 magnetization 

 Free energy of the ion-electron system (eV)
  ---------------------------------------------------
  alpha Z        PSCENC =        47.94900195
  Ewald energy   TEWEN  =     42045.44139955
  -Hartree energ DENC   =    -48114.65086350
  -exchange      EXHF   =         0.00000000
  -V(xc)+E(xc)   XCENC  =       398.24183079
  PAW double counting   =      6564.79108649    -6260.84737255
  entropy T*S    EENTRO =        -0.00000000
  eigenvalues    EBANDS =     -2887.48348919
  atomic energy  EATOM  =      8461.08393172
  ---------------------------------------------------
  free energy    TOTEN  =       254.52552525 eV

  energy without entropy =      254.52552525  energy(sigma->0) =      254.52552525


--------------------------------------------------------------------------------------------------------




--------------------------------------- Iteration      1(   3)  ---------------------------------------


    TRIAL :  cpu time   17.1998: real time   17.3306
    CORREC:  cpu time    0.0001: real time    0.0001
    --------------------------------------------
      LOOP:  cpu time   17.3064: real time   17.4417

 eigenvalue-minimisations  :   392
 total energy-change (2. order) :-0.6611123E+03  (-0.6578377E+03)
 number of electron     216.0000000 magnetization 
 augmentation part      216.0000000 magnetization 

 Free energy of the ion-electron system (eV)
  ---------------------------------------------------
  alpha Z        PSCENC =        47.94900195
  Ewald energy   TEWEN  =     42045.44139955
  -Hartree energ DENC   =    -48114.65086350
  -exchange      EXHF   =         0.00000000
  -V(xc)+E(xc)   XCENC  =       398.24183079
  PAW double counting   =      6564.79108649    -6260.84737255
  entropy T*S    EENTRO =        -0.00000000
  eigenvalues    EBANDS =     -3548.59575775
  atomic energy  EATOM  =      8461.08393172
  ---------------------------------------------------
  free energy    TOTEN  =      -406.58674331 eV

  energy without entropy =     -406.58674331  energy(sigma->0) =     -406.58674331


--------------------------------------------------------------------------------------------------------




--------------------------------------- Iteration      1(   4)  ---------------------------------------


    TRIAL :  cpu time   19.1380: real time   19.2799
    CORREC:  cpu time    0.0001: real time    0.0001
    --------------------------------------------
      LOOP:  cpu time   19.2091: real time   19.3529

 eigenvalue-minimisations  :   448
 total energy-change (2. order) :-0.3819800E+02  (-0.3788021E+02)
 number of electron     216.0000000 magnetization 
 augmentation part      216.0000000 magnetization 

 Free energy of the ion-electron system (eV)
  ---------------------------------------------------
  alpha Z        PSCENC =        47.94900195
  Ewald energy   TEWEN  =     42045.44139955
  -Hartree energ DENC   =    -48114.65086350
  -exchange      EXHF   =         0.00000000
  -V(xc)+E(xc)   XCENC  =       398.24183079
  PAW double counting   =      6564.79108649    -6260.84737255
  entropy T*S    EENTRO =        -0.00000000
  eigenvalues    EBANDS =     -3586.79376166
  atomic energy  EATOM  =      8461.08393172
  ---------------------------------------------------
  free energy    TOTEN  =      -444.78474722 eV

  energy without entropy =     -444.78474722  energy(sigma->0) =     -444.78474722


--------------------------------------------------------------------------------------------------------




--------------------------------------- Iteration      1(   5)  ---------------------------------------


    TRIAL :  cpu time   17.1985: real time   17.3312
    CORREC:  cpu time    0.0001: real time    0.0001
    CHARGE:  cpu time    0.8074: real time    0.8134
    --------------------------------------------
      LOOP:  cpu time   18.0615: real time   18.2017

 eigenvalue-minimisations  :   392
 total energy-change (2. order) :-0.1370784E+01  (-0.1367312E+01)
 number of electron     216.0000000 magnetization 
 augmentation part       -0.2244021 magnetization 

 Free energy of the ion-electron system (eV)
  ---------------------------------------------------
  alpha Z        PSCENC =        47.94900195
  Ewald energy   TEWEN  =     42045.44139955
  -Hartree energ DENC   =    -48114.65086350
  -exchange      EXHF   =         0.00000000
  -V(xc)+E(xc)   XCENC  =       398.24183079
  PAW double counting   =      6564.79108649    -6260.84737255
  entropy T*S    EENTRO =        -0.00000000
  eigenvalues    EBANDS =     -3588.16454527
  atomic energy  EATOM  =      8461.08393172
  ---------------------------------------------------
  free energy    TOTEN  =      -446.15553083 eV

  energy without entropy =     -446.15553083  energy(sigma->0) =     -446.15553083


--------------------------------------------------------------------------------------------------------




--------------------------------------- Iteration      1(   6)  ---------------------------------------


    POTLOK:  cpu time    7.8823: real time    7.9385
    SETDIJ:  cpu time    0.3384: real time    0.3396
    TRIAL :  cpu time    6.8890: real time    6.9521
    CORREC:  cpu time    9.7394: real time    9.8079
    CHARGE:  cpu time    0.8000: real time    0.8052
    --------------------------------------------
      LOOP:  cpu time   25.6722: real time   25.8797

 eigenvalue-minimisations  :     0
 total energy-change (2. order) : 0.5510932E+02  (-0.1758096E+02)
 number of electron     216.0000000 magnetization 
 augmentation part       -0.3342060 magnetization 

 Free energy of the ion-electron system (eV)
  ---------------------------------------------------
  alpha Z        PSCENC =        47.94900195
  Ewald energy   TEWEN  =     42045.44139955
  -Hartree energ DENC   =    -49593.16029597
  -exchange      EXHF   =         0.00000000
  -V(xc)+E(xc)   XCENC  =       448.12692572
  PAW double counting   =     71647.36118975   -71351.56861432
  entropy T*S    EENTRO =        -0.00000000
  eigenvalues    EBANDS =     -2096.27974522
  atomic energy  EATOM  =      8461.08393172
  ---------------------------------------------------
  free energy    TOTEN  =      -391.04620684 eV

  energy without entropy =     -391.04620684  energy(sigma->0) =     -391.04620684


--------------------------------------------------------------------------------------------------------




--------------------------------------- Iteration      1(   7)  ---------------------------------------


    POTLOK:  cpu time    7.8846: real time    7.9356
    SETDIJ:  cpu time    0.3482: real time    0.3492
    TRIAL :  cpu time    6.8841: real time    6.9363
    CORREC:  cpu time    9.6928: real time    9.7686
    CHARGE:  cpu time    0.8001: real time    0.8051
    --------------------------------------------
      LOOP:  cpu time   25.6624: real time   25.8505

 eigenvalue-minimisations  :     0
 total energy-change (2. order) :-0.1762824E+02  (-0.1998673E+01)
 number of electron     216.0000000 magnetization 
 augmentation part       -0.3818607 magnetization 

 Free energy of the ion-electron system (eV)
  ---------------------------------------------------
  alpha Z        PSCENC =        47.94900195
  Ewald energy   TEWEN  =     42045.44139955
  -Hartree energ DENC   =    -49061.45606459
  -exchange      EXHF   =         0.00000000
  -V(xc)+E(xc)   XCENC  =       430.21484030
  PAW double counting   =     86580.50856529   -86281.48848530
  entropy T*S    EENTRO =        -0.00000000
  eigenvalues    EBANDS =     -2630.92764001
  atomic energy  EATOM  =      8461.08393172
  ---------------------------------------------------
  free energy    TOTEN  =      -408.67445109 eV

  energy without entropy =     -408.67445109  energy(sigma->0) =     -408.67445109


--------------------------------------------------------------------------------------------------------




--------------------------------------- Iteration      1(   8)  ---------------------------------------


    POTLOK:  cpu time    7.9285: real time    7.9813
    SETDIJ:  cpu time    0.3122: real time    0.3134
    TRIAL :  cpu time    6.8858: real time    6.9397
    CORREC:  cpu time    9.7422: real time    9.8142
    CHARGE:  cpu time    0.7994: real time    0.8045
    --------------------------------------------
      LOOP:  cpu time   25.7276: real time   25.9191

 eigenvalue-minimisations  :     0
 total energy-change (2. order) :-0.1997759E+01  (-0.5773920E+00)
 number of electron     216.0000000 magnetization 
 augmentation part       -0.3961129 magnetization 

 Free energy of the ion-electron system (eV)
  ---------------------------------------------------
  alpha Z        PSCENC =        47.94900195
  Ewald energy   TEWEN  =     42045.44139955
  -Hartree energ DENC   =    -49032.23094886
  -exchange      EXHF   =         0.00000000
  -V(xc)+E(xc)   XCENC  =       429.58187994
  PAW double counting   =     90902.81457715   -90603.35785101
  entropy T*S    EENTRO =        -0.00000000
  eigenvalues    EBANDS =     -2661.95420087
  atomic energy  EATOM  =      8461.08393172
  ---------------------------------------------------
  free energy    TOTEN  =      -410.67221044 eV

  energy without entropy =     -410.67221044  energy(sigma->0) =     -410.67221044


--------------------------------------------------------------------------------------------------------




--------------------------------------- Iteration      1(   9)  ---------------------------------------


    POTLOK:  cpu time    7.9219: real time    7.9730
    SETDIJ:  cpu time    0.2801: real time    0.2811
    TRIAL :  cpu time    6.8852: real time    6.9387
    CORREC:  cpu time    9.7684: real time    9.8350
    CHARGE:  cpu time    0.8121: real time    0.8181
    --------------------------------------------
      LOOP:  cpu time   25.6923: real time   25.9020

 eigenvalue-minimisations  :     0
 total energy-change (2. order) :-0.5772608E+00  (-0.2220876E+00)
 number of electron     216.0000000 magnetization 
 augmentation part       -0.4004816 magnetization 

 Free energy of the ion-electron system (eV)
  ---------------------------------------------------
  alpha Z        PSCENC =        47.94900195
  Ewald energy   TEWEN  =     42045.44139955
  -Hartree energ DENC   =    -49045.03515906
  -exchange      EXHF   =         0.00000000
  -V(xc)+E(xc)   XCENC  =       429.67380309
  PAW double counting   =     94082.21676794   -93782.56710632
  entropy T*S    EENTRO =        -0.00000000
  eigenvalues    EBANDS =     -2650.01211014
  atomic energy  EATOM  =      8461.08393172
  ---------------------------------------------------
  free energy    TOTEN  =      -411.24947126 eV

  energy without entropy =     -411.24947126  energy(sigma->0) =     -411.24947126


--------------------------------------------------------------------------------------------------------




--------------------------------------- Iteration      1(  10)  ---------------------------------------


    POTLOK:  cpu time    7.9475: real time    8.0025
    SETDIJ:  cpu time    0.2416: real time    0.2425
    TRIAL :  cpu time    6.8819: real time    6.9408
    CORREC:  cpu time    9.7570: real time    9.8497
    CHARGE:  cpu time    0.7992: real time    0.8053
    --------------------------------------------
      LOOP:  cpu time   25.6903: real time   25.9056

 eigenvalue-minimisations  :     0
 total energy-change (2. order) :-0.2213777E+00  (-0.9780444E-01)
 number of electron     216.0000000 magnetization 
 augmentation part       -0.3973345 magnetization 

 Free energy of the ion-electron system (eV)
  ---------------------------------------------------
  alpha Z        PSCENC =        47.94900195
  Ewald energy   TEWEN  =     42045.44139955
  -Hartree energ DENC   =    -49041.98632779
  -exchange      EXHF   =         0.00000000
  -V(xc)+E(xc)   XCENC  =       429.50905778
  PAW double counting   =     94905.45739441   -94605.69102045
  entropy T*S    EENTRO =        -0.00000000
  eigenvalues    EBANDS =     -2653.23428614
  atomic energy  EATOM  =      8461.08393172
  ---------------------------------------------------
  free energy    TOTEN  =      -411.47084897 eV

  energy without entropy =     -411.47084897  energy(sigma->0) =     -411.47084897


--------------------------------------------------------------------------------------------------------




--------------------------------------- Iteration      1(  11)  ---------------------------------------


    POTLOK:  cpu time    7.9112: real time    7.9760
    SETDIJ:  cpu time    0.2994: real time    0.3004
    TRIAL :  cpu time    6.8721: real time    6.9333
    CORREC:  cpu time    9.7177: real time    9.8015
    CHARGE:  cpu time    0.7997: real time    0.8057
    --------------------------------------------
      LOOP:  cpu time   25.6305: real time   25.8514

 eigenvalue-minimisations  :     0
 total energy-change (2. order) :-0.9735250E-01  (-0.3673647E-01)
 number of electron     216.0000000 magnetization 
 augmentation part       -0.3946407 magnetization 

 Free energy of the ion-electron system (eV)
  ---------------------------------------------------
  alpha Z        PSCENC =        47.94900195
  Ewald energy   TEWEN  =     42045.44139955
  -Hartree energ DENC   =    -49033.40597396
  -exchange      EXHF   =         0.00000000
  -V(xc)+E(xc)   XCENC  =       429.37948333
  PAW double counting   =     94482.10768205   -94182.34467634
  entropy T*S    EENTRO =        -0.00000000
  eigenvalues    EBANDS =     -2661.77904976
  atomic energy  EATOM  =      8461.08393172
  ---------------------------------------------------
  free energy    TOTEN  =      -411.56820147 eV

  energy without entropy =     -411.56820147  energy(sigma->0) =     -411.56820147


--------------------------------------------------------------------------------------------------------




--------------------------------------- Iteration      1(  12)  ---------------------------------------


    POTLOK:  cpu time    7.8854: real time    7.9512
    SETDIJ:  cpu time    0.3109: real time    0.3121
    TRIAL :  cpu time    6.8729: real time    6.9364
    CORREC:  cpu time    9.6911: real time    9.7709
    CHARGE:  cpu time    0.8057: real time    0.8118
    --------------------------------------------
      LOOP:  cpu time   25.5782: real time   25.8084

 eigenvalue-minimisations  :     0
 total energy-change (2. order) :-0.3671393E-01  (-0.1090413E-01)
 number of electron     216.0000000 magnetization 
 augmentation part       -0.3941825 magnetization 

 Free energy of the ion-electron system (eV)
  ---------------------------------------------------
  alpha Z        PSCENC =        47.94900195
  Ewald energy   TEWEN  =     42045.44139955
  -Hartree energ DENC   =    -49029.09231146
  -exchange      EXHF   =         0.00000000
  -V(xc)+E(xc)   XCENC  =       429.29828380
  PAW double counting   =     94025.69412873   -93725.96285606
  entropy T*S    EENTRO =        -0.00000000
  eigenvalues    EBANDS =     -2666.01649362
  atomic energy  EATOM  =      8461.08393172
  ---------------------------------------------------
  free energy    TOTEN  =      -411.60491539 eV

  energy without entropy =     -411.60491539  energy(sigma->0) =     -411.60491539


--------------------------------------------------------------------------------------------------------




--------------------------------------- Iteration      1(  13)  ---------------------------------------


    POTLOK:  cpu time    7.8689: real time    7.9332
    SETDIJ:  cpu time    0.3301: real time    0.3313
    TRIAL :  cpu time    6.8834: real time    6.9548
    CORREC:  cpu time    9.7030: real time    9.7679
    CHARGE:  cpu time    0.7951: real time    0.8010
    --------------------------------------------
      LOOP:  cpu time   25.6151: real time   25.8317

 eigenvalue-minimisations  :     0
 total energy-change (2. order) :-0.1093866E-01  (-0.2859810E-02)
 number of electron     216.0000000 magnetization 
 augmentation part       -0.3939742 magnetization 

 Free energy of the ion-electron system (eV)
  ---------------------------------------------------
  alpha Z        PSCENC =        47.94900195
  Ewald energy   TEWEN  =     42045.44139955
  -Hartree energ DENC   =    -49028.21286705
  -exchange      EXHF   =         0.00000000
  -V(xc)+E(xc)   XCENC  =       429.26579067
  PAW double counting   =     93792.60167902   -93492.88552390
  entropy T*S    EENTRO =        -0.00000000
  eigenvalues    EBANDS =     -2666.85926600
  atomic energy  EATOM  =      8461.08393172
  ---------------------------------------------------
  free energy    TOTEN  =      -411.61585405 eV

  energy without entropy =     -411.61585405  energy(sigma->0) =     -411.61585405


--------------------------------------------------------------------------------------------------------




--------------------------------------- Iteration      1(  14)  ---------------------------------------


    POTLOK:  cpu time    7.8912: real time    7.9446
    SETDIJ:  cpu time    0.3532: real time    0.3545
    TRIAL :  cpu time    6.8836: real time    6.9367
    CORREC:  cpu time    9.7088: real time    9.7771
    CHARGE:  cpu time    0.7974: real time    0.8025
    --------------------------------------------
      LOOP:  cpu time   25.6906: real time   25.8859

 eigenvalue-minimisations  :     0
 total energy-change (2. order) :-0.2879170E-02  (-0.7887709E-03)
 number of electron     216.0000000 magnetization 
 augmentation part       -0.3939392 magnetization 

 Free energy of the ion-electron system (eV)
  ---------------------------------------------------
  alpha Z        PSCENC =        47.94900195
  Ewald energy   TEWEN  =     42045.44139955
  -Hartree energ DENC   =    -49028.06261896
  -exchange      EXHF   =         0.00000000
  -V(xc)+E(xc)   XCENC  =       429.25732981
  PAW double counting   =     93743.99362189   -93444.28327154
  entropy T*S    EENTRO =        -0.00000000
  eigenvalues    EBANDS =     -2666.99812764
  atomic energy  EATOM  =      8461.08393172
  ---------------------------------------------------
  free energy    TOTEN  =      -411.61873322 eV

  energy without entropy =     -411.61873322  energy(sigma->0) =     -411.61873322


--------------------------------------------------------------------------------------------------------




--------------------------------------- Iteration      1(  15)  ---------------------------------------


    POTLOK:  cpu time    7.8907: real time    7.9445
    SETDIJ:  cpu time    0.3240: real time    0.3252
    TRIAL :  cpu time    6.8846: real time    6.9370
    CORREC:  cpu time    9.7052: real time    9.7734
    CHARGE:  cpu time    0.8012: real time    0.8063
    --------------------------------------------
      LOOP:  cpu time   25.6657: real time   25.8483

 eigenvalue-minimisations  :     0
 total energy-change (2. order) :-0.7978036E-03  (-0.2538470E-03)
 number of electron     216.0000000 magnetization 
 augmentation part       -0.3938858 magnetization 

 Free energy of the ion-electron system (eV)
  ---------------------------------------------------
  alpha Z        PSCENC =        47.94900195
  Ewald energy   TEWEN  =     42045.44139955
  -Hartree energ DENC   =    -49027.86440771
  -exchange      EXHF   =         0.00000000
  -V(xc)+E(xc)   XCENC  =       429.24794545
  PAW double counting   =     93739.93734802   -93440.22746738
  entropy T*S    EENTRO =        -0.00000000
  eigenvalues    EBANDS =     -2667.18728261
  atomic energy  EATOM  =      8461.08393172
  ---------------------------------------------------
  free energy    TOTEN  =      -411.61953102 eV

  energy without entropy =     -411.61953102  energy(sigma->0) =     -411.61953102


--------------------------------------------------------------------------------------------------------




--------------------------------------- Iteration      1(  16)  ---------------------------------------


    POTLOK:  cpu time    7.8662: real time    7.9220
    SETDIJ:  cpu time    0.3377: real time    0.3388
    TRIAL :  cpu time    6.8864: real time    6.9436
    CORREC:  cpu time    9.7355: real time    9.8070
    CHARGE:  cpu time    0.7992: real time    0.8051
    --------------------------------------------
      LOOP:  cpu time   25.6872: real time   25.9068

 eigenvalue-minimisations  :     0
 total energy-change (2. order) :-0.2607413E-03  (-0.1034037E-03)
 number of electron     216.0000000 magnetization 
 augmentation part       -0.3938046 magnetization 

 Free energy of the ion-electron system (eV)
  ---------------------------------------------------
  alpha Z        PSCENC =        47.94900195
  Ewald energy   TEWEN  =     42045.44139955
  -Hartree energ DENC   =    -49027.96589415
  -exchange      EXHF   =         0.00000000
  -V(xc)+E(xc)   XCENC  =       429.24981273
  PAW double counting   =     93719.30527257   -93419.59571601
  entropy T*S    EENTRO =        -0.00000000
  eigenvalues    EBANDS =     -2667.08760012
  atomic energy  EATOM  =      8461.08393172
  ---------------------------------------------------
  free energy    TOTEN  =      -411.61979176 eV

  energy without entropy =     -411.61979176  energy(sigma->0) =     -411.61979176


--------------------------------------------------------------------------------------------------------




--------------------------------------- Iteration      1(  17)  ---------------------------------------


    POTLOK:  cpu time    7.8836: real time    7.9400
    SETDIJ:  cpu time    0.3549: real time    0.3567
    TRIAL :  cpu time    6.8943: real time    6.9442
    CORREC:  cpu time    9.6879: real time    9.7555
    CHARGE:  cpu time    0.7989: real time    0.8040
    --------------------------------------------
      LOOP:  cpu time   25.6599: real time   25.8460

 eigenvalue-minimisations  :     0
 total energy-change (2. order) :-0.1072033E-03  (-0.4502447E-04)
 number of electron     216.0000000 magnetization 
 augmentation part       -0.3938269 magnetization 

 Free energy of the ion-electron system (eV)
  ---------------------------------------------------
  alpha Z        PSCENC =        47.94900195
  Ewald energy   TEWEN  =     42045.44139955
  -Hartree energ DENC   =    -49028.15326375
  -exchange      EXHF   =         0.00000000
  -V(xc)+E(xc)   XCENC  =       429.25595116
  PAW double counting   =     93699.96677356   -93400.25761544
  entropy T*S    EENTRO =        -0.00000000
  eigenvalues    EBANDS =     -2666.90607771
  atomic energy  EATOM  =      8461.08393172
  ---------------------------------------------------
  free energy    TOTEN  =      -411.61989897 eV

  energy without entropy =     -411.61989897  energy(sigma->0) =     -411.61989897


--------------------------------------------------------------------------------------------------------




--------------------------------------- Iteration      1(  18)  ---------------------------------------


    POTLOK:  cpu time    7.9025: real time    7.9581
    SETDIJ:  cpu time    0.3318: real time    0.3330
    TRIAL :  cpu time    6.8838: real time    6.9434
    CORREC:  cpu time    9.7640: real time    9.8362
    CHARGE:  cpu time    0.7981: real time    0.8039
    --------------------------------------------
      LOOP:  cpu time   25.7168: real time   25.9185

 eigenvalue-minimisations  :     0
 total energy-change (2. order) :-0.4737213E-04  (-0.1893807E-04)
 number of electron     216.0000000 magnetization 
 augmentation part       -0.3938491 magnetization 

 Free energy of the ion-electron system (eV)
  ---------------------------------------------------
  alpha Z        PSCENC =        47.94900195
  Ewald energy   TEWEN  =     42045.44139955
  -Hartree energ DENC   =    -49028.17127411
  -exchange      EXHF   =         0.00000000
  -V(xc)+E(xc)   XCENC  =       429.25587050
  PAW double counting   =     93698.08832826   -93398.37835752
  entropy T*S    EENTRO =        -0.00000000
  eigenvalues    EBANDS =     -2666.88884668
  atomic energy  EATOM  =      8461.08393172
  ---------------------------------------------------
  free energy    TOTEN  =      -411.61994634 eV

  energy without entropy =     -411.61994634  energy(sigma->0) =     -411.61994634


--------------------------------------------------------------------------------------------------------




--------------------------------------- Iteration      1(  19)  ---------------------------------------


    POTLOK:  cpu time    7.8723: real time    7.9290
    SETDIJ:  cpu time    0.3015: real time    0.3026
    TRIAL :  cpu time    6.8902: real time    6.9425
    CORREC:  cpu time    9.6857: real time    9.7597
    CHARGE:  cpu time    0.7994: real time    0.8046
    --------------------------------------------
      LOOP:  cpu time   25.6355: real time   25.8283

 eigenvalue-minimisations  :     0
 total energy-change (2. order) :-0.1992908E-04  (-0.7731694E-05)
 number of electron     216.0000000 magnetization 
 augmentation part       -0.3938784 magnetization 

 Free energy of the ion-electron system (eV)
  ---------------------------------------------------
  alpha Z        PSCENC =        47.94900195
  Ewald energy   TEWEN  =     42045.44139955
  -Hartree energ DENC   =    -49028.21537048
  -exchange      EXHF   =         0.00000000
  -V(xc)+E(xc)   XCENC  =       429.25751021
  PAW double counting   =     93706.29358110   -93406.58336203
  entropy T*S    EENTRO =        -0.00000000
  eigenvalues    EBANDS =     -2666.84665829
  atomic energy  EATOM  =      8461.08393172
  ---------------------------------------------------
  free energy    TOTEN  =      -411.61996627 eV

  energy without entropy =     -411.61996627  energy(sigma->0) =     -411.61996627


--------------------------------------------------------------------------------------------------------




--------------------------------------- Iteration      1(  20)  ---------------------------------------


    POTLOK:  cpu time    7.9513: real time    8.0038
    SETDIJ:  cpu time    0.2514: real time    0.2522
    TRIAL :  cpu time    6.8837: real time    6.9399
    CORREC:  cpu time    9.7357: real time    9.8006
    CHARGE:  cpu time    0.8014: real time    0.8066
    --------------------------------------------
      LOOP:  cpu time   25.6611: real time   25.8488

 eigenvalue-minimisations  :     0
 total energy-change (2. order) :-0.7972121E-05  (-0.2893794E-05)
 number of electron     216.0000000 magnetization 
 augmentation part       -0.3938813 magnetization 

 Free energy of the ion-electron system (eV)
  ---------------------------------------------------
  alpha Z        PSCENC =        47.94900195
  Ewald energy   TEWEN  =     42045.44139955
  -Hartree energ DENC   =    -49028.23476461
  -exchange      EXHF   =         0.00000000
  -V(xc)+E(xc)   XCENC  =       429.25782653
  PAW double counting   =     93713.97711306   -93414.26672481
  entropy T*S    EENTRO =        -0.00000000
  eigenvalues    EBANDS =     -2666.82775763
  atomic energy  EATOM  =      8461.08393172
  ---------------------------------------------------
  free energy    TOTEN  =      -411.61997424 eV

  energy without entropy =     -411.61997424  energy(sigma->0) =     -411.61997424


--------------------------------------------------------------------------------------------------------




--------------------------------------- Iteration      1(  21)  ---------------------------------------


    POTLOK:  cpu time    7.8831: real time    7.9356
    SETDIJ:  cpu time    0.3139: real time    0.3151
    TRIAL :  cpu time    6.8865: real time    6.9421
    CORREC:  cpu time    9.8015: real time    9.8997
    CHARGE:  cpu time    0.7975: real time    0.8027
    --------------------------------------------
      LOOP:  cpu time   25.7228: real time   25.9376

 eigenvalue-minimisations  :     0
 total energy-change (2. order) :-0.2928908E-05  (-0.1255458E-05)
 number of electron     216.0000000 magnetization 
 augmentation part       -0.3938712 magnetization 

 Free energy of the ion-electron system (eV)
  ---------------------------------------------------
  alpha Z        PSCENC =        47.94900195
  Ewald energy   TEWEN  =     42045.44139955
  -Hartree energ DENC   =    -49028.22806057
  -exchange      EXHF   =         0.00000000
  -V(xc)+E(xc)   XCENC  =       429.25751469
  PAW double counting   =     93716.64131752   -93416.93096044
  entropy T*S    EENTRO =        -0.00000000
  eigenvalues    EBANDS =     -2666.83412158
  atomic energy  EATOM  =      8461.08393172
  ---------------------------------------------------
  free energy    TOTEN  =      -411.61997717 eV

  energy without entropy =     -411.61997717  energy(sigma->0) =     -411.61997717


--------------------------------------------------------------------------------------------------------




--------------------------------------- Iteration      1(  22)  ---------------------------------------


    POTLOK:  cpu time    7.8977: real time    7.9500
    SETDIJ:  cpu time    0.3131: real time    0.3141
    TRIAL :  cpu time    6.8861: real time    6.9387
    CORREC:  cpu time    9.7295: real time    9.7972
    CHARGE:  cpu time    0.8018: real time    0.8069
    --------------------------------------------
      LOOP:  cpu time   25.6910: real time   25.8702

 eigenvalue-minimisations  :     0
 total energy-change (2. order) :-0.1120410E-05  (-0.4638222E-06)
 number of electron     216.0000000 magnetization 
 augmentation part       -0.3938686 magnetization 

 Free energy of the ion-electron system (eV)
  ---------------------------------------------------
  alpha Z        PSCENC =        47.94900195
  Ewald energy   TEWEN  =     42045.44139955
  -Hartree energ DENC   =    -49028.22207363
  -exchange      EXHF   =         0.00000000
  -V(xc)+E(xc)   XCENC  =       429.25723859
  PAW double counting   =     93715.52161651   -93415.81136329
  entropy T*S    EENTRO =        -0.00000000
  eigenvalues    EBANDS =     -2666.83972968
  atomic energy  EATOM  =      8461.08393172
  ---------------------------------------------------
  free energy    TOTEN  =      -411.61997829 eV

  energy without entropy =     -411.61997829  energy(sigma->0) =     -411.61997829


--------------------------------------------------------------------------------------------------------




--------------------------------------- Iteration      1(  23)  ---------------------------------------


    POTLOK:  cpu time    7.9204: real time    7.9771
    SETDIJ:  cpu time    0.2935: real time    0.2944
    TRIAL :  cpu time    6.8919: real time    6.9543
    CORREC:  cpu time    9.7106: real time    9.7819
    CHARGE:  cpu time    0.7974: real time    0.8023
    --------------------------------------------
      LOOP:  cpu time   25.6807: real time   25.8787

 eigenvalue-minimisations  :     0
 total energy-change (2. order) :-0.4186586E-06  (-0.2072374E-06)
 number of electron     216.0000000 magnetization 
 augmentation part       -0.3938731 magnetization 

 Free energy of the ion-electron system (eV)
  ---------------------------------------------------
  alpha Z        PSCENC =        47.94900195
  Ewald energy   TEWEN  =     42045.44139955
  -Hartree energ DENC   =    -49028.21350131
  -exchange      EXHF   =         0.00000000
  -V(xc)+E(xc)   XCENC  =       429.25706423
  PAW double counting   =     93714.03802797   -93414.32782758
  entropy T*S    EENTRO =        -0.00000000
  eigenvalues    EBANDS =     -2666.84807523
  atomic energy  EATOM  =      8461.08393172
  ---------------------------------------------------
  free energy    TOTEN  =      -411.61997871 eV

  energy without entropy =     -411.61997871  energy(sigma->0) =     -411.61997871


--------------------------------------------------------------------------------------------------------




--------------------------------------- Iteration      1(  24)  ---------------------------------------


    POTLOK:  cpu time    7.9144: real time    7.9766
    SETDIJ:  cpu time    0.2761: real time    0.2772
    TRIAL :  cpu time    6.8879: real time    6.9381
    CORREC:  cpu time    9.7102: real time    9.7741
    CHARGE:  cpu time    0.7984: real time    0.8034
    --------------------------------------------
      LOOP:  cpu time   25.6552: real time   25.8382

 eigenvalue-minimisations  :     0
 total energy-change (2. order) :-0.1716544E-06  (-0.1001422E-06)
 number of electron     216.0000000 magnetization 
 augmentation part       -0.3938777 magnetization 

 Free energy of the ion-electron system (eV)
  ---------------------------------------------------
  alpha Z        PSCENC =        47.94900195
  Ewald energy   TEWEN  =     42045.44139955
  -Hartree energ DENC   =    -49028.20818387
  -exchange      EXHF   =         0.00000000
  -V(xc)+E(xc)   XCENC  =       429.25698907
  PAW double counting   =     93713.41922768   -93413.70901715
  entropy T*S    EENTRO =        -0.00000000
  eigenvalues    EBANDS =     -2666.85332782
  atomic energy  EATOM  =      8461.08393172
  ---------------------------------------------------
  free energy    TOTEN  =      -411.61997888 eV

  energy without entropy =     -411.61997888  energy(sigma->0) =     -411.61997888


--------------------------------------------------------------------------------------------------------




--------------------------------------- Iteration      1(  25)  ---------------------------------------


    POTLOK:  cpu time    7.9188: real time    7.9723
    SETDIJ:  cpu time    0.3466: real time    0.3478
    TRIAL :  cpu time    6.8774: real time    6.9334
    CORREC:  cpu time    9.7242: real time    9.7887
    EDDIAG:  cpu time    1.1012: real time    1.1104
    CHARGE:  cpu time    0.8006: real time    0.8055
    --------------------------------------------
      LOOP:  cpu time   26.7830: real time   26.9885

 eigenvalue-minimisations  :     0
 total energy-change (2. order) :-0.8034112E-07  (-0.9349886E-07)
 number of electron     216.0000000 magnetization 
 augmentation part       -0.3938802 magnetization 

 Free energy of the ion-electron system (eV)
  ---------------------------------------------------
  alpha Z        PSCENC =        47.94900195
  Ewald energy   TEWEN  =     42045.44139955
  -Hartree energ DENC   =    -49028.20685757
  -exchange      EXHF   =         0.00000000
  -V(xc)+E(xc)   XCENC  =       429.25697987
  PAW double counting   =     93713.21999873   -93413.50976171
  entropy T*S    EENTRO =        -0.00000000
  eigenvalues    EBANDS =     -2666.85467149
  atomic energy  EATOM  =      8461.08393172
  ---------------------------------------------------
  free energy    TOTEN  =      -411.61997896 eV

  energy without entropy =     -411.61997896  energy(sigma->0) =     -411.61997896


--------------------------------------------------------------------------------------------------------


  average scaling for gradient   0.9188


 average (electrostatic) potential at core
  the test charge radii are     0.5770  0.5955
  (the norm of the test charge is              1.0000)
       1 -86.3352       2 -86.3347       3 -86.3354       4 -86.3360       5 -86.3340
       6 -86.3339       7 -86.3353       8 -86.3341       9 -86.3344      10 -86.3348
      11 -86.3339      12 -86.3339      13 -86.3347      14 -86.3343      15 -86.3338
      16 -86.3341      17 -86.3345      18 -86.3348      19 -86.3351      20 -86.3345
      21 -86.3337      22 -86.3336      23 -86.3364      24 -86.3363      25 -86.3337
      26 -86.3339      27 -86.3345      28 -86.3354      29 -86.3337      30 -86.3338
      31 -86.3357      32 -86.3351      33 -86.3341      34 -86.3340      35 -86.3341
      36 -86.3342      37 -86.3347      38 -86.3350      39 -86.3349      40 -86.3349
      41 -86.3349      42 -86.3350      43 -86.3346      44 -86.3352      45 -86.3338
      46 -86.3340      47 -86.3339      48 -86.3339      49 -86.3349      50 -86.3346
      51 -90.3101      52-120.6179      53-120.6173
 
 
 
 E-fermi :  -4.4590     XC(G=0):  -2.8587     alpha+bet : -1.6890

 Fermi energy:        -4.4589564918

 k-point     1 :       0.0000    0.0000    0.0000
  band No.  band energies     occupation 
      1     -27.7599      2.00000
      2     -26.7787      2.00000
      3     -22.4709      2.00000
      4     -21.5375      2.00000
      5     -21.5362      2.00000
      6     -21.5359      2.00000
      7     -21.5357      2.00000
      8     -21.5356      2.00000
      9     -21.5352      2.00000
     10     -19.7052      2.00000
     11     -19.7051      2.00000
     12     -19.7049      2.00000
     13     -19.7042      2.00000
     14     -19.7037      2.00000
     15     -19.7035      2.00000
     16     -18.8144      2.00000
     17     -18.8142      2.00000
     18     -18.8138      2.00000
     19     -18.8135      2.00000
     20     -18.8128      2.00000
     21     -18.8126      2.00000
     22     -16.6714      2.00000
     23     -16.6710      2.00000
     24     -16.6703      2.00000
     25     -16.6701      2.00000
     26     -16.6697      2.00000
     27     -16.6696      2.00000
     28     -15.6778      2.00000
     29     -15.6778      2.00000
     30     -15.6768      2.00000
     31     -15.6766      2.00000
     32     -15.6762      2.00000
     33     -15.6762      2.00000
     34     -14.3394      2.00000
     35     -14.3393      2.00000
     36     -14.3387      2.00000
     37     -14.3385      2.00000
     38     -14.3385      2.00000
     39     -14.3382      2.00000
     40     -12.6133      2.00000
     41     -11.9863      2.00000
     42     -11.9860      2.00000
     43     -11.9856      2.00000
     44     -11.9855      2.00000
     45     -11.9844      2.00000
     46     -11.9842      2.00000
     47     -11.8752      2.00000
     48     -11.8751      2.00000
     49     -11.8744      2.00000
     50     -11.8743      2.00000
     51     -11.8742      2.00000
     52     -11.8740      2.00000
     53     -11.4710      2.00000
     54     -11.3781      2.00000
     55     -11.3780      2.00000
     56     -10.6336      2.00000
     57     -10.5113      2.00000
     58     -10.5112      2.00000
     59     -10.5096      2.00000
     60     -10.5093      2.00000
     61     -10.5091      2.00000
     62     -10.5090      2.00000
     63      -9.5192      2.00000
     64      -9.5183      2.00000
     65      -9.5182      2.00000
     66      -9.5175      2.00000
     67      -9.5174      2.00000
     68      -9.5174      2.00000
     69      -9.2708      2.00000
     70      -9.2698      2.00000
     71      -9.2694      2.00000
     72      -9.2694      2.00000
     73      -9.2690      2.00000
     74      -9.2688      2.00000
     75      -9.2113      2.00000
     76      -9.2110      2.00000
     77      -9.2103      2.00000
     78      -9.2102      2.00000
     79      -9.2101      2.00000
     80      -9.2092      2.00000
     81      -7.8541      2.00000
     82      -7.8540      2.00000
     83      -7.6343      2.00000
     84      -7.6326      2.00000
     85      -7.6324      2.00000
     86      -7.6321      2.00000
     87      -7.6311      2.00000
     88      -7.6311      2.00000
     89      -7.3928      2.00000
     90      -7.3925      2.00000
     91      -7.3923      2.00000
     92      -7.3919      2.00000
     93      -7.3916      2.00000
     94      -7.3914      2.00000
     95      -6.4981      2.00000
     96      -6.4980      2.00000
     97      -6.4977      2.00000
     98      -6.4975      2.00000
     99      -6.4970      2.00000
    100      -6.4968      2.00000
    101      -6.1723      2.00000
    102      -6.1701      2.00000
    103      -4.5202      2.00000
    104      -4.5198      2.00000
    105      -4.5193      2.00000
    106      -4.5192      2.00000
    107      -4.5186      2.00000
    108      -4.5185      2.00000
    109      -1.7243      0.00000
    110      -1.7241      0.00000
    111      -1.7238      0.00000
    112      -1.7236      0.00000
    113      -1.7229      0.00000
    114      -1.7227      0.00000
    115      -0.8894      0.00000
    116      -0.1032      0.00000
    117       0.1067      0.00000
    118       0.1330      0.00000
    119       0.1333      0.00000
    120       0.1338      0.00000
    121       0.1338      0.00000
    122       0.1340      0.00000
    123       0.1355      0.00000
    124       0.2003      0.00000
    125       0.2656      0.00000
    126       0.2986      0.00000
    127       0.5764      0.00000
    128       0.5915      0.00000
    129       0.5938      0.00000
    130       0.6802      0.00000
    131       0.6951      0.00000
    132       0.8025      0.00000
    133       1.0572      0.00000
    134       1.1921      0.00000
    135       1.2167      0.00000
    136       1.2176      0.00000
    137       1.2299      0.00000
    138       1.2414      0.00000
    139       1.2658      0.00000
    140       1.3370      0.00000
    141       1.6930      0.00000
    142       1.6992      0.00000
    143       1.7186      0.00000
    144       1.7368      0.00000
    145       1.7884      0.00000
    146       1.8636      0.00000
    147       1.8638      0.00000
    148       1.8642      0.00000
    149       1.8645      0.00000
    150       1.8647      0.00000
    151       1.8651      0.00000
    152       1.9762      0.00000
    153       2.1054      0.00000
    154       2.1304      0.00000
    155       2.1834      0.00000
    156       2.2024      0.00000
    157       2.2243      0.00000
    158       2.2551      0.00000
    159       2.2820      0.00000
    160       2.3405      0.00000
    161       2.4219      0.00000
    162       2.5585      0.00000
    163       3.4637      0.00000
    164       3.9106      0.00000
    165       4.3898      0.00000
    166       4.5336      0.00000
    167       4.5533      0.00000
    168       4.5574      0.00000


--------------------------------------------------------------------------------------------------------


 soft charge-density along one line, spin component           1
         0         1         2         3         4         5         6         7         8         9
 total charge-density along one line
 
 pseudopotential strength for first ion, spin component:           1
 12.687  21.351   0.000   0.000   0.000   0.000   0.000   0.000
 21.351  35.929   0.000   0.000   0.000   0.000   0.000   0.000
  0.000   0.000  -3.244  -0.000   0.000  -5.814  -0.000   0.000
  0.000   0.000  -0.000  -3.251  -0.000  -0.000  -5.828  -0.000
  0.000   0.000   0.000  -0.000  -3.244   0.000  -0.000  -5.814
  0.000   0.000  -5.814  -0.000   0.000 -10.398  -0.000   0.000
  0.000   0.000  -0.000  -5.828  -0.000  -0.000 -10.422  -0.000
  0.000   0.000   0.000  -0.000  -5.814   0.000  -0.000 -10.398
 total augmentation occupancy for first ion, spin component:           1
  6.917  -2.317  -0.000  -0.002  -0.000   0.000   0.001   0.000
 -2.317   0.818   0.000   0.001   0.000  -0.000  -0.000  -0.000
 -0.000   0.000   6.628  -0.007   0.000  -2.167   0.003  -0.000
 -0.002   0.001  -0.007   2.819  -0.000   0.003  -0.689   0.000
 -0.000   0.000   0.000  -0.000   6.628  -0.000   0.000  -2.167
  0.000  -0.000  -2.167   0.003  -0.000   0.725  -0.001   0.000
  0.001  -0.000   0.003  -0.689   0.000  -0.001   0.176  -0.000
  0.000  -0.000  -0.000   0.000  -2.167   0.000  -0.000   0.724


------------------------ aborting loop because EDIFF is reached ----------------------------------------


    FORLOC:  cpu time    0.1379: real time    0.1387
    FORNL :  cpu time    3.5895: real time    3.6192
    FORCOR:  cpu time    7.8963: real time    7.9515
    OFIELD:  cpu time    0.0030: real time    0.0030

 VOLUME and BASIS-vectors are now :
 -----------------------------------------------------------------------------
  energy-cutoff  :     1000.00
  volume of cell :     3288.85
      direct lattice vectors                 reciprocal lattice vectors
    12.325000000  0.000000000  0.000000000     0.081135903  0.046843835  0.000000000
    -6.162500000 10.673763102  0.000000000     0.000000000  0.093687670  0.000000000
     0.000000000  0.000000000 25.000000000     0.000000000  0.000000000  0.040000000

  length of vectors
    12.325000000 12.325000000 25.000000000     0.093687670  0.093687670  0.040000000


 FORCES acting on ions:
    Electron-Ion                     Ewald-Force                    Non-Local-Force
 -----------------------------------------------------------------------------------------------
   0.108E+01 0.949E+00 0.167E+02   -.108E+01 -.950E+00 -.167E+02   0.479E-02 -.698E-03 0.627E-02
   0.150E+01 0.782E+00 0.180E+02   -.150E+01 -.779E+00 -.180E+02   0.346E-02 -.313E-02 -.560E-02
   0.603E+00 0.165E+01 0.183E+02   -.605E+00 -.165E+01 -.183E+02   -.259E-03 0.119E-01 -.656E-03
   0.759E+00 0.111E+01 0.211E+02   -.758E+00 -.110E+01 -.210E+02   0.120E-01 0.838E-03 -.147E-01
   0.118E+01 0.299E+00 0.171E+02   -.118E+01 -.299E+00 -.171E+02   -.237E-03 -.547E-02 0.352E-02
   0.121E+01 -.263E+00 0.173E+02   -.121E+01 0.265E+00 -.173E+02   -.624E-02 0.325E-02 -.272E-02
   0.146E+01 0.592E+00 0.209E+02   -.147E+01 -.592E+00 -.209E+02   0.122E-01 -.191E-01 -.613E-02
   0.147E+01 -.490E+00 0.221E+02   -.147E+01 0.493E+00 -.220E+02   -.642E-02 -.561E-02 -.564E-02
   -.730E+00 0.156E+01 0.187E+02   0.734E+00 -.156E+01 -.187E+02   -.386E-03 -.124E-01 -.486E-02
   -.980E+00 0.843E+00 0.212E+02   0.982E+00 -.845E+00 -.212E+02   -.260E-01 0.150E-01 0.255E-02
   0.313E+00 -.324E+00 0.162E+02   -.310E+00 0.324E+00 -.162E+02   0.362E-02 -.271E-02 0.149E-03
   0.298E+00 -.249E+00 0.159E+02   -.298E+00 0.249E+00 -.159E+02   -.681E-02 0.337E-02 0.617E-02
   0.483E+00 -.117E+01 0.231E+02   -.484E+00 0.118E+01 -.230E+02   0.268E-01 -.793E-02 -.216E-02
   0.300E+00 -.172E+01 0.198E+02   -.305E+00 0.173E+01 -.198E+02   0.398E-02 0.628E-02 -.161E-01
   -.110E+01 0.661E+00 0.167E+02   0.110E+01 -.663E+00 -.167E+02   0.721E-02 -.380E-02 0.758E-02
   -.141E+01 0.403E+00 0.170E+02   0.141E+01 -.403E+00 -.170E+02   -.190E-02 0.531E-02 -.481E-02
   -.200E+00 -.813E-01 0.154E+02   0.204E+00 0.794E-01 -.154E+02   -.396E-03 0.429E-03 0.205E-02
   0.904E-01 0.689E+00 0.156E+02   -.897E-01 -.689E+00 -.156E+02   -.302E-02 0.167E-02 0.937E-02
   -.285E+00 -.166E+01 0.181E+02   0.284E+00 0.166E+01 -.181E+02   0.616E-02 -.188E-02 0.506E-03
   -.167E+00 -.101E+01 0.164E+02   0.164E+00 0.101E+01 -.164E+02   0.121E-03 -.112E-02 -.674E-03
   0.154E+01 -.664E+00 0.190E+02   -.154E+01 0.665E+00 -.190E+02   -.142E-02 -.236E-02 -.166E-01
   0.109E+01 -.880E+00 0.178E+02   -.109E+01 0.881E+00 -.178E+02   -.665E-02 0.522E-02 -.196E-02
   -.267E+00 0.473E+00 0.232E+02   0.263E+00 -.472E+00 -.232E+02   -.104E-01 0.105E-01 0.113E-02
   -.373E+00 -.746E+00 0.231E+02   0.375E+00 0.744E+00 -.231E+02   0.122E-01 -.149E-01 -.105E-01
   0.595E+00 -.220E+00 0.163E+02   -.593E+00 0.218E+00 -.163E+02   0.354E-02 -.259E-02 -.310E-02
   0.166E+00 0.509E+00 0.161E+02   -.166E+00 -.509E+00 -.161E+02   -.518E-02 0.344E-02 0.578E-02
   -.170E+01 0.191E+00 0.192E+02   0.170E+01 -.194E+00 -.192E+02   0.113E-01 0.791E-02 -.217E-02
   -.160E+01 -.648E+00 0.185E+02   0.160E+01 0.648E+00 -.185E+02   -.892E-02 0.905E-02 0.100E-02
   0.608E+00 -.125E+01 0.180E+02   -.608E+00 0.125E+01 -.180E+02   0.451E-02 0.208E-02 -.663E-02
   0.549E-01 -.552E+00 0.166E+02   -.572E-01 0.553E+00 -.166E+02   -.465E-02 0.233E-02 -.211E-02
   -.114E+01 -.115E+01 0.198E+02   0.114E+01 0.115E+01 -.198E+02   -.120E-01 -.801E-02 -.127E-01
   -.834E+00 -.157E+01 0.180E+02   0.835E+00 0.157E+01 -.180E+02   0.679E-03 -.138E-02 0.222E-02
   0.693E-01 0.336E+00 0.158E+02   -.695E-01 -.336E+00 -.158E+02   0.506E-02 -.464E-02 0.729E-02
   0.198E+00 0.305E+00 0.160E+02   -.201E+00 -.304E+00 -.160E+02   -.226E-02 0.452E-02 -.974E-03
   -.745E+00 0.137E+00 0.163E+02   0.747E+00 -.138E+00 -.163E+02   0.397E-02 -.236E-02 0.621E-02
   -.659E+00 -.302E+00 0.162E+02   0.659E+00 0.302E+00 -.162E+02   -.405E-02 0.234E-02 0.398E-02
   -.125E+01 -.672E+00 0.166E+02   0.125E+01 0.670E+00 -.166E+02   -.118E-02 0.939E-03 0.350E-02
   -.829E+00 -.664E+00 0.160E+02   0.831E+00 0.665E+00 -.160E+02   -.400E-02 0.127E-02 0.912E-02
   -.755E+00 -.956E+00 0.163E+02   0.755E+00 0.957E+00 -.163E+02   -.303E-02 0.198E-03 0.481E-02
   -.113E+00 -.265E+00 0.157E+02   0.114E+00 0.265E+00 -.157E+02   0.193E-02 0.539E-03 0.740E-02
   0.286E+00 0.716E+00 0.157E+02   -.287E+00 -.716E+00 -.158E+02   -.397E-02 0.176E-02 0.695E-02
   0.861E+00 0.131E+01 0.167E+02   -.861E+00 -.131E+01 -.167E+02   -.463E-03 -.813E-03 0.775E-02
   0.952E-01 0.118E+01 0.161E+02   -.917E-01 -.118E+01 -.161E+02   -.329E-03 0.881E-03 0.233E-02
   -.795E-02 0.171E+01 0.176E+02   0.908E-02 -.172E+01 -.177E+02   -.814E-02 0.200E-02 0.539E-02
   -.227E+00 0.421E+00 0.164E+02   0.229E+00 -.423E+00 -.164E+02   0.398E-02 -.289E-02 0.163E-02
   -.822E+00 0.103E+01 0.170E+02   0.823E+00 -.103E+01 -.170E+02   -.614E-02 0.366E-03 -.121E-02
   -.231E+00 -.522E+00 0.162E+02   0.230E+00 0.522E+00 -.163E+02   0.619E-02 -.131E-02 0.611E-02
   -.470E+00 0.165E+00 0.158E+02   0.468E+00 -.164E+00 -.158E+02   -.354E-02 0.320E-02 -.292E-02
   0.457E-01 -.319E+00 0.158E+02   -.462E-01 0.320E+00 -.158E+02   0.427E-02 -.311E-02 0.579E-02
   0.510E+00 0.364E+00 0.158E+02   -.512E+00 -.362E+00 -.158E+02   -.108E-03 0.162E-02 0.332E-02
   0.155E-03 0.244E-01 -.220E+03   -.450E-02 -.206E-01 0.220E+03   -.289E-02 0.196E-02 -.695E-03
   -.229E+03 0.156E+03 -.343E+03   0.279E+03 -.190E+03 0.346E+03   -.513E+02 0.349E+02 -.345E+01
   0.229E+03 -.156E+03 -.321E+03   -.279E+03 0.190E+03 0.318E+03   0.513E+02 -.349E+02 0.310E+01
 -----------------------------------------------------------------------------------------------
   -.788E-02 0.143E-01 0.345E+00   0.171E-12 -.114E-12 -.568E-13   0.736E-02 -.139E-01 -.345E+00
 
 
 POSITION                                       TOTAL-FORCE (eV/Angst)
 -----------------------------------------------------------------------------------
     11.98348      0.00342      0.01417         0.003170     -0.001704     -0.000907
     -0.34154      1.42665      0.01100        -0.000800      0.000030     -0.003581
      2.12355      0.00315      0.01249        -0.001858      0.010725     -0.006450
      2.12326      1.42653      0.00641         0.013523      0.001224     -0.008195
     10.75099      2.13819      0.01213         0.000466     -0.005662     -0.000085
     -1.57382      3.56123      0.01110        -0.008904      0.004664     -0.001581
      0.89078      2.13854      0.00548         0.009560     -0.019080      0.002448
      0.89099      3.56147      0.00181        -0.011820     -0.002382      0.011887
      4.58864      0.00346      0.01135         0.003707     -0.015764     -0.003664
      4.58894      1.42623      0.00646        -0.023442      0.013214      0.013756
      9.51854      4.27281      0.01369         0.006576     -0.003040      0.000217
     -2.80632      5.69591      0.01434        -0.006478      0.003374      0.000786
      2.12300      4.27302      0.00000         0.024966     -0.005015      0.020450
      2.12335      5.69594      0.00581        -0.000671      0.009129     -0.002616
      7.05344      0.00333      0.01399         0.009274     -0.005261     -0.000222
      7.05353      1.42635      0.01368        -0.001621      0.004864     -0.003684
      8.28610      6.40752      0.01601         0.002972     -0.001488     -0.000702
     -4.03885      7.83070      0.01636        -0.002185      0.000872     -0.000015
      3.35586      6.40753      0.01007         0.005516      0.000552     -0.001353
      3.35599      7.83072      0.01320        -0.003185      0.000056     -0.000660
     -0.34146      4.27290      0.00723        -0.001857     -0.001380     -0.004505
     -0.34138      5.69591      0.00946        -0.009086      0.006482     -0.001137
      3.35624      2.13791      0.00222        -0.013770      0.011981      0.016041
      3.35573      3.56155      0.00139         0.013738     -0.015986      0.008598
     -1.57395      6.40758      0.01311         0.005376     -0.003960     -0.000614
     -1.57385      7.83068      0.01438        -0.004792      0.003735      0.000123
      5.82093      2.13784      0.01033         0.016005      0.005093     -0.003003
      5.82114      3.56097      0.01156        -0.006340      0.008602     -0.003854
      0.89092      6.40755      0.00907         0.004517      0.002265     -0.002340
      0.89106      7.83068      0.01235        -0.006794      0.003876      0.000290
      4.58871      4.27293      0.00850        -0.013010     -0.006331     -0.010762
      4.58852      5.69606      0.01149         0.002051     -0.001234     -0.004075
      9.51845      0.00337      0.01490         0.004746     -0.004635      0.000255
      9.51855      1.42644      0.01438        -0.005124      0.005377     -0.000253
      8.28593      2.13803      0.01453         0.006762     -0.003360      0.000660
      8.28613      3.56115      0.01464        -0.004307      0.002192      0.000037
      7.05356      4.27269      0.01457         0.002718     -0.001131     -0.000454
      7.05362      5.69588      0.01553        -0.002471      0.001588      0.000019
      5.82112      6.40755      0.01489        -0.002955      0.001629      0.000015
      5.82102      7.83073      0.01579         0.002775      0.000236     -0.000189
      7.05363      8.54227      0.01631        -0.004672      0.001255      0.001148
     -5.27149      9.96549      0.01495         0.000251     -0.002060     -0.002010
     -2.80638      8.54234      0.01558         0.003203     -0.001456     -0.001052
     -2.80627      9.96553      0.01362        -0.006831     -0.000146     -0.003763
     -0.34149      8.54239      0.01378         0.005759     -0.004938      0.000233
     -0.34138      9.96550      0.01354        -0.005770     -0.000102     -0.001134
      2.12343      8.54232      0.01336         0.005848     -0.001548      0.000762
      2.12354      9.96544      0.01469        -0.005120      0.003781     -0.001770
      4.58846      8.54235      0.01505         0.003693     -0.002761      0.001075
      4.58853      9.96550      0.01517        -0.002785      0.003312      0.000252
      3.04930      2.68154      7.49154        -0.007215      0.005763      0.032338
      4.02070      2.02068      7.55596        -0.660688      0.449143     -0.060789
      2.07767      3.34267      7.43208         0.667376     -0.454588      0.024029
 -----------------------------------------------------------------------------------
    total drift:                               -0.000521      0.000364      0.000135


--------------------------------------------------------------------------------------------------------



  FREE ENERGIE OF THE ION-ELECTRON SYSTEM (eV)
  ---------------------------------------------------
  free  energy   TOTEN  =      -411.61997896 eV

  energy  without entropy=     -411.61997896  energy(sigma->0) =     -411.61997896
 


--------------------------------------------------------------------------------------------------------


    POTLOK:  cpu time    8.8279: real time    8.8876


--------------------------------------------------------------------------------------------------------


 writing wavefunctions
     LOOP+:  cpu time  666.3392: real time  671.7712
    4ORBIT:  cpu time    0.0000: real time    0.0000

 total amount of memory used by VASP MPI-rank0   551512. kBytes
=======================================================================

   base      :      30000. kBytes
   nonl-proj :     230539. kBytes
   fftplans  :      40716. kBytes
   grid      :     216018. kBytes
   one-center:        162. kBytes
   wavefun   :      34077. kBytes
 
  
  
 General timing and accounting informations for this job:
 ========================================================
  
                  Total CPU time used (sec):      710.575
                            User time (sec):      673.812
                          System time (sec):       36.763
                         Elapsed time (sec):      717.455
  
                   Maximum memory used (kb):     1365436.
                   Average memory used (kb):          N/A
  
                          Minor page faults:       420237
                          Major page faults:          148
                 Voluntary context switches:         3952
