 vasp.6.2.1 16May21 (build Nov 06 2021 14:46:37) complex                        
  
 executed on             LinuxIFC date 2025.03.03  19:02:16
 running on  112 total cores
 distrk:  each k-point on   56 cores,    2 groups
 distr:  one band on NCORE=   1 cores,   56 groups


--------------------------------------------------------------------------------------------------------


 INCAR:
   ALGO = Conjugate
   KPAR = 2
   NCORE = 32
   ISMEAR = 0
   SIGMA = 0.01
   PREC = Accurate
   EDIFF = 1E-7
   ENCUT = 1000
   ISIF = 0
   GGA = BO
   PARAM1 = 0.1833333333
   PARAM2 = 0.2200000000
   LUSE_VDW = .TRUE.
   AGGAC = 0.0000
   LASPH = .TRUE.
   SYMPREC = 1E-7

 POTCAR:    PAW_PBE C_h 06Feb2004                 
 POTCAR:    PAW_PBE O_h 06Feb2004                 
 -----------------------------------------------------------------------------
|                                                                             |
|           W    W    AA    RRRRR   N    N  II  N    N   GGGG   !!!           |
|           W    W   A  A   R    R  NN   N  II  NN   N  G    G  !!!           |
|           W    W  A    A  R    R  N N  N  II  N N  N  G       !!!           |
|           W WW W  AAAAAA  RRRRR   N  N N  II  N  N N  G  GGG   !            |
|           WW  WW  A    A  R   R   N   NN  II  N   NN  G    G                |
|           W    W  A    A  R    R  N    N  II  N    N   GGGG   !!!           |
|                                                                             |
|     The value NCORE = 32 specified in the INCAR file was overwritten,       |
|     because it was not compatible with the 56 processes available:          |
|     NCORE = 1                                                               |
|     was used instead, please check that this makes sense for your           |
|     machine.                                                                |
|                                                                             |
 -----------------------------------------------------------------------------

 -----------------------------------------------------------------------------
|                                                                             |
|           W    W    AA    RRRRR   N    N  II  N    N   GGGG   !!!           |
|           W    W   A  A   R    R  NN   N  II  NN   N  G    G  !!!           |
|           W    W  A    A  R    R  N N  N  II  N N  N  G       !!!           |
|           W WW W  AAAAAA  RRRRR   N  N N  II  N  N N  G  GGG   !            |
|           WW  WW  A    A  R   R   N   NN  II  N   NN  G    G                |
|           W    W  A    A  R    R  N    N  II  N    N   GGGG   !!!           |
|                                                                             |
|     For optimal performance we recommend to set                             |
|       NCORE = 2 up to number-of-cores-per-socket                            |
|     NCORE specifies how many cores store one orbital (NPAR=cpu/NCORE).      |
|     This setting can greatly improve the performance of VASP for DFT.       |
|     The default, NCORE=1 might be grossly inefficient on modern             |
|     multi-core architectures or massively parallel machines. Do your        |
|     own testing! More info at https://www.vasp.at/wiki/index.php/NCORE      |
|     Unfortunately you need to use the default for GW and RPA                |
|     calculations (for HF NCORE is supported but not extensively tested      |
|     yet).                                                                   |
|                                                                             |
 -----------------------------------------------------------------------------

 -----------------------------------------------------------------------------
|                                                                             |
|               ----> ADVICE to this user running VASP <----                  |
|                                                                             |
|     You have switched on vdW-DFT.                                           |
|     This routine was written and supplied by Jiri Klimes. We recommend      |
|     that you carefully read and cite the following publications:            |
|       J. Klimes, D.R. Bowler, A. Michelides                                 |
|          J. Phys.: Cond Matt. 22 022201 (2010)                              |
|       J. Klimes, D.R. Bowler, A. Michelides                                 |
|          Phys. Rev. B. 83, 195131 (2011)                                    |
|     and references therein.                                                 |
|                                                                             |
 -----------------------------------------------------------------------------

 POTCAR:    PAW_PBE C_h 06Feb2004                 
   VRHFIN =C: s2p2                                                                                  
   LEXCH  = PE                                                                                      
   EATOM  =   147.1560 eV,   10.8157 Ry                                                             
                                                                                                    
   TITEL  = PAW_PBE C_h 06Feb2004                                                                   
   LULTRA =        F    use ultrasoft PP ?                                                          
   IUNSCR =        1    unscreen: 0-lin 1-nonlin 2-no                                               
   RPACOR =    0.800    partial core radius                                                         
   POMASS =   12.011; ZVAL   =    4.000    mass and valenz                                          
   RCORE  =    1.100    outmost cutoff radius                                                       
   RWIGS  =    1.630; RWIGS  =    0.863    wigner-seitz radius (au A)                               
   ENMAX  =  700.000; ENMIN  =  500.000 eV                                                          
   ICORE  =        2    local potential                                                             
   LCOR   =        T    correct aug charges                                                         
   LPAW   =        T    paw PP                                                                      
   EAUG   =  946.768                                                                                
   DEXC   =    0.000                                                                                
   RMAX   =    1.128    core radius for proj-oper                                                   
   RAUG   =    1.300    factor for augmentation sphere                                              
   RDEP   =    1.162    radius for radial grids                                                     
   RDEPT  =    1.088    core radius for aug-charge                                                  
                                                                                                    
   Atomic configuration                                                                             
    4 entries                                                                                       
     n  l   j            E        occ.                                                              
     1  0  0.50      -273.3789   2.0000                                                             
     2  0  0.50       -13.7508   2.0000                                                             
     2  1  0.50        -5.2854   2.0000                                                             
     3  2  1.50        -5.4423   0.0000                                                             
   Description                                                                                      
     l       E           TYP  RCUT    TYP  RCUT                                                     
     0    -13.7508458     23  1.100                                                                 
     0     -8.2022199     23  1.100                                                                 
     1     -5.2854383     23  1.100                                                                 
     1      1.1560700     23  1.100                                                                 
     2     -5.4423304      7  1.100                                                                 
  local pseudopotential read in
  partial core-charges read in
  partial kinetic energy density read in
  atomic valenz-charges read in
  non local Contribution for L=           0  read in
    real space projection operators read in
  non local Contribution for L=           0  read in
    real space projection operators read in
  non local Contribution for L=           1  read in
    real space projection operators read in
  non local Contribution for L=           1  read in
    real space projection operators read in
    PAW grid and wavefunctions read in
 
   number of l-projection  operators is LMAX  =           4
   number of lm-projection operators is LMMAX =           8
 
 POTCAR:    PAW_PBE O_h 06Feb2004                 
   VRHFIN =O: s2p4                                                                                  
   LEXCH  = PE                                                                                      
   EATOM  =   432.3788 eV,   31.7789 Ry                                                             
                                                                                                    
   TITEL  = PAW_PBE O_h 06Feb2004                                                                   
   LULTRA =        F    use ultrasoft PP ?                                                          
   IUNSCR =        1    unscreen: 0-lin 1-nonlin 2-no                                               
   RPACOR =    0.800    partial core radius                                                         
   POMASS =   16.000; ZVAL   =    6.000    mass and valenz                                          
   RCORE  =    1.100    outmost cutoff radius                                                       
   RWIGS  =    1.400; RWIGS  =    0.741    wigner-seitz radius (au A)                               
   ENMAX  =  700.000; ENMIN  =  500.000 eV                                                          
   ICORE  =        2    local potential                                                             
   LCOR   =        T    correct aug charges                                                         
   LPAW   =        T    paw PP                                                                      
   EAUG   =  888.804                                                                                
   DEXC   =    0.000                                                                                
   RMAX   =    1.128    core radius for proj-oper                                                   
   RAUG   =    1.300    factor for augmentation sphere                                              
   RDEP   =    1.125    radius for radial grids                                                     
   RDEPT  =    1.088    core radius for aug-charge                                                  
                                                                                                    
   Atomic configuration                                                                             
    4 entries                                                                                       
     n  l   j            E        occ.                                                              
     1  0  0.50      -514.6923   2.0000                                                             
     2  0  0.50       -23.9615   2.0000                                                             
     2  1  0.50        -9.0305   4.0000                                                             
     3  2  1.50        -9.5241   0.0000                                                             
   Description                                                                                      
     l       E           TYP  RCUT    TYP  RCUT                                                     
     0    -23.9615319     23  1.100                                                                 
     0    -25.3221145     23  1.100                                                                 
     1     -9.0304911     23  1.100                                                                 
     1     -5.4802209     23  1.100                                                                 
     2     -9.5240782      7  1.100                                                                 
  local pseudopotential read in
  partial core-charges read in
  partial kinetic energy density read in
  atomic valenz-charges read in
  non local Contribution for L=           0  read in
    real space projection operators read in
  non local Contribution for L=           0  read in
    real space projection operators read in
  non local Contribution for L=           1  read in
    real space projection operators read in
  non local Contribution for L=           1  read in
    real space projection operators read in
    PAW grid and wavefunctions read in
 
   number of l-projection  operators is LMAX  =           4
   number of lm-projection operators is LMMAX =           8
 
 -----------------------------------------------------------------------------
|                                                                             |
|               ----> ADVICE to this user running VASP <----                  |
|                                                                             |
|     You have a (more or less) 'large supercell' and for larger cells it     |
|     might be more efficient to use real-space projection operators.         |
|     Therefore, try LREAL= Auto in the INCAR file.                           |
|     Mind: For very accurate calculation, you might also keep the            |
|     reciprocal projection scheme (i.e. LREAL=.FALSE.).                      |
|                                                                             |
 -----------------------------------------------------------------------------

 -----------------------------------------------------------------------------
|                                                                             |
|               ----> ADVICE to this user running VASP <----                  |
|                                                                             |
|     You enforced a specific xc type in the INCAR file but a different       |
|     type was found in the POTCAR file.                                      |
|     I HOPE YOU KNOW WHAT YOU ARE DOING!                                     |
|                                                                             |
 -----------------------------------------------------------------------------

  PAW_PBE C_h 06Feb2004                 :
 energy of atom  1       EATOM= -147.1560
 kinetic energy error for atom=    0.0031 (will be added to EATOM!!)
  PAW_PBE O_h 06Feb2004                 :
 energy of atom  2       EATOM= -432.3788
 kinetic energy error for atom=    0.0171 (will be added to EATOM!!)
 
 
 POSCAR:  C  O
  positions in cartesian coordinates
  No initial velocities read in
 exchange correlation table for  LEXCH =       42
   RHO(1)=    0.500       N(1)  =     2000
   RHO(2)=  100.500       N(2)  =     4000
 


--------------------------------------------------------------------------------------------------------


 ion  position               nearest neighbor table
   1  0.972  0.000  0.001-  50 1.42   2 1.42  42 1.42
   2  0.039  0.134  0.001-   5 1.42   7 1.42   1 1.42
   3  0.172  0.000  0.001-  42 1.42  44 1.42   4 1.42
   4  0.239  0.134  0.000-   7 1.42   3 1.42  23 1.42
   5  0.972  0.200  0.001-   6 1.42   2 1.42  34 1.42
   6  0.039  0.334  0.001-   5 1.42  21 1.42  11 1.42
   7  0.172  0.200  0.000-   8 1.42   2 1.42   4 1.42
   8  0.239  0.334  0.000-  13 1.42   7 1.42  21 1.42
   9  0.372  0.000  0.001-  10 1.42  44 1.42  46 1.42
  10  0.439  0.134  0.000-  27 1.42   9 1.42  23 1.42
  11  0.972  0.400  0.001-  12 1.42  36 1.42   6 1.42
  12  0.039  0.534  0.001-  25 1.42  11 1.42  17 1.42
  13  0.372  0.400  0.000-   8 1.42  14 1.42  24 1.42
  14  0.439  0.534  0.000-  13 1.42  29 1.42  19 1.42
  15  0.572  0.000  0.001-  46 1.42  16 1.42  48 1.42
  16  0.639  0.134  0.001-  15 1.42  35 1.42  27 1.42
  17  0.972  0.600  0.001-  38 1.42  18 1.42  12 1.42
  18  0.039  0.734  0.001-  43 1.42  41 1.42  17 1.42
  19  0.572  0.600  0.001-  14 1.42  20 1.42  32 1.42
  20  0.639  0.734  0.001-  49 1.42  19 1.42  47 1.42
  21  0.172  0.400  0.000-  22 1.42   8 1.42   6 1.42
  22  0.239  0.534  0.000-  21 1.42  29 1.42  25 1.42
  23  0.372  0.200  0.000-  10 1.42   4 1.42  24 1.42
  24  0.439  0.334  0.000-  13 1.42  31 1.42  23 1.42
  25  0.172  0.600  0.001-  26 1.42  12 1.42  22 1.42
  26  0.239  0.734  0.001-  25 1.42  45 1.42  43 1.42
  27  0.572  0.200  0.001-  10 1.42  28 1.42  16 1.42
  28  0.639  0.334  0.001-  27 1.42  37 1.42  31 1.42
  29  0.372  0.600  0.000-  22 1.42  14 1.42  30 1.42
  30  0.439  0.734  0.001-  47 1.42  29 1.42  45 1.42
  31  0.572  0.400  0.000-  32 1.42  28 1.42  24 1.42
  32  0.639  0.534  0.001-  31 1.42  39 1.42  19 1.42
  33  0.772  0.000  0.001-  34 1.42  48 1.42  50 1.42
  34  0.839  0.134  0.001-  33 1.42   5 1.42  35 1.42
  35  0.772  0.200  0.001-  36 1.42  16 1.42  34 1.42
  36  0.839  0.334  0.001-  35 1.42  11 1.42  37 1.42
  37  0.772  0.400  0.001-  28 1.42  38 1.42  36 1.42
  38  0.839  0.534  0.001-  17 1.42  37 1.42  39 1.42
  39  0.772  0.600  0.001-  40 1.42  38 1.42  32 1.42
  40  0.839  0.734  0.001-  39 1.42  49 1.42  41 1.42
  41  0.972  0.800  0.001-  18 1.42  42 1.42  40 1.42
  42  0.039  0.934  0.001-   3 1.42  41 1.42   1 1.42
  43  0.172  0.800  0.001-  18 1.42  44 1.42  26 1.42
  44  0.239  0.934  0.001-   9 1.42  43 1.42   3 1.42
  45  0.372  0.800  0.001-  26 1.42  46 1.42  30 1.42
  46  0.439  0.934  0.001-  15 1.42  45 1.42   9 1.42
  47  0.572  0.800  0.001-  30 1.42  48 1.42  20 1.42
  48  0.639  0.934  0.001-  47 1.42  33 1.42  15 1.42
  49  0.772  0.800  0.001-  50 1.42  20 1.42  40 1.42
  50  0.839  0.934  0.001-  49 1.42   1 1.42  33 1.42
  51  0.373  0.251  0.354-  52 1.18  53 1.18
  52  0.421  0.189  0.357-  51 1.18
  53  0.325  0.313  0.351-  51 1.18
 
  LATTYP: Found a hexagonal cell.
 ALAT       =    12.3250000000
 C/A-ratio  =     1.6227180527
  
  Lattice vectors:
  
 A1 = (  12.3250000000,   0.0000000000,   0.0000000000)
 A2 = (  -6.1625000000,  10.6737631016,   0.0000000000)
 A3 = (   0.0000000000,   0.0000000000,  20.0000000000)


Analysis of symmetry for initial positions (statically):
=====================================================================
 Subroutine PRICEL returns:
 Original cell was already a primitive cell.
 

 Routine SETGRP: Setting up the symmetry group for a 
 hexagonal supercell.


 Subroutine GETGRP returns: Found  1 space group operations
 (whereof  1 operations were pure point group operations)
 out of a pool of 24 trial point group operations.


The static configuration has the point symmetry C_1 .


Analysis of symmetry for dynamics (positions and initial velocities):
=====================================================================
 Subroutine PRICEL returns:
 Original cell was already a primitive cell.
 

 Routine SETGRP: Setting up the symmetry group for a 
 hexagonal supercell.


 Subroutine GETGRP returns: Found  1 space group operations
 (whereof  1 operations were pure point group operations)
 out of a pool of 24 trial point group operations.


The dynamic configuration has the point symmetry C_1 .


 Subroutine INISYM returns: Found  1 space group operations
 (whereof  1 operations are pure point group operations),
 and found     1 'primitive' translations


----------------------------------------------------------------------------------------

                                     Primitive cell                                     

  volume of cell :    2631.0826

  direct lattice vectors                    reciprocal lattice vectors
    12.325000000  0.000000000  0.000000000     0.081135903  0.046843835  0.000000000
    -6.162500000 10.673763102  0.000000000     0.000000000  0.093687670  0.000000000
     0.000000000  0.000000000 20.000000000     0.000000000  0.000000000  0.050000000

  length of vectors
    12.325000000 12.325000000 20.000000000     0.093687670  0.093687670  0.050000000

  position of ions in fractional coordinates (direct lattice)
     0.972450841  0.000320818  0.000708389
     0.039118382  0.133659505  0.000550216
     0.172443627  0.000295449  0.000624535
     0.239096278  0.133647917  0.000320585
     0.972452058  0.200322012  0.000606523
     0.039128360  0.333643771  0.000555187
     0.172451764  0.200354552  0.000273959
     0.239124359  0.333665720  0.000090325
     0.372465565  0.000324403  0.000567391
     0.439137473  0.133619939  0.000322923
     0.972449824  0.400309362  0.000684513
     0.039124981  0.533636789  0.000716763
     0.372416176  0.400329481  0.000000000
     0.439099602  0.533638981  0.000290518
     0.572443676  0.000312125  0.000699475
     0.639110207  0.133631751  0.000684093
     0.972452703  0.600305653  0.000800361
     0.039124495  0.733640359  0.000818141
     0.572433471  0.600306242  0.000503618
     0.639111888  0.733641879  0.000659881
     0.172454630  0.400318228  0.000361306
     0.239120185  0.533636548  0.000473136
     0.372459750  0.200295993  0.000111246
     0.439107096  0.333673419  0.000069702
     0.172452155  0.600311506  0.000655425
     0.239123371  0.733638574  0.000718912
     0.572431082  0.200289171  0.000516621
     0.639112773  0.333618630  0.000577970
     0.372439808  0.600308022  0.000453556
     0.439116090  0.733637858  0.000617737
     0.572469358  0.400320504  0.000424897
     0.639119408  0.533650873  0.000574513
     0.772445723  0.000315427  0.000745201
     0.839116277  0.133640203  0.000719132
     0.772440513  0.200307432  0.000726291
     0.839120241  0.333635728  0.000731834
     0.772446320  0.400298367  0.000728722
     0.839118980  0.533633964  0.000776376
     0.772456143  0.600308173  0.000744639
     0.839115033  0.733643180  0.000789390
     0.972455313  0.800305582  0.000815291
     0.039114714  0.933643289  0.000747563
     0.172457971  0.800312211  0.000779216
     0.239134551  0.933647193  0.000681063
     0.372451396  0.800316674  0.000689249
     0.439124489  0.933644769  0.000676788
     0.572441101  0.800310054  0.000668168
     0.639115067  0.933638985  0.000734556
     0.772445098  0.800313187  0.000752577
     0.839116614  0.933644338  0.000758538
     0.373021009  0.251226878  0.353553390
     0.420879805  0.189313152  0.356774483
     0.325156981  0.313167186  0.350580647

  ion indices of the primitive-cell ions
   primitive index   ion index
                 1           1
                 2           2
                 3           3
                 4           4
                 5           5
                 6           6
                 7           7
                 8           8
                 9           9
                10          10
                11          11
                12          12
                13          13
                14          14
                15          15
                16          16
                17          17
                18          18
                19          19
                20          20
                21          21
                22          22
                23          23
                24          24
                25          25
                26          26
                27          27
                28          28
                29          29
                30          30
                31          31
                32          32
                33          33
                34          34
                35          35
                36          36
                37          37
                38          38
                39          39
                40          40
                41          41
                42          42
                43          43
                44          44
                45          45
                46          46
                47          47
                48          48
                49          49
                50          50
                51          51
                52          52
                53          53

----------------------------------------------------------------------------------------

 
 
 KPOINTS: auto                                    

Automatic generation of k-mesh.
 Grid dimensions read from file:
 generate k-points for:    1    1    1

 Generating k-lattice:

  Cartesian coordinates                     Fractional coordinates (reciprocal lattice)
     0.081135903  0.046843835  0.000000000     1.000000000 -0.000000000  0.000000000
     0.000000000  0.093687670  0.000000000     0.000000000  1.000000000  0.000000000
     0.000000000  0.000000000  0.050000000     0.000000000  0.000000000  1.000000000

  Length of vectors
     0.093687670  0.093687670  0.050000000

  Shift w.r.t. Gamma in fractional coordinates (k-lattice)
     0.000000000  0.000000000  0.000000000

 
 Subroutine IBZKPT returns following result:
 ===========================================
 
 Found      1 irreducible k-points:
 
 Following reciprocal coordinates:
            Coordinates               Weight
  0.000000  0.000000  0.000000      1.000000
 
 Following cartesian coordinates:
            Coordinates               Weight
  0.000000  0.000000  0.000000      1.000000
 


--------------------------------------------------------------------------------------------------------




 Dimension of arrays:
   k-points           NKPTS =      1   k-points in BZ     NKDIM =      1   number of bands    NBANDS=    168
   number of dos      NEDOS =    301   number of ions     NIONS =     53
   non local maximal  LDIM  =      4   non local SUM 2l+1 LMDIM =      8
   total plane-waves  NPLWV = ******
   max r-space proj   IRMAX =      1   max aug-charges    IRDMAX=   9736
   dimension x,y,z NGX =   128 NGY =  128 NGZ =  210
   dimension x,y,z NGXF=   256 NGYF=  256 NGZF=  420
   support grid    NGXF=   256 NGYF=  256 NGZF=  420
   ions per type =              51   2
   NGX,Y,Z   is equivalent  to a cutoff of  17.27, 17.27, 17.46 a.u.
   NGXF,Y,Z  is equivalent  to a cutoff of  34.53, 34.53, 34.91 a.u.

 SYSTEM =  unknown system                          
 POSCAR =   C  O                                   

 Startparameter for this run:
   NWRITE =      2    write-flag & timer
   PREC   = accura    normal or accurate (medium, high low for compatibility)
   ISTART =      0    job   : 0-new  1-cont  2-samecut
   ICHARG =      2    charge: 1-file 2-atom 10-const
   ISPIN  =      1    spin polarized calculation?
   LNONCOLLINEAR =      F non collinear calculations
   LSORBIT =      F    spin-orbit coupling
   INIWAV =      1    electr: 0-lowe 1-rand  2-diag
   LASPH  =      T    aspherical Exc in radial PAW
 Electronic Relaxation 1
   ENCUT  = 1000.0 eV  73.50 Ry    8.57 a.u.  31.78 31.78 51.57*2*pi/ulx,y,z
   ENINI  = 1000.0     initial cutoff
   ENAUG  =  946.8 eV  augmentation charge cutoff
   NELM   =     60;   NELMIN=  2; NELMDL= -5     # of ELM steps 
   EDIFF  = 0.1E-06   stopping-criterion for ELM
   LREAL  =      F    real-space projection
   NLSPLINE    = F    spline interpolate recip. space projectors
   LCOMPAT=      F    compatible to vasp.4.4
   GGA_COMPAT  = T    GGA compatible to vasp.4.4-vasp.4.6
   LMAXPAW     = -100 max onsite density
   LMAXMIX     =    2 max onsite mixed and CHGCAR
   VOSKOWN=      0    Vosko Wilk Nusair interpolation
   ROPT   =    0.00000   0.00000
 Ionic relaxation
   EDIFFG = 0.1E-05   stopping-criterion for IOM
   NSW    =      0    number of steps for IOM
   NBLOCK =      1;   KBLOCK =      1    inner block; outer block 
   IBRION =     -1    ionic relax: 0-MD 1-quasi-New 2-CG
   NFREE  =      0    steps in history (QN), initial steepest desc. (CG)
   ISIF   =      0    stress and relaxation
   IWAVPR =     10    prediction:  0-non 1-charg 2-wave 3-comb
   ISYM   =      2    0-nonsym 1-usesym 2-fastsym
   LCORR  =      T    Harris-Foulkes like correction to forces

   POTIM  = 0.5000    time-step for ionic-motion
   TEIN   =    0.0    initial temperature
   TEBEG  =    0.0;   TEEND  =   0.0 temperature during run
   SMASS  =  -3.00    Nose mass-parameter (am)
   estimated Nose-frequenzy (Omega)   =  0.10E-29 period in steps = 0.13E+47 mass=  -0.347E-26a.u.
   SCALEE = 1.0000    scale energy and forces
   NPACO  =    256;   APACO  = 16.0  distance and # of slots for P.C.
   PSTRESS=    0.0 pullay stress

  Mass of Ions in am
   POMASS =  12.01 16.00
  Ionic Valenz
   ZVAL   =   4.00  6.00
  Atomic Wigner-Seitz radii
   RWIGS  =  -1.00 -1.00
  virtual crystal weights 
   VCA    =   1.00  1.00
   NELECT =     216.0000    total number of electrons
   NUPDOWN=      -1.0000    fix difference up-down

 DOS related values:
   EMIN   =  10.00;   EMAX   =-10.00  energy-range for DOS
   EFERMI =   0.00
   ISMEAR =     0;   SIGMA  =   0.01  broadening in eV -4-tet -1-fermi 0-gaus

 Electronic relaxation 2 (details)
   IALGO  =     58    algorithm
   LDIAG  =      T    sub-space diagonalisation (order eigenvalues)
   LSUBROT=      F    optimize rotation matrix (better conditioning)
   TURBO    =      0    0=normal 1=particle mesh
   IRESTART =      0    0=no restart 2=restart with 2 vectors
   NREBOOT  =      0    no. of reboots
   NMIN     =      0    reboot dimension
   EREF     =   0.00    reference energy to select bands
   IMIX   =      4    mixing-type and parameters
     AMIX     =   0.40;   BMIX     =  1.00
     AMIX_MAG =   1.60;   BMIX_MAG =  1.00
     AMIN     =   0.10
     WC   =   100.;   INIMIX=   1;  MIXPRE=   1;  MAXMIX= -45

 Intra band minimization:
   WEIMIN = 0.0000     energy-eigenvalue tresh-hold
   EBREAK =  0.15E-09  absolut break condition
   DEPER  =   0.30     relativ break condition  

   TIME   =   0.40     timestep for ELM

  volume/ion in A,a.u.               =      49.64       335.01
  Fermi-wavevector in a.u.,A,eV,Ry     =   0.711510  1.344560  6.887909  0.506247
  Thomas-Fermi vector in A             =   1.798641
 
 Write flags
   LWAVE        =      T    write WAVECAR
   LDOWNSAMPLE  =      F    k-point downsampling of WAVECAR
   LCHARG       =      T    write CHGCAR
   LVTOT        =      F    write LOCPOT, total local potential
   LVHAR        =      F    write LOCPOT, Hartree potential only
   LELF         =      F    write electronic localiz. function (ELF)
   LORBIT       =      0    0 simple, 1 ext, 2 COOP (PROOUT), +10 PAW based schemes


 Dipole corrections
   LMONO  =      F    monopole corrections only (constant potential shift)
   LDIPOL =      F    correct potential (dipole corrections)
   IDIPOL =      0    1-x, 2-y, 3-z, 4-all directions 
   EPSILON=  1.0000000 bulk dielectric constant

 Exchange correlation treatment:
   GGA     =    BO    GGA type
   LEXCH   =    42    internal setting for exchange type
   VOSKOWN=      0    Vosko Wilk Nusair interpolation
   LHFCALC =     F    Hartree Fock is set to
   LHFONE  =     F    Hartree Fock one center treatment
   AEXX    =    0.0000 exact exchange contribution

 vdW DFT:
   LUSE_VDW   =     T    switch on vdW DFT
   Zab_VDW    =-.8491    correlation parameter
   PARAM1     =0.1833
   PARAM2     =0.2200
   PARAM3     =0.0000
   -- rVV10 --
   BPARAM     = 6.3000
   CPARAM     = 0.0093

 Linear response parameters
   LEPSILON=     F    determine dielectric tensor
   LRPA    =     F    only Hartree local field effects (RPA)
   LNABLA  =     F    use nabla operator in PAW spheres
   LVEL    =     F    velocity operator in full k-point grid
   LINTERFAST=   F  fast interpolation
   KINTER  =     0    interpolate to denser k-point grid
   CSHIFT  =0.1000    complex shift for real part using Kramers Kronig
   OMEGAMAX=  -1.0    maximum frequency
   DEG_THRESHOLD= 0.2000000E-02 threshold for treating states as degnerate
   RTIME   =   -0.100 relaxation time in fs
  (WPLASMAI=    0.000 imaginary part of plasma frequency in eV, 0.658/RTIME)
   DFIELD  = 0.0000000 0.0000000 0.0000000 field for delta impulse in time
 
 Orbital magnetization related:
   ORBITALMAG=     F  switch on orbital magnetization
   LCHIMAG   =     F  perturbation theory with respect to B field
   DQ        =  0.001000  dq finite difference perturbation B field
   LLRAUG    =     F  two centre corrections for induced B field



--------------------------------------------------------------------------------------------------------


 Static calculation
 charge density and potential will be updated during run
 non-spin polarized calculation
 Conjugate gradient for all bands (Freysoldt, et al. PRB 79, 241103 (2009))
 preconditioned conjugated gradient                                        
 perform sub-space diagonalisation
    before iterative eigenvector-optimisation
 modified Broyden-mixing scheme, WC =      100.0
 initial mixing is a Kerker type mixing with AMIX =  0.4000 and BMIX =      1.0000
 Hartree-type preconditioning will be used
 using additional bands           60
 reciprocal scheme for non local part
 use partial core corrections
 no Harris-corrections to forces 
 use gradient corrections 
 use of overlap-Matrix (Vanderbilt PP)
 Gauss-broadening in eV      SIGMA  =   0.01


--------------------------------------------------------------------------------------------------------


  energy-cutoff  :     1000.00
  volume of cell :     2631.08
      direct lattice vectors                 reciprocal lattice vectors
    12.325000000  0.000000000  0.000000000     0.081135903  0.046843835  0.000000000
    -6.162500000 10.673763102  0.000000000     0.000000000  0.093687670  0.000000000
     0.000000000  0.000000000 20.000000000     0.000000000  0.000000000  0.050000000

  length of vectors
    12.325000000 12.325000000 20.000000000     0.093687670  0.093687670  0.050000000


 
 k-points in units of 2pi/SCALE and weight: auto                                    
   0.00000000  0.00000000  0.00000000       1.000
 
 k-points in reciprocal lattice and weights: auto                                    
   0.00000000  0.00000000  0.00000000       1.000
 
 position of ions in fractional coordinates (direct lattice) 
   0.97245084  0.00032082  0.00070839
   0.03911838  0.13365950  0.00055022
   0.17244363  0.00029545  0.00062454
   0.23909628  0.13364792  0.00032058
   0.97245206  0.20032201  0.00060652
   0.03912836  0.33364377  0.00055519
   0.17245176  0.20035455  0.00027396
   0.23912436  0.33366572  0.00009033
   0.37246557  0.00032440  0.00056739
   0.43913747  0.13361994  0.00032292
   0.97244982  0.40030936  0.00068451
   0.03912498  0.53363679  0.00071676
   0.37241618  0.40032948  0.00000000
   0.43909960  0.53363898  0.00029052
   0.57244368  0.00031213  0.00069947
   0.63911021  0.13363175  0.00068409
   0.97245270  0.60030565  0.00080036
   0.03912449  0.73364036  0.00081814
   0.57243347  0.60030624  0.00050362
   0.63911189  0.73364188  0.00065988
   0.17245463  0.40031823  0.00036131
   0.23912018  0.53363655  0.00047314
   0.37245975  0.20029599  0.00011125
   0.43910710  0.33367342  0.00006970
   0.17245216  0.60031151  0.00065542
   0.23912337  0.73363857  0.00071891
   0.57243108  0.20028917  0.00051662
   0.63911277  0.33361863  0.00057797
   0.37243981  0.60030802  0.00045356
   0.43911609  0.73363786  0.00061774
   0.57246936  0.40032050  0.00042490
   0.63911941  0.53365087  0.00057451
   0.77244572  0.00031543  0.00074520
   0.83911628  0.13364020  0.00071913
   0.77244051  0.20030743  0.00072629
   0.83912024  0.33363573  0.00073183
   0.77244632  0.40029837  0.00072872
   0.83911898  0.53363396  0.00077638
   0.77245614  0.60030817  0.00074464
   0.83911503  0.73364318  0.00078939
   0.97245531  0.80030558  0.00081529
   0.03911471  0.93364329  0.00074756
   0.17245797  0.80031221  0.00077922
   0.23913455  0.93364719  0.00068106
   0.37245140  0.80031667  0.00068925
   0.43912449  0.93364477  0.00067679
   0.57244110  0.80031005  0.00066817
   0.63911507  0.93363899  0.00073456
   0.77244510  0.80031319  0.00075258
   0.83911661  0.93364434  0.00075854
   0.37302101  0.25122688  0.35355339
   0.42087980  0.18931315  0.35677448
   0.32515698  0.31316719  0.35058065
 
 position of ions in cartesian coordinates  (Angst):
  11.98347958  0.00342433  0.01416777
  -0.34154264  1.42664989  0.01100432
   2.12354700  0.00315355  0.01249070
   2.12325634  1.42652621  0.00641170
  10.75098721  2.13818970  0.01213047
  -1.57382270  3.56123457  0.01110375
   0.89078307  2.13853702  0.00547917
   0.89099273  3.56146885  0.00180651
   4.58863896  0.00346260  0.01134782
   4.58893648  1.42622757  0.00645846
   9.51853763  4.27280730  0.01369027
  -2.80632132  5.69591267  0.01433526
   2.12299894  4.27302204  0.00000000
   2.12335237  5.69593607  0.00581036
   7.05344483  0.00333155  0.01398950
   7.05352764  1.42635365  0.01368187
   8.28609598  6.40752033  0.01600723
  -4.03884931  7.83070339  0.01636283
   3.35585531  6.40752662  0.01007237
   3.35598594  7.83071962  0.01319763
  -0.34145776  4.27290193  0.00722612
  -0.34137895  5.69591010  0.00946273
   3.35624236  2.13791198  0.00222492
   3.35573251  3.56155103  0.00139405
  -1.57394684  6.40758280  0.01310850
  -1.57385216  7.83068434  0.01437823
   5.82093107  2.13783916  0.01033241
   5.82114012  3.56096622  0.01155939
   0.89092245  6.40754561  0.00907111
   0.89106251  7.83067670  0.01235474
   4.58870974  4.27292622  0.00849795
   4.58852320  5.69606300  0.01149026
   9.51844972  0.00336679  0.01490402
   9.51855036  1.42644387  0.01438264
   8.28593477  2.13803408  0.01452582
   8.28612680  3.56114872  0.01463668
   7.05356221  4.27268994  0.01457444
   7.05362213  5.69588251  0.01552751
   5.82112285  6.40754723  0.01489279
   5.82101669  7.83073350  0.01578780
   7.05362858  8.54227219  0.01630582
  -5.27148792  9.96548729  0.01495127
  -2.80637951  8.54234295  0.01558431
  -2.80626749  9.96552896  0.01362126
  -0.34148805  8.54239058  0.01378498
  -0.34137657  9.96550309  0.01353576
   2.12342586  8.54231992  0.01336337
   2.12354296  9.96544135  0.01469111
   4.58845581  8.54235337  0.01505154
   4.58852904  9.96549848  0.01517076
   3.04929830  2.68153618  7.07106781
   4.02070129  2.02068374  7.13548967
   2.07766701  3.34267235  7.01161294
 


--------------------------------------------------------------------------------------------------------


 k-point   1 :   0.0000 0.0000 0.0000  plane waves:  189031

 maximum and minimum number of plane-waves per node :    189031   189031

 maximum number of plane-waves:    189031
 maximum index in each direction: 
   IXMAX=   31   IYMAX=   31   IZMAX=   51
   IXMIN=  -31   IYMIN=  -31   IZMIN=  -51


 serial   3D FFT for wavefunctions
 parallel 3D FFT for charge:
    minimum data exchange during FFTs selected (reduces bandwidth)


 total amount of memory used by VASP MPI-rank0   441788. kBytes
=======================================================================

   base      :      30000. kBytes
   nonl-proj :     184518. kBytes
   fftplans  :      31725. kBytes
   grid      :     168095. kBytes
   one-center:        162. kBytes
   wavefun   :      27288. kBytes
 
     INWAV:  cpu time    0.0000: real time    0.0000
 Broyden mixing: mesh for mixing (old mesh)
   NGX = 63   NGY = 63   NGZ =103
  (NGX  =256   NGY  =256   NGZ  =420)
  gives a total of 408807 points

 initial charge density was supplied:
 charge density of overlapping atoms calculated
 number of electron     216.0000000 magnetization 
 keeping initial charge density in first step


--------------------------------------------------------------------------------------------------------


 Maximum index for augmentation-charges          459 (set IRDMAX)


--------------------------------------------------------------------------------------------------------


 First call to EWALD:  gamma=   0.128
 Maximum number of real-space cells 3x 3x 2
 Maximum number of reciprocal cells 3x 3x 4

    FEWALD:  cpu time    0.0024: real time    0.0025


--------------------------------------- Iteration      1(   1)  ---------------------------------------


vdW kernel read from vdw_kernel.bindat
  0.0000  0.2424  0.5071  0.7962  1.1119  1.4567  1.8333  2.2446  2.6937  3.1842
  3.7199  4.3049  4.9438  5.6415  6.4036  7.2358  8.1446  9.1372 10.2212 11.4050
 12.6979 14.1099 15.6519 17.3360 19.1751 21.1837 23.3773 25.7729 28.3892 31.2465
 34.3669 37.7748 41.4965 45.5611 50.0000
 
    POTLOK:  cpu time    6.3210: real time    6.3895
    SETDIJ:  cpu time    0.1083: real time    0.1088
    TRIAL :  cpu time   11.9366: real time   12.0498
    CORREC:  cpu time    0.0004: real time    0.0006
    --------------------------------------------
      LOOP:  cpu time   18.3753: real time   18.5805

 eigenvalue-minimisations  :   336
 total energy-change (2. order) : 0.2518414E+04  (-0.1170929E+05)
 number of electron     216.0000000 magnetization 
 augmentation part      216.0000000 magnetization 

 Free energy of the ion-electron system (eV)
  ---------------------------------------------------
  alpha Z        PSCENC =        59.93625244
  Ewald energy   TEWEN  =     30159.98826637
  -Hartree energ DENC   =    -36335.44209258
  -exchange      EXHF   =         0.00000000
  -V(xc)+E(xc)   XCENC  =       398.24089172
  PAW double counting   =      6564.79108649    -6260.84737255
  entropy T*S    EENTRO =        -0.00000000
  eigenvalues    EBANDS =      -529.33693103
  atomic energy  EATOM  =      8461.08393172
  ---------------------------------------------------
  free energy    TOTEN  =      2518.41403258 eV

  energy without entropy =     2518.41403258  energy(sigma->0) =     2518.41403258


--------------------------------------------------------------------------------------------------------




--------------------------------------- Iteration      1(   2)  ---------------------------------------


    TRIAL :  cpu time   17.9450: real time   18.0983
    CORREC:  cpu time    0.0001: real time    0.0001
    --------------------------------------------
      LOOP:  cpu time   18.0053: real time   18.1621

 eigenvalue-minimisations  :   560
 total energy-change (2. order) :-0.2355678E+04  (-0.2211816E+04)
 number of electron     216.0000000 magnetization 
 augmentation part      216.0000000 magnetization 

 Free energy of the ion-electron system (eV)
  ---------------------------------------------------
  alpha Z        PSCENC =        59.93625244
  Ewald energy   TEWEN  =     30159.98826637
  -Hartree energ DENC   =    -36335.44209258
  -exchange      EXHF   =         0.00000000
  -V(xc)+E(xc)   XCENC  =       398.24089172
  PAW double counting   =      6564.79108649    -6260.84737255
  entropy T*S    EENTRO =        -0.00000000
  eigenvalues    EBANDS =     -2885.01450128
  atomic energy  EATOM  =      8461.08393172
  ---------------------------------------------------
  free energy    TOTEN  =       162.73646234 eV

  energy without entropy =      162.73646234  energy(sigma->0) =      162.73646234


--------------------------------------------------------------------------------------------------------




--------------------------------------- Iteration      1(   3)  ---------------------------------------


    TRIAL :  cpu time   14.8969: real time   15.0385
    CORREC:  cpu time    0.0001: real time    0.0001
    --------------------------------------------
      LOOP:  cpu time   14.9532: real time   15.0955

 eigenvalue-minimisations  :   448
 total energy-change (2. order) :-0.5895672E+03  (-0.5870831E+03)
 number of electron     216.0000000 magnetization 
 augmentation part      216.0000000 magnetization 

 Free energy of the ion-electron system (eV)
  ---------------------------------------------------
  alpha Z        PSCENC =        59.93625244
  Ewald energy   TEWEN  =     30159.98826637
  -Hartree energ DENC   =    -36335.44209258
  -exchange      EXHF   =         0.00000000
  -V(xc)+E(xc)   XCENC  =       398.24089172
  PAW double counting   =      6564.79108649    -6260.84737255
  entropy T*S    EENTRO =        -0.00000000
  eigenvalues    EBANDS =     -3474.58170032
  atomic energy  EATOM  =      8461.08393172
  ---------------------------------------------------
  free energy    TOTEN  =      -426.83073671 eV

  energy without entropy =     -426.83073671  energy(sigma->0) =     -426.83073671


--------------------------------------------------------------------------------------------------------




--------------------------------------- Iteration      1(   4)  ---------------------------------------


    TRIAL :  cpu time   14.9115: real time   15.0339
    CORREC:  cpu time    0.0001: real time    0.0001
    --------------------------------------------
      LOOP:  cpu time   14.9139: real time   15.0799

 eigenvalue-minimisations  :   448
 total energy-change (2. order) :-0.1870513E+02  (-0.1861591E+02)
 number of electron     216.0000000 magnetization 
 augmentation part      216.0000000 magnetization 

 Free energy of the ion-electron system (eV)
  ---------------------------------------------------
  alpha Z        PSCENC =        59.93625244
  Ewald energy   TEWEN  =     30159.98826637
  -Hartree energ DENC   =    -36335.44209258
  -exchange      EXHF   =         0.00000000
  -V(xc)+E(xc)   XCENC  =       398.24089172
  PAW double counting   =      6564.79108649    -6260.84737255
  entropy T*S    EENTRO =        -0.00000000
  eigenvalues    EBANDS =     -3493.28682889
  atomic energy  EATOM  =      8461.08393172
  ---------------------------------------------------
  free energy    TOTEN  =      -445.53586528 eV

  energy without entropy =     -445.53586528  energy(sigma->0) =     -445.53586528


--------------------------------------------------------------------------------------------------------




--------------------------------------- Iteration      1(   5)  ---------------------------------------


    TRIAL :  cpu time   14.9243: real time   15.0524
    CORREC:  cpu time    0.0001: real time    0.0001
    CHARGE:  cpu time    0.6137: real time    0.6183
    --------------------------------------------
      LOOP:  cpu time   15.5920: real time   15.7646

 eigenvalue-minimisations  :   448
 total energy-change (2. order) :-0.6583601E+00  (-0.6564201E+00)
 number of electron     216.0000000 magnetization 
 augmentation part       -0.2150252 magnetization 

 Free energy of the ion-electron system (eV)
  ---------------------------------------------------
  alpha Z        PSCENC =        59.93625244
  Ewald energy   TEWEN  =     30159.98826637
  -Hartree energ DENC   =    -36335.44209258
  -exchange      EXHF   =         0.00000000
  -V(xc)+E(xc)   XCENC  =       398.24089172
  PAW double counting   =      6564.79108649    -6260.84737255
  entropy T*S    EENTRO =        -0.00000000
  eigenvalues    EBANDS =     -3493.94518901
  atomic energy  EATOM  =      8461.08393172
  ---------------------------------------------------
  free energy    TOTEN  =      -446.19422540 eV

  energy without entropy =     -446.19422540  energy(sigma->0) =     -446.19422540


--------------------------------------------------------------------------------------------------------




--------------------------------------- Iteration      1(   6)  ---------------------------------------


    POTLOK:  cpu time    6.0231: real time    6.0727
    SETDIJ:  cpu time    0.0674: real time    0.0676
    TRIAL :  cpu time    5.3588: real time    5.4022
    CORREC:  cpu time    7.2737: real time    7.3458
    CHARGE:  cpu time    0.6049: real time    0.6091
    --------------------------------------------
      LOOP:  cpu time   19.3828: real time   19.5648

 eigenvalue-minimisations  :     0
 total energy-change (2. order) : 0.5524437E+02  (-0.1767850E+02)
 number of electron     216.0000000 magnetization 
 augmentation part       -0.3284696 magnetization 

 Free energy of the ion-electron system (eV)
  ---------------------------------------------------
  alpha Z        PSCENC =        59.93625244
  Ewald energy   TEWEN  =     30159.98826637
  -Hartree energ DENC   =    -37784.05836548
  -exchange      EXHF   =         0.00000000
  -V(xc)+E(xc)   XCENC  =       448.14151633
  PAW double counting   =     71395.79267646   -71100.03298800
  entropy T*S    EENTRO =        -0.00000000
  eigenvalues    EBANDS =     -2031.80114543
  atomic energy  EATOM  =      8461.08393172
  ---------------------------------------------------
  free energy    TOTEN  =      -390.94985559 eV

  energy without entropy =     -390.94985559  energy(sigma->0) =     -390.94985559


--------------------------------------------------------------------------------------------------------




--------------------------------------- Iteration      1(   7)  ---------------------------------------


    POTLOK:  cpu time    6.0606: real time    6.1069
    SETDIJ:  cpu time    0.0457: real time    0.0459
    TRIAL :  cpu time    5.3601: real time    5.4022
    CORREC:  cpu time    7.2618: real time    7.3187
    CHARGE:  cpu time    0.6070: real time    0.6110
    --------------------------------------------
      LOOP:  cpu time   19.3700: real time   19.5902

 eigenvalue-minimisations  :     0
 total energy-change (2. order) :-0.1772592E+02  (-0.2012652E+01)
 number of electron     216.0000000 magnetization 
 augmentation part       -0.3782134 magnetization 

 Free energy of the ion-electron system (eV)
  ---------------------------------------------------
  alpha Z        PSCENC =        59.93625244
  Ewald energy   TEWEN  =     30159.98826637
  -Hartree energ DENC   =    -37261.74500089
  -exchange      EXHF   =         0.00000000
  -V(xc)+E(xc)   XCENC  =       430.16611431
  PAW double counting   =     86443.31542049   -86144.30744919
  entropy T*S    EENTRO =        -0.00000000
  eigenvalues    EBANDS =     -2557.11331138
  atomic energy  EATOM  =      8461.08393172
  ---------------------------------------------------
  free energy    TOTEN  =      -408.67577613 eV

  energy without entropy =     -408.67577613  energy(sigma->0) =     -408.67577613


--------------------------------------------------------------------------------------------------------




--------------------------------------- Iteration      1(   8)  ---------------------------------------


    POTLOK:  cpu time    6.0444: real time    6.0921
    SETDIJ:  cpu time    0.0880: real time    0.0883
    TRIAL :  cpu time    5.3495: real time    5.3948
    CORREC:  cpu time    7.2661: real time    7.3231
    CHARGE:  cpu time    0.6164: real time    0.6205
    --------------------------------------------
      LOOP:  cpu time   19.4295: real time   19.5875

 eigenvalue-minimisations  :     0
 total energy-change (2. order) :-0.2011591E+01  (-0.5760747E+00)
 number of electron     216.0000000 magnetization 
 augmentation part       -0.3941638 magnetization 

 Free energy of the ion-electron system (eV)
  ---------------------------------------------------
  alpha Z        PSCENC =        59.93625244
  Ewald energy   TEWEN  =     30159.98826637
  -Hartree energ DENC   =    -37232.10293720
  -exchange      EXHF   =         0.00000000
  -V(xc)+E(xc)   XCENC  =       429.53250446
  PAW double counting   =     90812.47263441   -90513.02177782
  entropy T*S    EENTRO =        -0.00000000
  eigenvalues    EBANDS =     -2588.57624193
  atomic energy  EATOM  =      8461.08393172
  ---------------------------------------------------
  free energy    TOTEN  =      -410.68736755 eV

  energy without entropy =     -410.68736755  energy(sigma->0) =     -410.68736755


--------------------------------------------------------------------------------------------------------




--------------------------------------- Iteration      1(   9)  ---------------------------------------


    POTLOK:  cpu time    6.0367: real time    6.0839
    SETDIJ:  cpu time    0.0597: real time    0.0599
    TRIAL :  cpu time    5.3496: real time    5.3997
    CORREC:  cpu time    7.2878: real time    7.3485
    CHARGE:  cpu time    0.6027: real time    0.6070
    --------------------------------------------
      LOOP:  cpu time   19.3950: real time   19.5669

 eigenvalue-minimisations  :     0
 total energy-change (2. order) :-0.5760133E+00  (-0.2156347E+00)
 number of electron     216.0000000 magnetization 
 augmentation part       -0.3997084 magnetization 

 Free energy of the ion-electron system (eV)
  ---------------------------------------------------
  alpha Z        PSCENC =        59.93625244
  Ewald energy   TEWEN  =     30159.98826637
  -Hartree energ DENC   =    -37244.88985106
  -exchange      EXHF   =         0.00000000
  -V(xc)+E(xc)   XCENC  =       429.64798078
  PAW double counting   =     94027.54354465   -93727.89695111
  entropy T*S    EENTRO =        -0.00000000
  eigenvalues    EBANDS =     -2576.67655466
  atomic energy  EATOM  =      8461.08393172
  ---------------------------------------------------
  free energy    TOTEN  =      -411.26338087 eV

  energy without entropy =     -411.26338087  energy(sigma->0) =     -411.26338087


--------------------------------------------------------------------------------------------------------




--------------------------------------- Iteration      1(  10)  ---------------------------------------


    POTLOK:  cpu time    6.0979: real time    6.1473
    SETDIJ:  cpu time    0.0054: real time    0.0054
    TRIAL :  cpu time    5.3554: real time    5.4046
    CORREC:  cpu time    7.2538: real time    7.3115
    CHARGE:  cpu time    0.6060: real time    0.6102
    --------------------------------------------
      LOOP:  cpu time   19.3423: real time   19.5095

 eigenvalue-minimisations  :     0
 total energy-change (2. order) :-0.2150408E+00  (-0.9425319E-01)
 number of electron     216.0000000 magnetization 
 augmentation part       -0.3972621 magnetization 

 Free energy of the ion-electron system (eV)
  ---------------------------------------------------
  alpha Z        PSCENC =        59.93625244
  Ewald energy   TEWEN  =     30159.98826637
  -Hartree energ DENC   =    -37242.37455160
  -exchange      EXHF   =         0.00000000
  -V(xc)+E(xc)   XCENC  =       429.49796431
  PAW double counting   =     94863.31690443   -94563.55309252
  entropy T*S    EENTRO =        -0.00000000
  eigenvalues    EBANDS =     -2579.37409681
  atomic energy  EATOM  =      8461.08393172
  ---------------------------------------------------
  free energy    TOTEN  =      -411.47842167 eV

  energy without entropy =     -411.47842167  energy(sigma->0) =     -411.47842167


--------------------------------------------------------------------------------------------------------




--------------------------------------- Iteration      1(  11)  ---------------------------------------


    POTLOK:  cpu time    6.0461: real time    6.0897
    SETDIJ:  cpu time    0.0683: real time    0.0685
    TRIAL :  cpu time    5.3462: real time    5.3966
    CORREC:  cpu time    7.2499: real time    7.3061
    CHARGE:  cpu time    0.6061: real time    0.6102
    --------------------------------------------
      LOOP:  cpu time   19.4080: real time   19.5846

 eigenvalue-minimisations  :     0
 total energy-change (2. order) :-0.9380964E-01  (-0.3567165E-01)
 number of electron     216.0000000 magnetization 
 augmentation part       -0.3947905 magnetization 

 Free energy of the ion-electron system (eV)
  ---------------------------------------------------
  alpha Z        PSCENC =        59.93625244
  Ewald energy   TEWEN  =     30159.98826637
  -Hartree energ DENC   =    -37234.43037239
  -exchange      EXHF   =         0.00000000
  -V(xc)+E(xc)   XCENC  =       429.37599292
  PAW double counting   =     94464.44149992   -94164.67912358
  entropy T*S    EENTRO =        -0.00000000
  eigenvalues    EBANDS =     -2587.28867869
  atomic energy  EATOM  =      8461.08393172
  ---------------------------------------------------
  free energy    TOTEN  =      -411.57223130 eV

  energy without entropy =     -411.57223130  energy(sigma->0) =     -411.57223130


--------------------------------------------------------------------------------------------------------




--------------------------------------- Iteration      1(  12)  ---------------------------------------


    POTLOK:  cpu time    6.0645: real time    6.1072
    SETDIJ:  cpu time    0.0693: real time    0.0696
    TRIAL :  cpu time    5.3522: real time    5.3987
    CORREC:  cpu time    7.2660: real time    7.3235
    CHARGE:  cpu time    0.6044: real time    0.6086
    --------------------------------------------
      LOOP:  cpu time   19.4042: real time   19.5707

 eigenvalue-minimisations  :     0
 total energy-change (2. order) :-0.3565136E-01  (-0.1064360E-01)
 number of electron     216.0000000 magnetization 
 augmentation part       -0.3943547 magnetization 

 Free energy of the ion-electron system (eV)
  ---------------------------------------------------
  alpha Z        PSCENC =        59.93625244
  Ewald energy   TEWEN  =     30159.98826637
  -Hartree energ DENC   =    -37230.44419057
  -exchange      EXHF   =         0.00000000
  -V(xc)+E(xc)   XCENC  =       429.29964642
  PAW double counting   =     94013.07925290   -93713.34787020
  entropy T*S    EENTRO =        -0.00000000
  eigenvalues    EBANDS =     -2591.20317174
  atomic energy  EATOM  =      8461.08393172
  ---------------------------------------------------
  free energy    TOTEN  =      -411.60788267 eV

  energy without entropy =     -411.60788267  energy(sigma->0) =     -411.60788267


--------------------------------------------------------------------------------------------------------




--------------------------------------- Iteration      1(  13)  ---------------------------------------


    POTLOK:  cpu time    6.0638: real time    6.1076
    SETDIJ:  cpu time    0.0291: real time    0.0292
    TRIAL :  cpu time    5.3559: real time    5.4036
    CORREC:  cpu time    7.2955: real time    7.3581
    CHARGE:  cpu time    0.6059: real time    0.6101
    --------------------------------------------
      LOOP:  cpu time   19.3934: real time   19.5620

 eigenvalue-minimisations  :     0
 total energy-change (2. order) :-0.1066833E-01  (-0.2750390E-02)
 number of electron     216.0000000 magnetization 
 augmentation part       -0.3940874 magnetization 

 Free energy of the ion-electron system (eV)
  ---------------------------------------------------
  alpha Z        PSCENC =        59.93625244
  Ewald energy   TEWEN  =     30159.98826637
  -Hartree energ DENC   =    -37229.60167896
  -exchange      EXHF   =         0.00000000
  -V(xc)+E(xc)   XCENC  =       429.26575863
  PAW double counting   =     93785.74843779   -93486.03176350
  entropy T*S    EENTRO =        -0.00000000
  eigenvalues    EBANDS =     -2592.00775549
  atomic energy  EATOM  =      8461.08393172
  ---------------------------------------------------
  free energy    TOTEN  =      -411.61855099 eV

  energy without entropy =     -411.61855099  energy(sigma->0) =     -411.61855099


--------------------------------------------------------------------------------------------------------




--------------------------------------- Iteration      1(  14)  ---------------------------------------


    POTLOK:  cpu time    6.0579: real time    6.1013
    SETDIJ:  cpu time    0.0270: real time    0.0272
    TRIAL :  cpu time    5.3486: real time    5.4003
    CORREC:  cpu time    7.2572: real time    7.3164
    CHARGE:  cpu time    0.6036: real time    0.6083
    --------------------------------------------
      LOOP:  cpu time   19.3817: real time   19.5701

 eigenvalue-minimisations  :     0
 total energy-change (2. order) :-0.2764353E-02  (-0.6892606E-03)
 number of electron     216.0000000 magnetization 
 augmentation part       -0.3939918 magnetization 

 Free energy of the ion-electron system (eV)
  ---------------------------------------------------
  alpha Z        PSCENC =        59.93625244
  Ewald energy   TEWEN  =     30159.98826637
  -Hartree energ DENC   =    -37229.44651048
  -exchange      EXHF   =         0.00000000
  -V(xc)+E(xc)   XCENC  =       429.25699219
  PAW double counting   =     93740.93612734   -93441.22547121
  entropy T*S    EENTRO =        -0.00000000
  eigenvalues    EBANDS =     -2592.15090372
  atomic energy  EATOM  =      8461.08393172
  ---------------------------------------------------
  free energy    TOTEN  =      -411.62131535 eV

  energy without entropy =     -411.62131535  energy(sigma->0) =     -411.62131535


--------------------------------------------------------------------------------------------------------




--------------------------------------- Iteration      1(  15)  ---------------------------------------


    POTLOK:  cpu time    6.0687: real time    6.1135
    SETDIJ:  cpu time    0.0441: real time    0.0443
    TRIAL :  cpu time    5.3524: real time    5.4004
    CORREC:  cpu time    7.2795: real time    7.3365
    CHARGE:  cpu time    0.6303: real time    0.6345
    --------------------------------------------
      LOOP:  cpu time   19.4345: real time   19.5891

 eigenvalue-minimisations  :     0
 total energy-change (2. order) :-0.6949626E-03  (-0.1929264E-03)
 number of electron     216.0000000 magnetization 
 augmentation part       -0.3939053 magnetization 

 Free energy of the ion-electron system (eV)
  ---------------------------------------------------
  alpha Z        PSCENC =        59.93625244
  Ewald energy   TEWEN  =     30159.98826637
  -Hartree energ DENC   =    -37229.25454320
  -exchange      EXHF   =         0.00000000
  -V(xc)+E(xc)   XCENC  =       429.24745615
  PAW double counting   =     93739.55825817   -93439.84811268
  entropy T*S    EENTRO =        -0.00000000
  eigenvalues    EBANDS =     -2592.33351927
  atomic energy  EATOM  =      8461.08393172
  ---------------------------------------------------
  free energy    TOTEN  =      -411.62201031 eV

  energy without entropy =     -411.62201031  energy(sigma->0) =     -411.62201031


--------------------------------------------------------------------------------------------------------




--------------------------------------- Iteration      1(  16)  ---------------------------------------


    POTLOK:  cpu time    6.0812: real time    6.1304
    SETDIJ:  cpu time    0.0053: real time    0.0053
    TRIAL :  cpu time    5.3594: real time    5.4076
    CORREC:  cpu time    7.2412: real time    7.3004
    CHARGE:  cpu time    0.6064: real time    0.6105
    --------------------------------------------
      LOOP:  cpu time   19.3422: real time   19.5054

 eigenvalue-minimisations  :     0
 total energy-change (2. order) :-0.1964153E-03  (-0.6182551E-04)
 number of electron     216.0000000 magnetization 
 augmentation part       -0.3938215 magnetization 

 Free energy of the ion-electron system (eV)
  ---------------------------------------------------
  alpha Z        PSCENC =        59.93625244
  Ewald energy   TEWEN  =     30159.98826637
  -Hartree energ DENC   =    -37229.33211111
  -exchange      EXHF   =         0.00000000
  -V(xc)+E(xc)   XCENC  =       429.24860647
  PAW double counting   =     93722.42043037   -93422.71061395
  entropy T*S    EENTRO =        -0.00000000
  eigenvalues    EBANDS =     -2592.25696903
  atomic energy  EATOM  =      8461.08393172
  ---------------------------------------------------
  free energy    TOTEN  =      -411.62220672 eV

  energy without entropy =     -411.62220672  energy(sigma->0) =     -411.62220672


--------------------------------------------------------------------------------------------------------




--------------------------------------- Iteration      1(  17)  ---------------------------------------


    POTLOK:  cpu time    6.0680: real time    6.1110
    SETDIJ:  cpu time    0.0193: real time    0.0194
    TRIAL :  cpu time    5.3530: real time    5.4014
    CORREC:  cpu time    7.2732: real time    7.3263
    CHARGE:  cpu time    0.6024: real time    0.6093
    --------------------------------------------
      LOOP:  cpu time   19.3812: real time   19.5333

 eigenvalue-minimisations  :     0
 total energy-change (2. order) :-0.6367001E-04  (-0.2076991E-04)
 number of electron     216.0000000 magnetization 
 augmentation part       -0.3938235 magnetization 

 Free energy of the ion-electron system (eV)
  ---------------------------------------------------
  alpha Z        PSCENC =        59.93625244
  Ewald energy   TEWEN  =     30159.98826637
  -Hartree energ DENC   =    -37229.46832395
  -exchange      EXHF   =         0.00000000
  -V(xc)+E(xc)   XCENC  =       429.25323760
  PAW double counting   =     93706.59651919   -93406.88710150
  entropy T*S    EENTRO =        -0.00000000
  eigenvalues    EBANDS =     -2592.12505226
  atomic energy  EATOM  =      8461.08393172
  ---------------------------------------------------
  free energy    TOTEN  =      -411.62227039 eV

  energy without entropy =     -411.62227039  energy(sigma->0) =     -411.62227039


--------------------------------------------------------------------------------------------------------




--------------------------------------- Iteration      1(  18)  ---------------------------------------


    POTLOK:  cpu time    6.1559: real time    6.2048
    SETDIJ:  cpu time    0.0050: real time    0.0050
    TRIAL :  cpu time    5.3563: real time    5.4038
    CORREC:  cpu time    7.3471: real time    7.4018
    CHARGE:  cpu time    0.6040: real time    0.6089
    --------------------------------------------
      LOOP:  cpu time   19.5507: real time   19.7085

 eigenvalue-minimisations  :     0
 total energy-change (2. order) :-0.2194216E-04  (-0.7142219E-05)
 number of electron     216.0000000 magnetization 
 augmentation part       -0.3938412 magnetization 

 Free energy of the ion-electron system (eV)
  ---------------------------------------------------
  alpha Z        PSCENC =        59.93625244
  Ewald energy   TEWEN  =     30159.98826637
  -Hartree energ DENC   =    -37229.48587965
  -exchange      EXHF   =         0.00000000
  -V(xc)+E(xc)   XCENC  =       429.25335609
  PAW double counting   =     93703.40161091   -93403.69172754
  entropy T*S    EENTRO =        -0.00000000
  eigenvalues    EBANDS =     -2592.10810267
  atomic energy  EATOM  =      8461.08393172
  ---------------------------------------------------
  free energy    TOTEN  =      -411.62229234 eV

  energy without entropy =     -411.62229234  energy(sigma->0) =     -411.62229234


--------------------------------------------------------------------------------------------------------




--------------------------------------- Iteration      1(  19)  ---------------------------------------


    POTLOK:  cpu time    6.0440: real time    6.0993
    SETDIJ:  cpu time    0.0744: real time    0.0746
    TRIAL :  cpu time    5.3515: real time    5.4063
    CORREC:  cpu time    7.2493: real time    7.3140
    CHARGE:  cpu time    0.6028: real time    0.6077
    --------------------------------------------
      LOOP:  cpu time   19.3821: real time   19.5666

 eigenvalue-minimisations  :     0
 total energy-change (2. order) :-0.7579569E-05  (-0.2941868E-05)
 number of electron     216.0000000 magnetization 
 augmentation part       -0.3938617 magnetization 

 Free energy of the ion-electron system (eV)
  ---------------------------------------------------
  alpha Z        PSCENC =        59.93625244
  Ewald energy   TEWEN  =     30159.98826637
  -Hartree energ DENC   =    -37229.50824876
  -exchange      EXHF   =         0.00000000
  -V(xc)+E(xc)   XCENC  =       429.25411003
  PAW double counting   =     93706.84506790   -93407.13495353
  entropy T*S    EENTRO =        -0.00000000
  eigenvalues    EBANDS =     -2592.08672609
  atomic energy  EATOM  =      8461.08393172
  ---------------------------------------------------
  free energy    TOTEN  =      -411.62229992 eV

  energy without entropy =     -411.62229992  energy(sigma->0) =     -411.62229992


--------------------------------------------------------------------------------------------------------




--------------------------------------- Iteration      1(  20)  ---------------------------------------


    POTLOK:  cpu time    6.0465: real time    6.1006
    SETDIJ:  cpu time    0.0442: real time    0.0444
    TRIAL :  cpu time    5.3516: real time    5.4096
    CORREC:  cpu time    7.2673: real time    7.3337
    CHARGE:  cpu time    0.6049: real time    0.6092
    --------------------------------------------
      LOOP:  cpu time   19.3557: real time   19.5500

 eigenvalue-minimisations  :     0
 total energy-change (2. order) :-0.3142733E-05  (-0.1277966E-05)
 number of electron     216.0000000 magnetization 
 augmentation part       -0.3938779 magnetization 

 Free energy of the ion-electron system (eV)
  ---------------------------------------------------
  alpha Z        PSCENC =        59.93625244
  Ewald energy   TEWEN  =     30159.98826637
  -Hartree energ DENC   =    -37229.53002248
  -exchange      EXHF   =         0.00000000
  -V(xc)+E(xc)   XCENC  =       429.25480536
  PAW double counting   =     93711.22828588   -93411.51804586
  entropy T*S    EENTRO =        -0.00000000
  eigenvalues    EBANDS =     -2592.06577649
  atomic energy  EATOM  =      8461.08393172
  ---------------------------------------------------
  free energy    TOTEN  =      -411.62230306 eV

  energy without entropy =     -411.62230306  energy(sigma->0) =     -411.62230306


--------------------------------------------------------------------------------------------------------




--------------------------------------- Iteration      1(  21)  ---------------------------------------


    POTLOK:  cpu time    6.0417: real time    6.0870
    SETDIJ:  cpu time    0.0477: real time    0.0479
    TRIAL :  cpu time    5.3510: real time    5.3989
    CORREC:  cpu time    7.2595: real time    7.3194
    CHARGE:  cpu time    0.6084: real time    0.6125
    --------------------------------------------
      LOOP:  cpu time   19.3408: real time   19.5031

 eigenvalue-minimisations  :     0
 total energy-change (2. order) :-0.1327993E-05  (-0.5564360E-06)
 number of electron     216.0000000 magnetization 
 augmentation part       -0.3938795 magnetization 

 Free energy of the ion-electron system (eV)
  ---------------------------------------------------
  alpha Z        PSCENC =        59.93625244
  Ewald energy   TEWEN  =     30159.98826637
  -Hartree energ DENC   =    -37229.53463059
  -exchange      EXHF   =         0.00000000
  -V(xc)+E(xc)   XCENC  =       429.25478505
  PAW double counting   =     93714.02146618   -93414.31111477
  entropy T*S    EENTRO =        -0.00000000
  eigenvalues    EBANDS =     -2592.06126078
  atomic energy  EATOM  =      8461.08393172
  ---------------------------------------------------
  free energy    TOTEN  =      -411.62230439 eV

  energy without entropy =     -411.62230439  energy(sigma->0) =     -411.62230439


--------------------------------------------------------------------------------------------------------




--------------------------------------- Iteration      1(  22)  ---------------------------------------


    POTLOK:  cpu time    6.0419: real time    6.0931
    SETDIJ:  cpu time    0.0771: real time    0.0774
    TRIAL :  cpu time    5.3563: real time    5.4109
    CORREC:  cpu time    7.2469: real time    7.3038
    CHARGE:  cpu time    0.6061: real time    0.6102
    --------------------------------------------
      LOOP:  cpu time   19.3564: real time   19.5315

 eigenvalue-minimisations  :     0
 total energy-change (2. order) :-0.5610927E-06  (-0.3218801E-06)
 number of electron     216.0000000 magnetization 
 augmentation part       -0.3938768 magnetization 

 Free energy of the ion-electron system (eV)
  ---------------------------------------------------
  alpha Z        PSCENC =        59.93625244
  Ewald energy   TEWEN  =     30159.98826637
  -Hartree energ DENC   =    -37229.53799864
  -exchange      EXHF   =         0.00000000
  -V(xc)+E(xc)   XCENC  =       429.25484322
  PAW double counting   =     93714.75655967   -93415.04622240
  entropy T*S    EENTRO =        -0.00000000
  eigenvalues    EBANDS =     -2592.05793733
  atomic energy  EATOM  =      8461.08393172
  ---------------------------------------------------
  free energy    TOTEN  =      -411.62230495 eV

  energy without entropy =     -411.62230495  energy(sigma->0) =     -411.62230495


--------------------------------------------------------------------------------------------------------




--------------------------------------- Iteration      1(  23)  ---------------------------------------


    POTLOK:  cpu time    6.0523: real time    6.0993
    SETDIJ:  cpu time    0.0414: real time    0.0415
    TRIAL :  cpu time    5.3546: real time    5.4007
    CORREC:  cpu time    7.2706: real time    7.3439
    CHARGE:  cpu time    0.6048: real time    0.6089
    --------------------------------------------
      LOOP:  cpu time   19.4228: real time   19.5953

 eigenvalue-minimisations  :     0
 total energy-change (2. order) :-0.2427696E-06  (-0.1775122E-06)
 number of electron     216.0000000 magnetization 
 augmentation part       -0.3938767 magnetization 

 Free energy of the ion-electron system (eV)
  ---------------------------------------------------
  alpha Z        PSCENC =        59.93625244
  Ewald energy   TEWEN  =     30159.98826637
  -Hartree energ DENC   =    -37229.53850709
  -exchange      EXHF   =         0.00000000
  -V(xc)+E(xc)   XCENC  =       429.25481392
  PAW double counting   =     93714.14980558   -93414.43950981
  entropy T*S    EENTRO =        -0.00000000
  eigenvalues    EBANDS =     -2592.05735831
  atomic energy  EATOM  =      8461.08393172
  ---------------------------------------------------
  free energy    TOTEN  =      -411.62230519 eV

  energy without entropy =     -411.62230519  energy(sigma->0) =     -411.62230519


--------------------------------------------------------------------------------------------------------




--------------------------------------- Iteration      1(  24)  ---------------------------------------


    POTLOK:  cpu time    6.0641: real time    6.1130
    SETDIJ:  cpu time    0.0135: real time    0.0136
    TRIAL :  cpu time    5.3536: real time    5.3956
    CORREC:  cpu time    7.2585: real time    7.3126
    CHARGE:  cpu time    0.6059: real time    0.6100
    --------------------------------------------
      LOOP:  cpu time   19.3360: real time   19.4893

 eigenvalue-minimisations  :     0
 total energy-change (2. order) :-0.5209586E-07  (-0.1020467E-06)
 number of electron     216.0000000 magnetization 
 augmentation part       -0.3938775 magnetization 

 Free energy of the ion-electron system (eV)
  ---------------------------------------------------
  alpha Z        PSCENC =        59.93625244
  Ewald energy   TEWEN  =     30159.98826637
  -Hartree energ DENC   =    -37229.53394501
  -exchange      EXHF   =         0.00000000
  -V(xc)+E(xc)   XCENC  =       429.25466509
  PAW double counting   =     93713.08638003   -93413.37610337
  entropy T*S    EENTRO =        -0.00000000
  eigenvalues    EBANDS =     -2592.06175251
  atomic energy  EATOM  =      8461.08393172
  ---------------------------------------------------
  free energy    TOTEN  =      -411.62230524 eV

  energy without entropy =     -411.62230524  energy(sigma->0) =     -411.62230524


--------------------------------------------------------------------------------------------------------




--------------------------------------- Iteration      1(  25)  ---------------------------------------


    POTLOK:  cpu time    6.0468: real time    6.0997
    SETDIJ:  cpu time    0.0819: real time    0.0822
    TRIAL :  cpu time    5.3629: real time    5.4099
    CORREC:  cpu time    7.2575: real time    7.3138
    EDDIAG:  cpu time    0.8521: real time    0.8601
    CHARGE:  cpu time    0.6055: real time    0.6100
    --------------------------------------------
      LOOP:  cpu time   20.2303: real time   20.4324

 eigenvalue-minimisations  :     0
 total energy-change (2. order) :-0.9937503E-07  (-0.2988080E-07)
 number of electron     216.0000000 magnetization 
 augmentation part       -0.3938789 magnetization 

 Free energy of the ion-electron system (eV)
  ---------------------------------------------------
  alpha Z        PSCENC =        59.93625244
  Ewald energy   TEWEN  =     30159.98826637
  -Hartree energ DENC   =    -37229.53451598
  -exchange      EXHF   =         0.00000000
  -V(xc)+E(xc)   XCENC  =       429.25471816
  PAW double counting   =     93713.17420326   -93413.46392583
  entropy T*S    EENTRO =        -0.00000000
  eigenvalues    EBANDS =     -2592.06123548
  atomic energy  EATOM  =      8461.08393172
  ---------------------------------------------------
  free energy    TOTEN  =      -411.62230534 eV

  energy without entropy =     -411.62230534  energy(sigma->0) =     -411.62230534


--------------------------------------------------------------------------------------------------------


  average scaling for gradient   0.8907


 average (electrostatic) potential at core
  the test charge radii are     0.5770  0.5955
  (the norm of the test charge is              1.0000)
       1 -85.9890       2 -85.9884       3 -85.9893       4 -85.9900       5 -85.9876
       6 -85.9874       7 -85.9891       8 -85.9878       9 -85.9881      10 -85.9887
      11 -85.9874      12 -85.9875      13 -85.9886      14 -85.9880      15 -85.9873
      16 -85.9876      17 -85.9881      18 -85.9885      19 -85.9889      20 -85.9882
      21 -85.9873      22 -85.9871      23 -85.9905      24 -85.9904      25 -85.9872
      26 -85.9875      27 -85.9882      28 -85.9893      29 -85.9873      30 -85.9873
      31 -85.9896      32 -85.9889      33 -85.9877      34 -85.9875      35 -85.9876
      36 -85.9877      37 -85.9884      38 -85.9887      39 -85.9887      40 -85.9886
      41 -85.9886      42 -85.9888      43 -85.9882      44 -85.9890      45 -85.9873
      46 -85.9875      47 -85.9875      48 -85.9874      49 -85.9887      50 -85.9882
      51 -89.9645      52-120.2724      53-120.2718
 
 
 
 E-fermi :  -4.1027     XC(G=0):  -3.1942     alpha+bet : -2.1113

 Fermi energy:        -4.1026788426

 k-point     1 :       0.0000    0.0000    0.0000
  band No.  band energies     occupation 
      1     -27.4142      2.00000
      2     -26.4330      2.00000
      3     -22.1246      2.00000
      4     -21.1911      2.00000
      5     -21.1899      2.00000
      6     -21.1897      2.00000
      7     -21.1893      2.00000
      8     -21.1891      2.00000
      9     -21.1889      2.00000
     10     -19.3589      2.00000
     11     -19.3588      2.00000
     12     -19.3585      2.00000
     13     -19.3579      2.00000
     14     -19.3575      2.00000
     15     -19.3573      2.00000
     16     -18.4680      2.00000
     17     -18.4679      2.00000
     18     -18.4675      2.00000
     19     -18.4672      2.00000
     20     -18.4665      2.00000
     21     -18.4663      2.00000
     22     -16.3251      2.00000
     23     -16.3247      2.00000
     24     -16.3240      2.00000
     25     -16.3238      2.00000
     26     -16.3234      2.00000
     27     -16.3233      2.00000
     28     -15.3315      2.00000
     29     -15.3314      2.00000
     30     -15.3305      2.00000
     31     -15.3303      2.00000
     32     -15.3299      2.00000
     33     -15.3298      2.00000
     34     -13.9931      2.00000
     35     -13.9930      2.00000
     36     -13.9924      2.00000
     37     -13.9922      2.00000
     38     -13.9921      2.00000
     39     -13.9919      2.00000
     40     -12.2676      2.00000
     41     -11.6400      2.00000
     42     -11.6397      2.00000
     43     -11.6393      2.00000
     44     -11.6392      2.00000
     45     -11.6381      2.00000
     46     -11.6379      2.00000
     47     -11.5289      2.00000
     48     -11.5288      2.00000
     49     -11.5281      2.00000
     50     -11.5281      2.00000
     51     -11.5278      2.00000
     52     -11.5277      2.00000
     53     -11.1253      2.00000
     54     -11.0325      2.00000
     55     -11.0323      2.00000
     56     -10.2873      2.00000
     57     -10.1650      2.00000
     58     -10.1649      2.00000
     59     -10.1633      2.00000
     60     -10.1630      2.00000
     61     -10.1628      2.00000
     62     -10.1627      2.00000
     63      -9.1728      2.00000
     64      -9.1722      2.00000
     65      -9.1721      2.00000
     66      -9.1713      2.00000
     67      -9.1710      2.00000
     68      -9.1709      2.00000
     69      -8.9244      2.00000
     70      -8.9236      2.00000
     71      -8.9231      2.00000
     72      -8.9231      2.00000
     73      -8.9227      2.00000
     74      -8.9225      2.00000
     75      -8.8650      2.00000
     76      -8.8647      2.00000
     77      -8.8641      2.00000
     78      -8.8640      2.00000
     79      -8.8638      2.00000
     80      -8.8629      2.00000
     81      -7.5085      2.00000
     82      -7.5083      2.00000
     83      -7.2880      2.00000
     84      -7.2863      2.00000
     85      -7.2862      2.00000
     86      -7.2858      2.00000
     87      -7.2848      2.00000
     88      -7.2848      2.00000
     89      -7.0465      2.00000
     90      -7.0462      2.00000
     91      -7.0460      2.00000
     92      -7.0456      2.00000
     93      -7.0454      2.00000
     94      -7.0452      2.00000
     95      -6.1519      2.00000
     96      -6.1517      2.00000
     97      -6.1513      2.00000
     98      -6.1511      2.00000
     99      -6.1507      2.00000
    100      -6.1505      2.00000
    101      -5.8260      2.00000
    102      -5.8238      2.00000
    103      -4.1739      2.00000
    104      -4.1735      2.00000
    105      -4.1730      2.00000
    106      -4.1730      2.00000
    107      -4.1723      2.00000
    108      -4.1721      2.00000
    109      -1.3781      0.00000
    110      -1.3778      0.00000
    111      -1.3774      0.00000
    112      -1.3772      0.00000
    113      -1.3766      0.00000
    114      -1.3764      0.00000
    115      -0.2837      0.00000
    116       0.2842      0.00000
    117       0.4792      0.00000
    118       0.4795      0.00000
    119       0.4800      0.00000
    120       0.4802      0.00000
    121       0.4803      0.00000
    122       0.4819      0.00000
    123       0.5131      0.00000
    124       0.7556      0.00000
    125       0.8890      0.00000
    126       0.9378      0.00000
    127       0.9393      0.00000
    128       1.0494      0.00000
    129       1.2404      0.00000
    130       1.3293      0.00000
    131       1.4209      0.00000
    132       1.5146      0.00000
    133       1.5637      0.00000
    134       1.6259      0.00000
    135       1.6338      0.00000
    136       1.6557      0.00000
    137       1.7349      0.00000
    138       1.7979      0.00000
    139       1.8896      0.00000
    140       2.1833      0.00000
    141       2.1886      0.00000
    142       2.2099      0.00000
    143       2.2101      0.00000
    144       2.2105      0.00000
    145       2.2109      0.00000
    146       2.2110      0.00000
    147       2.2114      0.00000
    148       2.2121      0.00000
    149       2.2327      0.00000
    150       2.2703      0.00000
    151       2.2881      0.00000
    152       2.8525      0.00000
    153       3.1538      0.00000
    154       3.1628      0.00000
    155       3.4179      0.00000
    156       3.6418      0.00000
    157       3.8093      0.00000
    158       3.9070      0.00000
    159       4.0093      0.00000
    160       4.2126      0.00000
    161       4.3640      0.00000
    162       4.4118      0.00000
    163       4.8478      0.00000
    164       4.9049      0.00000
    165       4.9098      0.00000
    166       4.9106      0.00000
    167       4.9128      0.00000
    168       4.9177      0.00000


--------------------------------------------------------------------------------------------------------


 soft charge-density along one line, spin component           1
         0         1         2         3         4         5         6         7         8         9
 total charge-density along one line
 
 pseudopotential strength for first ion, spin component:           1
 12.674  21.329   0.000   0.000   0.000   0.000   0.000   0.000
 21.329  35.891   0.000   0.000   0.000   0.000   0.000   0.000
  0.000   0.000  -3.238  -0.000   0.000  -5.804  -0.000   0.000
  0.000   0.000  -0.000  -3.246  -0.000  -0.000  -5.818  -0.000
  0.000   0.000   0.000  -0.000  -3.238   0.000  -0.000  -5.804
  0.000   0.000  -5.804  -0.000   0.000 -10.380  -0.000   0.000
  0.000   0.000  -0.000  -5.818  -0.000  -0.000 -10.405  -0.000
  0.000   0.000   0.000  -0.000  -5.804   0.000  -0.000 -10.380
 total augmentation occupancy for first ion, spin component:           1
  6.917  -2.317  -0.000  -0.002  -0.000   0.000   0.001   0.000
 -2.317   0.818   0.000   0.001   0.000  -0.000  -0.000  -0.000
 -0.000   0.000   6.628  -0.007   0.000  -2.167   0.003  -0.000
 -0.002   0.001  -0.007   2.819  -0.000   0.003  -0.689   0.000
 -0.000   0.000   0.000  -0.000   6.627  -0.000   0.000  -2.167
  0.000  -0.000  -2.167   0.003  -0.000   0.725  -0.001   0.000
  0.001  -0.000   0.003  -0.689   0.000  -0.001   0.176  -0.000
  0.000  -0.000  -0.000   0.000  -2.167   0.000  -0.000   0.724


------------------------ aborting loop because EDIFF is reached ----------------------------------------


    FORLOC:  cpu time    0.1048: real time    0.1056
    FORNL :  cpu time    2.9086: real time    2.9380
    FORCOR:  cpu time    6.0597: real time    6.1129
    OFIELD:  cpu time    0.0023: real time    0.0023

 VOLUME and BASIS-vectors are now :
 -----------------------------------------------------------------------------
  energy-cutoff  :     1000.00
  volume of cell :     2631.08
      direct lattice vectors                 reciprocal lattice vectors
    12.325000000  0.000000000  0.000000000     0.081135903  0.046843835  0.000000000
    -6.162500000 10.673763102  0.000000000     0.000000000  0.093687670  0.000000000
     0.000000000  0.000000000 20.000000000     0.000000000  0.000000000  0.050000000

  length of vectors
    12.325000000 12.325000000 20.000000000     0.093687670  0.093687670  0.050000000


 FORCES acting on ions:
    Electron-Ion                     Ewald-Force                    Non-Local-Force
 -----------------------------------------------------------------------------------------------
   0.143E+01 0.124E+01 0.119E+02   -.143E+01 -.124E+01 -.119E+02   0.522E-02 -.723E-03 0.646E-02
   0.198E+01 0.101E+01 0.133E+02   -.199E+01 -.101E+01 -.133E+02   0.409E-02 -.328E-02 -.552E-02
   0.806E+00 0.220E+01 0.138E+02   -.808E+00 -.220E+01 -.138E+02   -.315E-03 0.124E-01 -.256E-04
   0.102E+01 0.147E+01 0.168E+02   -.102E+01 -.147E+01 -.168E+02   0.123E-01 0.102E-02 -.136E-01
   0.154E+01 0.381E+00 0.123E+02   -.154E+01 -.381E+00 -.123E+02   0.137E-03 -.573E-02 0.327E-02
   0.157E+01 -.338E+00 0.125E+02   -.157E+01 0.340E+00 -.125E+02   -.613E-02 0.309E-02 -.315E-02
   0.196E+01 0.759E+00 0.165E+02   -.197E+01 -.759E+00 -.165E+02   0.130E-01 -.194E-01 -.565E-02
   0.195E+01 -.670E+00 0.177E+02   -.195E+01 0.674E+00 -.176E+02   -.568E-02 -.607E-02 -.560E-02
   -.979E+00 0.204E+01 0.141E+02   0.984E+00 -.205E+01 -.141E+02   -.970E-03 -.118E-01 -.483E-02
   -.135E+01 0.115E+01 0.169E+02   0.135E+01 -.115E+01 -.169E+02   -.267E-01 0.155E-01 0.308E-02
   0.406E+00 -.424E+00 0.112E+02   -.403E+00 0.423E+00 -.112E+02   0.348E-02 -.271E-02 -.162E-03
   0.378E+00 -.319E+00 0.109E+02   -.378E+00 0.319E+00 -.109E+02   -.714E-02 0.347E-02 0.592E-02
   0.688E+00 -.158E+01 0.187E+02   -.690E+00 0.158E+01 -.187E+02   0.274E-01 -.845E-02 -.171E-02
   0.421E+00 -.226E+01 0.152E+02   -.426E+00 0.227E+01 -.152E+02   0.453E-02 0.576E-02 -.161E-01
   -.142E+01 0.860E+00 0.118E+02   0.142E+01 -.862E+00 -.118E+02   0.713E-02 -.367E-02 0.717E-02
   -.185E+01 0.540E+00 0.123E+02   0.185E+01 -.540E+00 -.123E+02   -.232E-02 0.560E-02 -.512E-02
   -.263E+00 -.104E+00 0.104E+02   0.267E+00 0.102E+00 -.104E+02   -.787E-03 0.564E-03 0.199E-02
   0.116E+00 0.898E+00 0.107E+02   -.115E+00 -.899E+00 -.107E+02   -.328E-02 0.188E-02 0.939E-02
   -.364E+00 -.218E+01 0.134E+02   0.363E+00 0.219E+01 -.134E+02   0.653E-02 -.226E-02 0.633E-03
   -.211E+00 -.132E+01 0.115E+02   0.207E+00 0.132E+01 -.115E+02   0.476E-03 -.144E-02 -.707E-03
   0.201E+01 -.878E+00 0.143E+02   -.201E+01 0.879E+00 -.143E+02   -.970E-03 -.272E-02 -.171E-01
   0.141E+01 -.114E+01 0.130E+02   -.142E+01 0.115E+01 -.130E+02   -.650E-02 0.510E-02 -.249E-02
   -.356E+00 0.643E+00 0.191E+02   0.352E+00 -.641E+00 -.191E+02   -.106E-01 0.108E-01 0.242E-02
   -.486E+00 -.101E+01 0.190E+02   0.487E+00 0.101E+01 -.189E+02   0.123E-01 -.153E-01 -.933E-02
   0.773E+00 -.286E+00 0.113E+02   -.771E+00 0.285E+00 -.113E+02   0.338E-02 -.251E-02 -.349E-02
   0.206E+00 0.668E+00 0.112E+02   -.205E+00 -.668E+00 -.112E+02   -.551E-02 0.368E-02 0.550E-02
   -.224E+01 0.276E+00 0.147E+02   0.224E+01 -.279E+00 -.147E+02   0.106E-01 0.823E-02 -.204E-02
   -.212E+01 -.852E+00 0.140E+02   0.213E+01 0.852E+00 -.141E+02   -.953E-02 0.926E-02 0.140E-02
   0.802E+00 -.163E+01 0.132E+02   -.803E+00 0.163E+01 -.132E+02   0.496E-02 0.184E-02 -.705E-02
   0.689E-01 -.717E+00 0.117E+02   -.714E-01 0.719E+00 -.117E+02   -.450E-02 0.229E-02 -.248E-02
   -.152E+01 -.155E+01 0.155E+02   0.152E+01 0.155E+01 -.155E+02   -.124E-01 -.821E-02 -.119E-01
   -.110E+01 -.207E+01 0.134E+02   0.110E+01 0.207E+01 -.134E+02   0.686E-03 -.183E-02 0.268E-02
   0.951E-01 0.429E+00 0.108E+02   -.956E-01 -.429E+00 -.108E+02   0.538E-02 -.473E-02 0.710E-02
   0.258E+00 0.399E+00 0.111E+02   -.261E+00 -.398E+00 -.111E+02   -.210E-02 0.446E-02 -.125E-02
   -.974E+00 0.175E+00 0.114E+02   0.977E+00 -.177E+00 -.114E+02   0.387E-02 -.229E-02 0.591E-02
   -.865E+00 -.389E+00 0.113E+02   0.865E+00 0.389E+00 -.113E+02   -.446E-02 0.251E-02 0.376E-02
   -.164E+01 -.876E+00 0.119E+02   0.165E+01 0.874E+00 -.119E+02   -.175E-02 0.103E-02 0.356E-02
   -.109E+01 -.868E+00 0.111E+02   0.109E+01 0.868E+00 -.111E+02   -.437E-02 0.128E-02 0.923E-02
   -.986E+00 -.125E+01 0.114E+02   0.986E+00 0.125E+01 -.114E+02   -.331E-02 0.533E-04 0.504E-02
   -.148E+00 -.342E+00 0.108E+02   0.149E+00 0.341E+00 -.108E+02   0.199E-02 0.428E-03 0.752E-02
   0.372E+00 0.934E+00 0.108E+02   -.373E+00 -.935E+00 -.108E+02   -.406E-02 0.201E-02 0.711E-02
   0.112E+01 0.172E+01 0.120E+02   -.112E+01 -.173E+01 -.120E+02   -.193E-03 -.561E-03 0.811E-02
   0.118E+00 0.154E+01 0.112E+02   -.114E+00 -.155E+01 -.112E+02   -.680E-03 0.130E-02 0.227E-02
   -.187E-01 0.227E+01 0.131E+02   0.204E-01 -.227E+01 -.131E+02   -.857E-02 0.247E-02 0.563E-02
   -.295E+00 0.553E+00 0.115E+02   0.297E+00 -.555E+00 -.115E+02   0.386E-02 -.281E-02 0.126E-02
   -.109E+01 0.135E+01 0.122E+02   0.109E+01 -.135E+01 -.122E+02   -.656E-02 0.649E-03 -.156E-02
   -.290E+00 -.677E+00 0.113E+02   0.289E+00 0.677E+00 -.113E+02   0.654E-02 -.148E-02 0.587E-02
   -.611E+00 0.218E+00 0.108E+02   0.609E+00 -.218E+00 -.108E+02   -.338E-02 0.318E-02 -.322E-02
   0.644E-01 -.419E+00 0.108E+02   -.651E-01 0.419E+00 -.108E+02   0.450E-02 -.326E-02 0.585E-02
   0.666E+00 0.474E+00 0.108E+02   -.669E+00 -.472E+00 -.108E+02   0.297E-03 0.153E-02 0.331E-02
   0.240E-02 0.220E-01 -.161E+03   -.628E-02 -.185E-01 0.161E+03   -.289E-02 0.196E-02 -.114E-02
   -.229E+03 0.156E+03 -.253E+03   0.279E+03 -.190E+03 0.256E+03   -.513E+02 0.349E+02 -.345E+01
   0.229E+03 -.156E+03 -.233E+03   -.279E+03 0.190E+03 0.230E+03   0.513E+02 -.349E+02 0.310E+01
 -----------------------------------------------------------------------------------------------
   -.715E-02 0.137E-01 0.347E+00   0.000E+00 0.568E-13 0.568E-13   0.700E-02 -.137E-01 -.346E+00
 
 
 POSITION                                       TOTAL-FORCE (eV/Angst)
 -----------------------------------------------------------------------------------
     11.98348      0.00342      0.01417         0.003114     -0.001656     -0.000967
     -0.34154      1.42665      0.01100        -0.000937      0.000052     -0.003372
      2.12355      0.00315      0.01249        -0.001830      0.010599     -0.006332
      2.12326      1.42653      0.00641         0.013401      0.001194     -0.008065
     10.75099      2.13819      0.01213         0.000375     -0.005561      0.000042
     -1.57382      3.56123      0.01110        -0.008901      0.004704     -0.001349
      0.89078      2.13854      0.00548         0.009434     -0.018975      0.002523
      0.89099      3.56147      0.00181        -0.011969     -0.002283      0.012011
      4.58864      0.00346      0.01135         0.003779     -0.015856     -0.003530
      4.58894      1.42623      0.00646        -0.023239      0.013096      0.013870
      9.51854      4.27281      0.01369         0.006584     -0.003050      0.000101
     -2.80632      5.69591      0.01434        -0.006449      0.003320      0.000684
      2.12300      4.27302      0.00000         0.024823     -0.004867      0.020639
      2.12335      5.69594      0.00581        -0.000765      0.009228     -0.002583
      7.05344      0.00333      0.01399         0.009266     -0.005245     -0.000326
      7.05353      1.42635      0.01368        -0.001536      0.004797     -0.003615
      8.28610      6.40752      0.01601         0.003018     -0.001517     -0.000703
     -4.03885      7.83070      0.01636        -0.002177      0.000842      0.000038
      3.35586      6.40753      0.01007         0.005447      0.000613     -0.001193
      3.35599      7.83072      0.01320        -0.003268      0.000124     -0.000684
     -0.34146      4.27290      0.00723        -0.001966     -0.001310     -0.004475
     -0.34138      5.69591      0.00946        -0.009054      0.006477     -0.000986
      3.35624      2.13791      0.00222        -0.013680      0.011928      0.016217
      3.35573      3.56155      0.00139         0.013670     -0.015861      0.008788
     -1.57395      6.40758      0.01311         0.005396     -0.003968     -0.000635
     -1.57385      7.83068      0.01438        -0.004718      0.003724      0.000001
      5.82093      2.13784      0.01033         0.016144      0.005023     -0.002916
      5.82114      3.56097      0.01156        -0.006191      0.008540     -0.003696
      0.89092      6.40755      0.00907         0.004443      0.002275     -0.002237
      0.89106      7.83068      0.01235        -0.006801      0.003883      0.000366
      4.58871      4.27293      0.00850        -0.012875     -0.006276     -0.010702
      4.58852      5.69606      0.01149         0.002017     -0.001138     -0.003778
      9.51845      0.00337      0.01490         0.004665     -0.004589      0.000207
      9.51855      1.42644      0.01438        -0.005167      0.005407     -0.000369
      8.28593      2.13803      0.01453         0.006694     -0.003351      0.000532
      8.28613      3.56115      0.01464        -0.004277      0.002151     -0.000062
      7.05356      4.27269      0.01457         0.002826     -0.001127     -0.000477
      7.05362      5.69588      0.01553        -0.002426      0.001524     -0.000037
      5.82112      6.40755      0.01489        -0.002927      0.001634     -0.000037
      5.82102      7.83073      0.01579         0.002704      0.000243     -0.000182
      7.05363      8.54227      0.01631        -0.004641      0.001211      0.001185
     -5.27149      9.96549      0.01495         0.000170     -0.002088     -0.002001
     -2.80638      8.54234      0.01558         0.003268     -0.001511     -0.001056
     -2.80627      9.96553      0.01362        -0.006703     -0.000186     -0.003800
     -0.34149      8.54239      0.01378         0.005760     -0.004903      0.000131
     -0.34138      9.96550      0.01354        -0.005695     -0.000132     -0.001116
      2.12343      8.54232      0.01336         0.005775     -0.001516      0.000671
      2.12354      9.96544      0.01469        -0.005178      0.003810     -0.001872
      4.58846      8.54235      0.01505         0.003626     -0.002776      0.001070
      4.58853      9.96550      0.01517        -0.002882      0.003321      0.000220
      3.04930      2.68154      7.07107        -0.006722      0.005458      0.031462
      4.02070      2.02068      7.13549        -0.659835      0.448548     -0.060672
      2.07767      3.34267      7.01161         0.666409     -0.453981      0.023067
 -----------------------------------------------------------------------------------
    total drift:                               -0.000158      0.000024      0.001384


--------------------------------------------------------------------------------------------------------



  FREE ENERGIE OF THE ION-ELECTRON SYSTEM (eV)
  ---------------------------------------------------
  free  energy   TOTEN  =      -411.62230534 eV

  energy  without entropy=     -411.62230534  energy(sigma->0) =     -411.62230534
 


--------------------------------------------------------------------------------------------------------


    POTLOK:  cpu time    6.1213: real time    6.1745


--------------------------------------------------------------------------------------------------------


 writing wavefunctions
     LOOP+:  cpu time  509.2461: real time  514.2609
    4ORBIT:  cpu time    0.0000: real time    0.0000

 total amount of memory used by VASP MPI-rank0   441788. kBytes
=======================================================================

   base      :      30000. kBytes
   nonl-proj :     184518. kBytes
   fftplans  :      31725. kBytes
   grid      :     168095. kBytes
   one-center:        162. kBytes
   wavefun   :      27288. kBytes
 
  
  
 General timing and accounting informations for this job:
 ========================================================
  
                  Total CPU time used (sec):      548.981
                            User time (sec):      520.012
                          System time (sec):       28.969
                         Elapsed time (sec):      555.580
  
                   Maximum memory used (kb):     1110472.
                   Average memory used (kb):          N/A
  
                          Minor page faults:       460351
                          Major page faults:           87
                 Voluntary context switches:         3513
