 vasp.6.2.1 16May21 (build Nov 06 2021 14:46:37) complex                        
  
 executed on             LinuxIFC date 2025.04.16  17:11:09
 running on  112 total cores
 distrk:  each k-point on   56 cores,    2 groups
 distr:  one band on NCORE=   1 cores,   56 groups


--------------------------------------------------------------------------------------------------------


 INCAR:
   ALGO = Conjugate
   KPAR = 2
   NCORE = 32
   ISMEAR = 0
   SIGMA = 0.01
   PREC = Accurate
   EDIFF = 1E-7
   ENCUT = 1000
   ISIF = 0
   GGA = BO
   PARAM1 = 0.1833333333
   PARAM2 = 0.2200000000
   LUSE_VDW = .TRUE.
   AGGAC = 0.0000
   LASPH = .TRUE.
   SYMPREC = 1E-7

 POTCAR:    PAW_PBE C_h 06Feb2004                 
 POTCAR:    PAW_PBE O_h 06Feb2004                 
 -----------------------------------------------------------------------------
|                                                                             |
|           W    W    AA    RRRRR   N    N  II  N    N   GGGG   !!!           |
|           W    W   A  A   R    R  NN   N  II  NN   N  G    G  !!!           |
|           W    W  A    A  R    R  N N  N  II  N N  N  G       !!!           |
|           W WW W  AAAAAA  RRRRR   N  N N  II  N  N N  G  GGG   !            |
|           WW  WW  A    A  R   R   N   NN  II  N   NN  G    G                |
|           W    W  A    A  R    R  N    N  II  N    N   GGGG   !!!           |
|                                                                             |
|     The value NCORE = 32 specified in the INCAR file was overwritten,       |
|     because it was not compatible with the 56 processes available:          |
|     NCORE = 1                                                               |
|     was used instead, please check that this makes sense for your           |
|     machine.                                                                |
|                                                                             |
 -----------------------------------------------------------------------------

 -----------------------------------------------------------------------------
|                                                                             |
|           W    W    AA    RRRRR   N    N  II  N    N   GGGG   !!!           |
|           W    W   A  A   R    R  NN   N  II  NN   N  G    G  !!!           |
|           W    W  A    A  R    R  N N  N  II  N N  N  G       !!!           |
|           W WW W  AAAAAA  RRRRR   N  N N  II  N  N N  G  GGG   !            |
|           WW  WW  A    A  R   R   N   NN  II  N   NN  G    G                |
|           W    W  A    A  R    R  N    N  II  N    N   GGGG   !!!           |
|                                                                             |
|     For optimal performance we recommend to set                             |
|       NCORE = 2 up to number-of-cores-per-socket                            |
|     NCORE specifies how many cores store one orbital (NPAR=cpu/NCORE).      |
|     This setting can greatly improve the performance of VASP for DFT.       |
|     The default, NCORE=1 might be grossly inefficient on modern             |
|     multi-core architectures or massively parallel machines. Do your        |
|     own testing! More info at https://www.vasp.at/wiki/index.php/NCORE      |
|     Unfortunately you need to use the default for GW and RPA                |
|     calculations (for HF NCORE is supported but not extensively tested      |
|     yet).                                                                   |
|                                                                             |
 -----------------------------------------------------------------------------

 -----------------------------------------------------------------------------
|                                                                             |
|               ----> ADVICE to this user running VASP <----                  |
|                                                                             |
|     You have switched on vdW-DFT.                                           |
|     This routine was written and supplied by Jiri Klimes. We recommend      |
|     that you carefully read and cite the following publications:            |
|       J. Klimes, D.R. Bowler, A. Michelides                                 |
|          J. Phys.: Cond Matt. 22 022201 (2010)                              |
|       J. Klimes, D.R. Bowler, A. Michelides                                 |
|          Phys. Rev. B. 83, 195131 (2011)                                    |
|     and references therein.                                                 |
|                                                                             |
 -----------------------------------------------------------------------------

 POTCAR:    PAW_PBE C_h 06Feb2004                 
   VRHFIN =C: s2p2                                                                                  
   LEXCH  = PE                                                                                      
   EATOM  =   147.1560 eV,   10.8157 Ry                                                             
                                                                                                    
   TITEL  = PAW_PBE C_h 06Feb2004                                                                   
   LULTRA =        F    use ultrasoft PP ?                                                          
   IUNSCR =        1    unscreen: 0-lin 1-nonlin 2-no                                               
   RPACOR =    0.800    partial core radius                                                         
   POMASS =   12.011; ZVAL   =    4.000    mass and valenz                                          
   RCORE  =    1.100    outmost cutoff radius                                                       
   RWIGS  =    1.630; RWIGS  =    0.863    wigner-seitz radius (au A)                               
   ENMAX  =  700.000; ENMIN  =  500.000 eV                                                          
   ICORE  =        2    local potential                                                             
   LCOR   =        T    correct aug charges                                                         
   LPAW   =        T    paw PP                                                                      
   EAUG   =  946.768                                                                                
   DEXC   =    0.000                                                                                
   RMAX   =    1.128    core radius for proj-oper                                                   
   RAUG   =    1.300    factor for augmentation sphere                                              
   RDEP   =    1.162    radius for radial grids                                                     
   RDEPT  =    1.088    core radius for aug-charge                                                  
                                                                                                    
   Atomic configuration                                                                             
    4 entries                                                                                       
     n  l   j            E        occ.                                                              
     1  0  0.50      -273.3789   2.0000                                                             
     2  0  0.50       -13.7508   2.0000                                                             
     2  1  0.50        -5.2854   2.0000                                                             
     3  2  1.50        -5.4423   0.0000                                                             
   Description                                                                                      
     l       E           TYP  RCUT    TYP  RCUT                                                     
     0    -13.7508458     23  1.100                                                                 
     0     -8.2022199     23  1.100                                                                 
     1     -5.2854383     23  1.100                                                                 
     1      1.1560700     23  1.100                                                                 
     2     -5.4423304      7  1.100                                                                 
  local pseudopotential read in
  partial core-charges read in
  partial kinetic energy density read in
  atomic valenz-charges read in
  non local Contribution for L=           0  read in
    real space projection operators read in
  non local Contribution for L=           0  read in
    real space projection operators read in
  non local Contribution for L=           1  read in
    real space projection operators read in
  non local Contribution for L=           1  read in
    real space projection operators read in
    PAW grid and wavefunctions read in
 
   number of l-projection  operators is LMAX  =           4
   number of lm-projection operators is LMMAX =           8
 
 POTCAR:    PAW_PBE O_h 06Feb2004                 
   VRHFIN =O: s2p4                                                                                  
   LEXCH  = PE                                                                                      
   EATOM  =   432.3788 eV,   31.7789 Ry                                                             
                                                                                                    
   TITEL  = PAW_PBE O_h 06Feb2004                                                                   
   LULTRA =        F    use ultrasoft PP ?                                                          
   IUNSCR =        1    unscreen: 0-lin 1-nonlin 2-no                                               
   RPACOR =    0.800    partial core radius                                                         
   POMASS =   16.000; ZVAL   =    6.000    mass and valenz                                          
   RCORE  =    1.100    outmost cutoff radius                                                       
   RWIGS  =    1.400; RWIGS  =    0.741    wigner-seitz radius (au A)                               
   ENMAX  =  700.000; ENMIN  =  500.000 eV                                                          
   ICORE  =        2    local potential                                                             
   LCOR   =        T    correct aug charges                                                         
   LPAW   =        T    paw PP                                                                      
   EAUG   =  888.804                                                                                
   DEXC   =    0.000                                                                                
   RMAX   =    1.128    core radius for proj-oper                                                   
   RAUG   =    1.300    factor for augmentation sphere                                              
   RDEP   =    1.125    radius for radial grids                                                     
   RDEPT  =    1.088    core radius for aug-charge                                                  
                                                                                                    
   Atomic configuration                                                                             
    4 entries                                                                                       
     n  l   j            E        occ.                                                              
     1  0  0.50      -514.6923   2.0000                                                             
     2  0  0.50       -23.9615   2.0000                                                             
     2  1  0.50        -9.0305   4.0000                                                             
     3  2  1.50        -9.5241   0.0000                                                             
   Description                                                                                      
     l       E           TYP  RCUT    TYP  RCUT                                                     
     0    -23.9615319     23  1.100                                                                 
     0    -25.3221145     23  1.100                                                                 
     1     -9.0304911     23  1.100                                                                 
     1     -5.4802209     23  1.100                                                                 
     2     -9.5240782      7  1.100                                                                 
  local pseudopotential read in
  partial core-charges read in
  partial kinetic energy density read in
  atomic valenz-charges read in
  non local Contribution for L=           0  read in
    real space projection operators read in
  non local Contribution for L=           0  read in
    real space projection operators read in
  non local Contribution for L=           1  read in
    real space projection operators read in
  non local Contribution for L=           1  read in
    real space projection operators read in
    PAW grid and wavefunctions read in
 
   number of l-projection  operators is LMAX  =           4
   number of lm-projection operators is LMMAX =           8
 
 -----------------------------------------------------------------------------
|                                                                             |
|               ----> ADVICE to this user running VASP <----                  |
|                                                                             |
|     You have a (more or less) 'large supercell' and for larger cells it     |
|     might be more efficient to use real-space projection operators.         |
|     Therefore, try LREAL= Auto in the INCAR file.                           |
|     Mind: For very accurate calculation, you might also keep the            |
|     reciprocal projection scheme (i.e. LREAL=.FALSE.).                      |
|                                                                             |
 -----------------------------------------------------------------------------

 -----------------------------------------------------------------------------
|                                                                             |
|               ----> ADVICE to this user running VASP <----                  |
|                                                                             |
|     You enforced a specific xc type in the INCAR file but a different       |
|     type was found in the POTCAR file.                                      |
|     I HOPE YOU KNOW WHAT YOU ARE DOING!                                     |
|                                                                             |
 -----------------------------------------------------------------------------

  PAW_PBE C_h 06Feb2004                 :
 energy of atom  1       EATOM= -147.1560
 kinetic energy error for atom=    0.0031 (will be added to EATOM!!)
  PAW_PBE O_h 06Feb2004                 :
 energy of atom  2       EATOM= -432.3788
 kinetic energy error for atom=    0.0171 (will be added to EATOM!!)
 
 
 POSCAR:  C  O
  positions in cartesian coordinates
  No initial velocities read in
 exchange correlation table for  LEXCH =       42
   RHO(1)=    0.500       N(1)  =     2000
   RHO(2)=  100.500       N(2)  =     4000
 


--------------------------------------------------------------------------------------------------------


 ion  position               nearest neighbor table
   1  0.972  0.000  0.001-  50 1.42   2 1.42  42 1.42
   2  0.039  0.134  0.000-   5 1.42   7 1.42   1 1.42
   3  0.172  0.000  0.000-  42 1.42  44 1.42   4 1.42
   4  0.239  0.134  0.000-   7 1.42   3 1.42  23 1.42
   5  0.972  0.200  0.000-   6 1.42   2 1.42  34 1.42
   6  0.039  0.334  0.000-   5 1.42  21 1.42  11 1.42
   7  0.172  0.200  0.000-   8 1.42   2 1.42   4 1.42
   8  0.239  0.334  0.000-  13 1.42   7 1.42  21 1.42
   9  0.372  0.000  0.000-  10 1.42  44 1.42  46 1.42
  10  0.439  0.134  0.000-  27 1.42   9 1.42  23 1.42
  11  0.972  0.400  0.001-  12 1.42  36 1.42   6 1.42
  12  0.039  0.534  0.001-  25 1.42  11 1.42  17 1.42
  13  0.372  0.400  0.000-   8 1.42  14 1.42  24 1.42
  14  0.439  0.534  0.000-  13 1.42  29 1.42  19 1.42
  15  0.572  0.000  0.001-  46 1.42  16 1.42  48 1.42
  16  0.639  0.134  0.001-  15 1.42  35 1.42  27 1.42
  17  0.972  0.600  0.001-  38 1.42  18 1.42  12 1.42
  18  0.039  0.734  0.001-  43 1.42  41 1.42  17 1.42
  19  0.572  0.600  0.000-  14 1.42  20 1.42  32 1.42
  20  0.639  0.734  0.001-  49 1.42  19 1.42  47 1.42
  21  0.172  0.400  0.000-  22 1.42   8 1.42   6 1.42
  22  0.239  0.534  0.000-  21 1.42  29 1.42  25 1.42
  23  0.372  0.200  0.000-  10 1.42   4 1.42  24 1.42
  24  0.439  0.334  0.000-  13 1.42  31 1.42  23 1.42
  25  0.172  0.600  0.001-  26 1.42  12 1.42  22 1.42
  26  0.239  0.734  0.001-  25 1.42  45 1.42  43 1.42
  27  0.572  0.200  0.000-  10 1.42  28 1.42  16 1.42
  28  0.639  0.334  0.000-  27 1.42  37 1.42  31 1.42
  29  0.372  0.600  0.000-  22 1.42  14 1.42  30 1.42
  30  0.439  0.734  0.000-  47 1.42  29 1.42  45 1.42
  31  0.572  0.400  0.000-  32 1.42  28 1.42  24 1.42
  32  0.639  0.534  0.000-  31 1.42  39 1.42  19 1.42
  33  0.772  0.000  0.001-  34 1.42  48 1.42  50 1.42
  34  0.839  0.134  0.001-  33 1.42   5 1.42  35 1.42
  35  0.772  0.200  0.001-  36 1.42  16 1.42  34 1.42
  36  0.839  0.334  0.001-  35 1.42  11 1.42  37 1.42
  37  0.772  0.400  0.001-  28 1.42  38 1.42  36 1.42
  38  0.839  0.534  0.001-  17 1.42  37 1.42  39 1.42
  39  0.772  0.600  0.001-  40 1.42  38 1.42  32 1.42
  40  0.839  0.734  0.001-  39 1.42  49 1.42  41 1.42
  41  0.972  0.800  0.001-  18 1.42  42 1.42  40 1.42
  42  0.039  0.934  0.001-   3 1.42  41 1.42   1 1.42
  43  0.172  0.800  0.001-  18 1.42  44 1.42  26 1.42
  44  0.239  0.934  0.001-   9 1.42  43 1.42   3 1.42
  45  0.372  0.800  0.001-  26 1.42  46 1.42  30 1.42
  46  0.439  0.934  0.001-  15 1.42  45 1.42   9 1.42
  47  0.572  0.800  0.001-  30 1.42  48 1.42  20 1.42
  48  0.639  0.934  0.001-  47 1.42  33 1.42  15 1.42
  49  0.772  0.800  0.001-  50 1.42  20 1.42  40 1.42
  50  0.839  0.934  0.001-  49 1.42   1 1.42  33 1.42
  51  0.373  0.251  0.112-  52 1.18  53 1.18
  52  0.421  0.189  0.115-  51 1.18
  53  0.325  0.313  0.110-  51 1.18
 
  LATTYP: Found a hexagonal cell.
 ALAT       =    12.3250000000
 C/A-ratio  =     2.0283975659
  
  Lattice vectors:
  
 A1 = (  12.3250000000,   0.0000000000,   0.0000000000)
 A2 = (  -6.1625000000,  10.6737631016,   0.0000000000)
 A3 = (   0.0000000000,   0.0000000000,  25.0000000000)


Analysis of symmetry for initial positions (statically):
=====================================================================
 Subroutine PRICEL returns:
 Original cell was already a primitive cell.
 

 Routine SETGRP: Setting up the symmetry group for a 
 hexagonal supercell.


 Subroutine GETGRP returns: Found  1 space group operations
 (whereof  1 operations were pure point group operations)
 out of a pool of 24 trial point group operations.


The static configuration has the point symmetry C_1 .


Analysis of symmetry for dynamics (positions and initial velocities):
=====================================================================
 Subroutine PRICEL returns:
 Original cell was already a primitive cell.
 

 Routine SETGRP: Setting up the symmetry group for a 
 hexagonal supercell.


 Subroutine GETGRP returns: Found  1 space group operations
 (whereof  1 operations were pure point group operations)
 out of a pool of 24 trial point group operations.


The dynamic configuration has the point symmetry C_1 .


 Subroutine INISYM returns: Found  1 space group operations
 (whereof  1 operations are pure point group operations),
 and found     1 'primitive' translations


----------------------------------------------------------------------------------------

                                     Primitive cell                                     

  volume of cell :    3288.8533

  direct lattice vectors                    reciprocal lattice vectors
    12.325000000  0.000000000  0.000000000     0.081135903  0.046843835  0.000000000
    -6.162500000 10.673763102  0.000000000     0.000000000  0.093687670  0.000000000
     0.000000000  0.000000000 25.000000000     0.000000000  0.000000000  0.040000000

  length of vectors
    12.325000000 12.325000000 25.000000000     0.093687670  0.093687670  0.040000000

  position of ions in fractional coordinates (direct lattice)
     0.972450841  0.000320818  0.000566711
     0.039118382  0.133659505  0.000440173
     0.172443627  0.000295449  0.000499628
     0.239096278  0.133647917  0.000256468
     0.972452058  0.200322012  0.000485219
     0.039128360  0.333643771  0.000444150
     0.172451764  0.200354552  0.000219167
     0.239124359  0.333665720  0.000072260
     0.372465565  0.000324403  0.000453913
     0.439137473  0.133619939  0.000258338
     0.972449824  0.400309362  0.000547611
     0.039124981  0.533636789  0.000573410
     0.372416176  0.400329481  0.000000000
     0.439099602  0.533638981  0.000232414
     0.572443676  0.000312125  0.000559580
     0.639110207  0.133631751  0.000547275
     0.972452703  0.600305653  0.000640289
     0.039124495  0.733640359  0.000654513
     0.572433471  0.600306242  0.000402895
     0.639111888  0.733641879  0.000527905
     0.172454630  0.400318228  0.000289045
     0.239120185  0.533636548  0.000378509
     0.372459750  0.200295993  0.000088997
     0.439107096  0.333673419  0.000055762
     0.172452155  0.600311506  0.000524340
     0.239123371  0.733638574  0.000575129
     0.572431082  0.200289171  0.000413296
     0.639112773  0.333618630  0.000462376
     0.372439808  0.600308022  0.000362844
     0.439116090  0.733637858  0.000494190
     0.572469358  0.400320504  0.000339918
     0.639119408  0.533650873  0.000459610
     0.772445723  0.000315427  0.000596161
     0.839116277  0.133640203  0.000575306
     0.772440513  0.200307432  0.000581033
     0.839120241  0.333635728  0.000585467
     0.772446320  0.400298367  0.000582978
     0.839118980  0.533633964  0.000621100
     0.772456143  0.600308173  0.000595712
     0.839115033  0.733643180  0.000631512
     0.972455313  0.800305582  0.000652233
     0.039114714  0.933643289  0.000598051
     0.172457971  0.800312211  0.000623372
     0.239134551  0.933647193  0.000544850
     0.372451396  0.800316674  0.000551399
     0.439124489  0.933644769  0.000541430
     0.572441101  0.800310054  0.000534535
     0.639115067  0.933638985  0.000587644
     0.772445098  0.800313187  0.000602062
     0.839116614  0.933644338  0.000606830
     0.373021009  0.251226878  0.112246205
     0.420879805  0.189313152  0.114823079
     0.325156981  0.313167186  0.109868010

  ion indices of the primitive-cell ions
   primitive index   ion index
                 1           1
                 2           2
                 3           3
                 4           4
                 5           5
                 6           6
                 7           7
                 8           8
                 9           9
                10          10
                11          11
                12          12
                13          13
                14          14
                15          15
                16          16
                17          17
                18          18
                19          19
                20          20
                21          21
                22          22
                23          23
                24          24
                25          25
                26          26
                27          27
                28          28
                29          29
                30          30
                31          31
                32          32
                33          33
                34          34
                35          35
                36          36
                37          37
                38          38
                39          39
                40          40
                41          41
                42          42
                43          43
                44          44
                45          45
                46          46
                47          47
                48          48
                49          49
                50          50
                51          51
                52          52
                53          53

----------------------------------------------------------------------------------------

 
 
 KPOINTS: auto                                    

Automatic generation of k-mesh.
 Grid dimensions read from file:
 generate k-points for:    1    1    1

 Generating k-lattice:

  Cartesian coordinates                     Fractional coordinates (reciprocal lattice)
     0.081135903  0.046843835  0.000000000     1.000000000 -0.000000000  0.000000000
     0.000000000  0.093687670  0.000000000     0.000000000  1.000000000  0.000000000
     0.000000000  0.000000000  0.040000000     0.000000000  0.000000000  1.000000000

  Length of vectors
     0.093687670  0.093687670  0.040000000

  Shift w.r.t. Gamma in fractional coordinates (k-lattice)
     0.000000000  0.000000000  0.000000000

 
 Subroutine IBZKPT returns following result:
 ===========================================
 
 Found      1 irreducible k-points:
 
 Following reciprocal coordinates:
            Coordinates               Weight
  0.000000  0.000000  0.000000      1.000000
 
 Following cartesian coordinates:
            Coordinates               Weight
  0.000000  0.000000  0.000000      1.000000
 


--------------------------------------------------------------------------------------------------------




 Dimension of arrays:
   k-points           NKPTS =      1   k-points in BZ     NKDIM =      1   number of bands    NBANDS=    168
   number of dos      NEDOS =    301   number of ions     NIONS =     53
   non local maximal  LDIM  =      4   non local SUM 2l+1 LMDIM =      8
   total plane-waves  NPLWV = ******
   max r-space proj   IRMAX =      1   max aug-charges    IRDMAX=  10008
   dimension x,y,z NGX =   128 NGY =  128 NGZ =  270
   dimension x,y,z NGXF=   256 NGYF=  256 NGZF=  540
   support grid    NGXF=   256 NGYF=  256 NGZF=  540
   ions per type =              51   2
   NGX,Y,Z   is equivalent  to a cutoff of  17.27, 17.27, 17.95 a.u.
   NGXF,Y,Z  is equivalent  to a cutoff of  34.53, 34.53, 35.91 a.u.

 SYSTEM =  unknown system                          
 POSCAR =   C  O                                   

 Startparameter for this run:
   NWRITE =      2    write-flag & timer
   PREC   = accura    normal or accurate (medium, high low for compatibility)
   ISTART =      0    job   : 0-new  1-cont  2-samecut
   ICHARG =      2    charge: 1-file 2-atom 10-const
   ISPIN  =      1    spin polarized calculation?
   LNONCOLLINEAR =      F non collinear calculations
   LSORBIT =      F    spin-orbit coupling
   INIWAV =      1    electr: 0-lowe 1-rand  2-diag
   LASPH  =      T    aspherical Exc in radial PAW
 Electronic Relaxation 1
   ENCUT  = 1000.0 eV  73.50 Ry    8.57 a.u.  31.78 31.78 64.46*2*pi/ulx,y,z
   ENINI  = 1000.0     initial cutoff
   ENAUG  =  946.8 eV  augmentation charge cutoff
   NELM   =     60;   NELMIN=  2; NELMDL= -5     # of ELM steps 
   EDIFF  = 0.1E-06   stopping-criterion for ELM
   LREAL  =      F    real-space projection
   NLSPLINE    = F    spline interpolate recip. space projectors
   LCOMPAT=      F    compatible to vasp.4.4
   GGA_COMPAT  = T    GGA compatible to vasp.4.4-vasp.4.6
   LMAXPAW     = -100 max onsite density
   LMAXMIX     =    2 max onsite mixed and CHGCAR
   VOSKOWN=      0    Vosko Wilk Nusair interpolation
   ROPT   =    0.00000   0.00000
 Ionic relaxation
   EDIFFG = 0.1E-05   stopping-criterion for IOM
   NSW    =      0    number of steps for IOM
   NBLOCK =      1;   KBLOCK =      1    inner block; outer block 
   IBRION =     -1    ionic relax: 0-MD 1-quasi-New 2-CG
   NFREE  =      0    steps in history (QN), initial steepest desc. (CG)
   ISIF   =      0    stress and relaxation
   IWAVPR =     10    prediction:  0-non 1-charg 2-wave 3-comb
   ISYM   =      2    0-nonsym 1-usesym 2-fastsym
   LCORR  =      T    Harris-Foulkes like correction to forces

   POTIM  = 0.5000    time-step for ionic-motion
   TEIN   =    0.0    initial temperature
   TEBEG  =    0.0;   TEEND  =   0.0 temperature during run
   SMASS  =  -3.00    Nose mass-parameter (am)
   estimated Nose-frequenzy (Omega)   =  0.10E-29 period in steps = 0.13E+47 mass=  -0.347E-26a.u.
   SCALEE = 1.0000    scale energy and forces
   NPACO  =    256;   APACO  = 16.0  distance and # of slots for P.C.
   PSTRESS=    0.0 pullay stress

  Mass of Ions in am
   POMASS =  12.01 16.00
  Ionic Valenz
   ZVAL   =   4.00  6.00
  Atomic Wigner-Seitz radii
   RWIGS  =  -1.00 -1.00
  virtual crystal weights 
   VCA    =   1.00  1.00
   NELECT =     216.0000    total number of electrons
   NUPDOWN=      -1.0000    fix difference up-down

 DOS related values:
   EMIN   =  10.00;   EMAX   =-10.00  energy-range for DOS
   EFERMI =   0.00
   ISMEAR =     0;   SIGMA  =   0.01  broadening in eV -4-tet -1-fermi 0-gaus

 Electronic relaxation 2 (details)
   IALGO  =     58    algorithm
   LDIAG  =      T    sub-space diagonalisation (order eigenvalues)
   LSUBROT=      F    optimize rotation matrix (better conditioning)
   TURBO    =      0    0=normal 1=particle mesh
   IRESTART =      0    0=no restart 2=restart with 2 vectors
   NREBOOT  =      0    no. of reboots
   NMIN     =      0    reboot dimension
   EREF     =   0.00    reference energy to select bands
   IMIX   =      4    mixing-type and parameters
     AMIX     =   0.40;   BMIX     =  1.00
     AMIX_MAG =   1.60;   BMIX_MAG =  1.00
     AMIN     =   0.10
     WC   =   100.;   INIMIX=   1;  MIXPRE=   1;  MAXMIX= -45

 Intra band minimization:
   WEIMIN = 0.0000     energy-eigenvalue tresh-hold
   EBREAK =  0.15E-09  absolut break condition
   DEPER  =   0.30     relativ break condition  

   TIME   =   0.40     timestep for ELM

  volume/ion in A,a.u.               =      62.05       418.76
  Fermi-wavevector in a.u.,A,eV,Ry     =   0.660508  1.248179  5.935820  0.436270
  Thomas-Fermi vector in A             =   1.732977
 
 Write flags
   LWAVE        =      T    write WAVECAR
   LDOWNSAMPLE  =      F    k-point downsampling of WAVECAR
   LCHARG       =      T    write CHGCAR
   LVTOT        =      F    write LOCPOT, total local potential
   LVHAR        =      F    write LOCPOT, Hartree potential only
   LELF         =      F    write electronic localiz. function (ELF)
   LORBIT       =      0    0 simple, 1 ext, 2 COOP (PROOUT), +10 PAW based schemes


 Dipole corrections
   LMONO  =      F    monopole corrections only (constant potential shift)
   LDIPOL =      F    correct potential (dipole corrections)
   IDIPOL =      0    1-x, 2-y, 3-z, 4-all directions 
   EPSILON=  1.0000000 bulk dielectric constant

 Exchange correlation treatment:
   GGA     =    BO    GGA type
   LEXCH   =    42    internal setting for exchange type
   VOSKOWN=      0    Vosko Wilk Nusair interpolation
   LHFCALC =     F    Hartree Fock is set to
   LHFONE  =     F    Hartree Fock one center treatment
   AEXX    =    0.0000 exact exchange contribution

 vdW DFT:
   LUSE_VDW   =     T    switch on vdW DFT
   Zab_VDW    =-.8491    correlation parameter
   PARAM1     =0.1833
   PARAM2     =0.2200
   PARAM3     =0.0000
   -- rVV10 --
   BPARAM     = 6.3000
   CPARAM     = 0.0093

 Linear response parameters
   LEPSILON=     F    determine dielectric tensor
   LRPA    =     F    only Hartree local field effects (RPA)
   LNABLA  =     F    use nabla operator in PAW spheres
   LVEL    =     F    velocity operator in full k-point grid
   LINTERFAST=   F  fast interpolation
   KINTER  =     0    interpolate to denser k-point grid
   CSHIFT  =0.1000    complex shift for real part using Kramers Kronig
   OMEGAMAX=  -1.0    maximum frequency
   DEG_THRESHOLD= 0.2000000E-02 threshold for treating states as degnerate
   RTIME   =   -0.100 relaxation time in fs
  (WPLASMAI=    0.000 imaginary part of plasma frequency in eV, 0.658/RTIME)
   DFIELD  = 0.0000000 0.0000000 0.0000000 field for delta impulse in time
 
 Orbital magnetization related:
   ORBITALMAG=     F  switch on orbital magnetization
   LCHIMAG   =     F  perturbation theory with respect to B field
   DQ        =  0.001000  dq finite difference perturbation B field
   LLRAUG    =     F  two centre corrections for induced B field



--------------------------------------------------------------------------------------------------------


 Static calculation
 charge density and potential will be updated during run
 non-spin polarized calculation
 Conjugate gradient for all bands (Freysoldt, et al. PRB 79, 241103 (2009))
 preconditioned conjugated gradient                                        
 perform sub-space diagonalisation
    before iterative eigenvector-optimisation
 modified Broyden-mixing scheme, WC =      100.0
 initial mixing is a Kerker type mixing with AMIX =  0.4000 and BMIX =      1.0000
 Hartree-type preconditioning will be used
 using additional bands           60
 reciprocal scheme for non local part
 use partial core corrections
 no Harris-corrections to forces 
 use gradient corrections 
 use of overlap-Matrix (Vanderbilt PP)
 Gauss-broadening in eV      SIGMA  =   0.01


--------------------------------------------------------------------------------------------------------


  energy-cutoff  :     1000.00
  volume of cell :     3288.85
      direct lattice vectors                 reciprocal lattice vectors
    12.325000000  0.000000000  0.000000000     0.081135903  0.046843835  0.000000000
    -6.162500000 10.673763102  0.000000000     0.000000000  0.093687670  0.000000000
     0.000000000  0.000000000 25.000000000     0.000000000  0.000000000  0.040000000

  length of vectors
    12.325000000 12.325000000 25.000000000     0.093687670  0.093687670  0.040000000


 
 k-points in units of 2pi/SCALE and weight: auto                                    
   0.00000000  0.00000000  0.00000000       1.000
 
 k-points in reciprocal lattice and weights: auto                                    
   0.00000000  0.00000000  0.00000000       1.000
 
 position of ions in fractional coordinates (direct lattice) 
   0.97245084  0.00032082  0.00056671
   0.03911838  0.13365950  0.00044017
   0.17244363  0.00029545  0.00049963
   0.23909628  0.13364792  0.00025647
   0.97245206  0.20032201  0.00048522
   0.03912836  0.33364377  0.00044415
   0.17245176  0.20035455  0.00021917
   0.23912436  0.33366572  0.00007226
   0.37246557  0.00032440  0.00045391
   0.43913747  0.13361994  0.00025834
   0.97244982  0.40030936  0.00054761
   0.03912498  0.53363679  0.00057341
   0.37241618  0.40032948  0.00000000
   0.43909960  0.53363898  0.00023241
   0.57244368  0.00031213  0.00055958
   0.63911021  0.13363175  0.00054727
   0.97245270  0.60030565  0.00064029
   0.03912449  0.73364036  0.00065451
   0.57243347  0.60030624  0.00040289
   0.63911189  0.73364188  0.00052791
   0.17245463  0.40031823  0.00028904
   0.23912018  0.53363655  0.00037851
   0.37245975  0.20029599  0.00008900
   0.43910710  0.33367342  0.00005576
   0.17245216  0.60031151  0.00052434
   0.23912337  0.73363857  0.00057513
   0.57243108  0.20028917  0.00041330
   0.63911277  0.33361863  0.00046238
   0.37243981  0.60030802  0.00036284
   0.43911609  0.73363786  0.00049419
   0.57246936  0.40032050  0.00033992
   0.63911941  0.53365087  0.00045961
   0.77244572  0.00031543  0.00059616
   0.83911628  0.13364020  0.00057531
   0.77244051  0.20030743  0.00058103
   0.83912024  0.33363573  0.00058547
   0.77244632  0.40029837  0.00058298
   0.83911898  0.53363396  0.00062110
   0.77245614  0.60030817  0.00059571
   0.83911503  0.73364318  0.00063151
   0.97245531  0.80030558  0.00065223
   0.03911471  0.93364329  0.00059805
   0.17245797  0.80031221  0.00062337
   0.23913455  0.93364719  0.00054485
   0.37245140  0.80031667  0.00055140
   0.43912449  0.93364477  0.00054143
   0.57244110  0.80031005  0.00053453
   0.63911507  0.93363899  0.00058764
   0.77244510  0.80031319  0.00060206
   0.83911661  0.93364434  0.00060683
   0.37302101  0.25122688  0.11224620
   0.42087980  0.18931315  0.11482308
   0.32515698  0.31316719  0.10986801
 
 position of ions in cartesian coordinates  (Angst):
  11.98347958  0.00342433  0.01416777
  -0.34154264  1.42664989  0.01100432
   2.12354700  0.00315355  0.01249070
   2.12325634  1.42652621  0.00641170
  10.75098721  2.13818970  0.01213047
  -1.57382270  3.56123457  0.01110375
   0.89078307  2.13853702  0.00547917
   0.89099273  3.56146885  0.00180651
   4.58863896  0.00346260  0.01134782
   4.58893648  1.42622757  0.00645846
   9.51853763  4.27280730  0.01369027
  -2.80632132  5.69591267  0.01433526
   2.12299894  4.27302204  0.00000000
   2.12335237  5.69593607  0.00581036
   7.05344483  0.00333155  0.01398950
   7.05352764  1.42635365  0.01368187
   8.28609598  6.40752033  0.01600723
  -4.03884931  7.83070339  0.01636283
   3.35585531  6.40752662  0.01007237
   3.35598594  7.83071962  0.01319763
  -0.34145776  4.27290193  0.00722612
  -0.34137895  5.69591010  0.00946273
   3.35624236  2.13791198  0.00222492
   3.35573251  3.56155103  0.00139405
  -1.57394684  6.40758280  0.01310850
  -1.57385216  7.83068434  0.01437823
   5.82093107  2.13783916  0.01033241
   5.82114012  3.56096622  0.01155939
   0.89092245  6.40754561  0.00907111
   0.89106251  7.83067670  0.01235474
   4.58870974  4.27292622  0.00849795
   4.58852320  5.69606300  0.01149026
   9.51844972  0.00336679  0.01490402
   9.51855036  1.42644387  0.01438264
   8.28593477  2.13803408  0.01452582
   8.28612680  3.56114872  0.01463668
   7.05356221  4.27268994  0.01457444
   7.05362213  5.69588251  0.01552751
   5.82112285  6.40754723  0.01489279
   5.82101669  7.83073350  0.01578780
   7.05362858  8.54227219  0.01630582
  -5.27148792  9.96548729  0.01495127
  -2.80637951  8.54234295  0.01558431
  -2.80626749  9.96552896  0.01362126
  -0.34148805  8.54239058  0.01378498
  -0.34137657  9.96550309  0.01353576
   2.12342586  8.54231992  0.01336337
   2.12354296  9.96544135  0.01469111
   4.58845581  8.54235337  0.01505154
   4.58852904  9.96549848  0.01517076
   3.04929830  2.68153618  2.80615512
   4.02070129  2.02068374  2.87057698
   2.07766701  3.34267235  2.74670025
 


--------------------------------------------------------------------------------------------------------


 k-point   1 :   0.0000 0.0000 0.0000  plane waves:  236157

 maximum and minimum number of plane-waves per node :    236157   236157

 maximum number of plane-waves:    236157
 maximum index in each direction: 
   IXMAX=   31   IYMAX=   31   IZMAX=   64
   IXMIN=  -31   IYMIN=  -31   IZMIN=  -64


 serial   3D FFT for wavefunctions
 parallel 3D FFT for charge:
    minimum data exchange during FFTs selected (reduces bandwidth)


 total amount of memory used by VASP MPI-rank0   551512. kBytes
=======================================================================

   base      :      30000. kBytes
   nonl-proj :     230539. kBytes
   fftplans  :      40716. kBytes
   grid      :     216018. kBytes
   one-center:        162. kBytes
   wavefun   :      34077. kBytes
 
     INWAV:  cpu time    0.0000: real time    0.0003
 Broyden mixing: mesh for mixing (old mesh)
   NGX = 63   NGY = 63   NGZ =129
  (NGX  =256   NGY  =256   NGZ  =540)
  gives a total of 512001 points

 initial charge density was supplied:
 charge density of overlapping atoms calculated
 number of electron     216.0000000 magnetization 
 keeping initial charge density in first step


--------------------------------------------------------------------------------------------------------


 Maximum index for augmentation-charges          471 (set IRDMAX)


--------------------------------------------------------------------------------------------------------


 First call to EWALD:  gamma=   0.119
 Maximum number of real-space cells 4x 4x 2
 Maximum number of reciprocal cells 2x 2x 4

    FEWALD:  cpu time    0.0050: real time    0.0050


--------------------------------------- Iteration      1(   1)  ---------------------------------------


vdW kernel read from vdw_kernel.bindat
  0.0000  0.2424  0.5071  0.7962  1.1119  1.4567  1.8333  2.2446  2.6937  3.1842
  3.7199  4.3049  4.9438  5.6415  6.4036  7.2358  8.1446  9.1372 10.2212 11.4050
 12.6979 14.1099 15.6519 17.3360 19.1751 21.1837 23.3773 25.7729 28.3892 31.2465
 34.3669 37.7748 41.4965 45.5611 50.0000
 
    POTLOK:  cpu time    8.2077: real time    8.2671
    SETDIJ:  cpu time    0.3268: real time    0.3281
    TRIAL :  cpu time   15.3327: real time   15.4548
    CORREC:  cpu time    0.0004: real time    0.0006
    --------------------------------------------
      LOOP:  cpu time   23.8788: real time   24.0803

 eigenvalue-minimisations  :   336
 total energy-change (2. order) : 0.2657798E+04  (-0.1071758E+05)
 number of electron     216.0000000 magnetization 
 augmentation part      216.0000000 magnetization 

 Free energy of the ion-electron system (eV)
  ---------------------------------------------------
  alpha Z        PSCENC =        47.94900195
  Ewald energy   TEWEN  =     48114.18302124
  -Hartree energ DENC   =    -54181.92891958
  -exchange      EXHF   =         0.00000000
  -V(xc)+E(xc)   XCENC  =       398.62306459
  PAW double counting   =      6564.79108649    -6260.84737255
  entropy T*S    EENTRO =        -0.00000041
  eigenvalues    EBANDS =      -486.05543484
  atomic energy  EATOM  =      8461.08393172
  ---------------------------------------------------
  free energy    TOTEN  =      2657.79837862 eV

  energy without entropy =     2657.79837902  energy(sigma->0) =     2657.79837882


--------------------------------------------------------------------------------------------------------




--------------------------------------- Iteration      1(   2)  ---------------------------------------


    TRIAL :  cpu time   23.0758: real time   23.2471
    CORREC:  cpu time    0.0001: real time    0.0001
    --------------------------------------------
      LOOP:  cpu time   23.1927: real time   23.3672

 eigenvalue-minimisations  :   560
 total energy-change (2. order) :-0.2394201E+04  (-0.2222308E+04)
 number of electron     216.0000000 magnetization 
 augmentation part      216.0000000 magnetization 

 Free energy of the ion-electron system (eV)
  ---------------------------------------------------
  alpha Z        PSCENC =        47.94900195
  Ewald energy   TEWEN  =     48114.18302124
  -Hartree energ DENC   =    -54181.92891958
  -exchange      EXHF   =         0.00000000
  -V(xc)+E(xc)   XCENC  =       398.62306459
  PAW double counting   =      6564.79108649    -6260.84737255
  entropy T*S    EENTRO =        -0.00000000
  eigenvalues    EBANDS =     -2880.25622445
  atomic energy  EATOM  =      8461.08393172
  ---------------------------------------------------
  free energy    TOTEN  =       263.59758941 eV

  energy without entropy =      263.59758941  energy(sigma->0) =      263.59758941


--------------------------------------------------------------------------------------------------------




--------------------------------------- Iteration      1(   3)  ---------------------------------------


    TRIAL :  cpu time   19.1854: real time   19.3262
    CORREC:  cpu time    0.0001: real time    0.0003
    --------------------------------------------
      LOOP:  cpu time   19.2238: real time   19.3672

 eigenvalue-minimisations  :   448
 total energy-change (2. order) :-0.6826784E+03  (-0.6797173E+03)
 number of electron     216.0000000 magnetization 
 augmentation part      216.0000000 magnetization 

 Free energy of the ion-electron system (eV)
  ---------------------------------------------------
  alpha Z        PSCENC =        47.94900195
  Ewald energy   TEWEN  =     48114.18302124
  -Hartree energ DENC   =    -54181.92891958
  -exchange      EXHF   =         0.00000000
  -V(xc)+E(xc)   XCENC  =       398.62306459
  PAW double counting   =      6564.79108649    -6260.84737255
  entropy T*S    EENTRO =        -0.00000000
  eigenvalues    EBANDS =     -3562.93457948
  atomic energy  EATOM  =      8461.08393172
  ---------------------------------------------------
  free energy    TOTEN  =      -419.08076562 eV

  energy without entropy =     -419.08076562  energy(sigma->0) =     -419.08076562


--------------------------------------------------------------------------------------------------------




--------------------------------------- Iteration      1(   4)  ---------------------------------------


    TRIAL :  cpu time   19.2044: real time   19.3507
    CORREC:  cpu time    0.0001: real time    0.0001
    --------------------------------------------
      LOOP:  cpu time   19.2746: real time   19.4227

 eigenvalue-minimisations  :   448
 total energy-change (2. order) :-0.2614782E+02  (-0.2600028E+02)
 number of electron     216.0000000 magnetization 
 augmentation part      216.0000000 magnetization 

 Free energy of the ion-electron system (eV)
  ---------------------------------------------------
  alpha Z        PSCENC =        47.94900195
  Ewald energy   TEWEN  =     48114.18302124
  -Hartree energ DENC   =    -54181.92891958
  -exchange      EXHF   =         0.00000000
  -V(xc)+E(xc)   XCENC  =       398.62306459
  PAW double counting   =      6564.79108649    -6260.84737255
  entropy T*S    EENTRO =        -0.00000000
  eigenvalues    EBANDS =     -3589.08239686
  atomic energy  EATOM  =      8461.08393172
  ---------------------------------------------------
  free energy    TOTEN  =      -445.22858300 eV

  energy without entropy =     -445.22858300  energy(sigma->0) =     -445.22858300


--------------------------------------------------------------------------------------------------------




--------------------------------------- Iteration      1(   5)  ---------------------------------------


    TRIAL :  cpu time   19.1888: real time   19.3321
    CORREC:  cpu time    0.0001: real time    0.0001
    CHARGE:  cpu time    0.8075: real time    0.8132
    --------------------------------------------
      LOOP:  cpu time   20.0333: real time   20.1833

 eigenvalue-minimisations  :   448
 total energy-change (2. order) :-0.8638157E+00  (-0.8609928E+00)
 number of electron     216.0000000 magnetization 
 augmentation part       -0.2209422 magnetization 

 Free energy of the ion-electron system (eV)
  ---------------------------------------------------
  alpha Z        PSCENC =        47.94900195
  Ewald energy   TEWEN  =     48114.18302124
  -Hartree energ DENC   =    -54181.92891958
  -exchange      EXHF   =         0.00000000
  -V(xc)+E(xc)   XCENC  =       398.62306459
  PAW double counting   =      6564.79108649    -6260.84737255
  entropy T*S    EENTRO =        -0.00000000
  eigenvalues    EBANDS =     -3589.94621253
  atomic energy  EATOM  =      8461.08393172
  ---------------------------------------------------
  free energy    TOTEN  =      -446.09239867 eV

  energy without entropy =     -446.09239867  energy(sigma->0) =     -446.09239867


--------------------------------------------------------------------------------------------------------




--------------------------------------- Iteration      1(   6)  ---------------------------------------


    POTLOK:  cpu time    7.8796: real time    7.9315
    SETDIJ:  cpu time    0.3755: real time    0.3768
    TRIAL :  cpu time    6.9024: real time    6.9650
    CORREC:  cpu time    9.7402: real time    9.8406
    CHARGE:  cpu time    0.7980: real time    0.8030
    --------------------------------------------
      LOOP:  cpu time   25.7256: real time   25.9509

 eigenvalue-minimisations  :     0
 total energy-change (2. order) : 0.5474009E+02  (-0.1755692E+02)
 number of electron     216.0000000 magnetization 
 augmentation part       -0.3310310 magnetization 

 Free energy of the ion-electron system (eV)
  ---------------------------------------------------
  alpha Z        PSCENC =        47.94900195
  Ewald energy   TEWEN  =     48114.18302124
  -Hartree energ DENC   =    -55662.65910158
  -exchange      EXHF   =         0.00000000
  -V(xc)+E(xc)   XCENC  =       448.04381029
  PAW double counting   =     71636.19154376   -71340.39237096
  entropy T*S    EENTRO =        -0.00000000
  eigenvalues    EBANDS =     -2095.75214844
  atomic energy  EATOM  =      8461.08393172
  ---------------------------------------------------
  free energy    TOTEN  =      -391.35231201 eV

  energy without entropy =     -391.35231201  energy(sigma->0) =     -391.35231201


--------------------------------------------------------------------------------------------------------




--------------------------------------- Iteration      1(   7)  ---------------------------------------


    POTLOK:  cpu time    7.8966: real time    7.9524
    SETDIJ:  cpu time    0.3020: real time    0.3030
    TRIAL :  cpu time    6.9023: real time    6.9577
    CORREC:  cpu time    9.7351: real time    9.8057
    CHARGE:  cpu time    0.7950: real time    0.8034
    --------------------------------------------
      LOOP:  cpu time   25.7139: real time   25.9065

 eigenvalue-minimisations  :     0
 total energy-change (2. order) :-0.1759244E+02  (-0.1920307E+01)
 number of electron     216.0000000 magnetization 
 augmentation part       -0.3802158 magnetization 

 Free energy of the ion-electron system (eV)
  ---------------------------------------------------
  alpha Z        PSCENC =        47.94900195
  Ewald energy   TEWEN  =     48114.18302124
  -Hartree energ DENC   =    -55121.40387532
  -exchange      EXHF   =         0.00000000
  -V(xc)+E(xc)   XCENC  =       430.22746569
  PAW double counting   =     86769.55918109   -86470.52258566
  entropy T*S    EENTRO =        -0.00000000
  eigenvalues    EBANDS =     -2640.02089182
  atomic energy  EATOM  =      8461.08393172
  ---------------------------------------------------
  free energy    TOTEN  =      -408.94475111 eV

  energy without entropy =     -408.94475111  energy(sigma->0) =     -408.94475111


--------------------------------------------------------------------------------------------------------




--------------------------------------- Iteration      1(   8)  ---------------------------------------


    POTLOK:  cpu time    7.9071: real time    7.9657
    SETDIJ:  cpu time    0.3543: real time    0.3557
    TRIAL :  cpu time    6.9104: real time    6.9656
    CORREC:  cpu time    9.7933: real time    9.8587
    CHARGE:  cpu time    0.7971: real time    0.8023
    --------------------------------------------
      LOOP:  cpu time   25.7672: real time   25.9825

 eigenvalue-minimisations  :     0
 total energy-change (2. order) :-0.1921005E+01  (-0.5344651E+00)
 number of electron     216.0000000 magnetization 
 augmentation part       -0.3947416 magnetization 

 Free energy of the ion-electron system (eV)
  ---------------------------------------------------
  alpha Z        PSCENC =        47.94900195
  Ewald energy   TEWEN  =     48114.18302124
  -Hartree energ DENC   =    -55101.15527067
  -exchange      EXHF   =         0.00000000
  -V(xc)+E(xc)   XCENC  =       429.70986166
  PAW double counting   =     91199.94417222   -90900.48261111
  entropy T*S    EENTRO =        -0.00000000
  eigenvalues    EBANDS =     -2662.09786346
  atomic energy  EATOM  =      8461.08393172
  ---------------------------------------------------
  free energy    TOTEN  =      -410.86575645 eV

  energy without entropy =     -410.86575645  energy(sigma->0) =     -410.86575645


--------------------------------------------------------------------------------------------------------




--------------------------------------- Iteration      1(   9)  ---------------------------------------


    POTLOK:  cpu time    7.8890: real time    7.9439
    SETDIJ:  cpu time    0.3575: real time    0.3586
    TRIAL :  cpu time    6.8961: real time    6.9557
    CORREC:  cpu time    9.7085: real time    9.7725
    CHARGE:  cpu time    0.7941: real time    0.8011
    --------------------------------------------
      LOOP:  cpu time   25.6611: real time   25.8649

 eigenvalue-minimisations  :     0
 total energy-change (2. order) :-0.5341758E+00  (-0.1993383E+00)
 number of electron     216.0000000 magnetization 
 augmentation part       -0.3991468 magnetization 

 Free energy of the ion-electron system (eV)
  ---------------------------------------------------
  alpha Z        PSCENC =        47.94900195
  Ewald energy   TEWEN  =     48114.18302124
  -Hartree energ DENC   =    -55112.40381740
  -exchange      EXHF   =         0.00000000
  -V(xc)+E(xc)   XCENC  =       429.80111521
  PAW double counting   =     94213.58615867   -93913.93584254
  entropy T*S    EENTRO =        -0.00000000
  eigenvalues    EBANDS =     -2651.66350106
  atomic energy  EATOM  =      8461.08393172
  ---------------------------------------------------
  free energy    TOTEN  =      -411.39993221 eV

  energy without entropy =     -411.39993221  energy(sigma->0) =     -411.39993221


--------------------------------------------------------------------------------------------------------




--------------------------------------- Iteration      1(  10)  ---------------------------------------


    POTLOK:  cpu time    7.9306: real time    7.9860
    SETDIJ:  cpu time    0.3329: real time    0.3341
    TRIAL :  cpu time    6.9053: real time    6.9577
    CORREC:  cpu time    9.7612: real time    9.8284
    CHARGE:  cpu time    0.7959: real time    0.8010
    --------------------------------------------
      LOOP:  cpu time   25.7592: real time   25.9463

 eigenvalue-minimisations  :     0
 total energy-change (2. order) :-0.1987757E+00  (-0.8829390E-01)
 number of electron     216.0000000 magnetization 
 augmentation part       -0.3969270 magnetization 

 Free energy of the ion-electron system (eV)
  ---------------------------------------------------
  alpha Z        PSCENC =        47.94900195
  Ewald energy   TEWEN  =     48114.18302124
  -Hartree energ DENC   =    -55108.56111922
  -exchange      EXHF   =         0.00000000
  -V(xc)+E(xc)   XCENC  =       429.65868945
  PAW double counting   =     94963.69100745   -94663.93451279
  entropy T*S    EENTRO =        -0.00000000
  eigenvalues    EBANDS =     -2655.66872766
  atomic energy  EATOM  =      8461.08393172
  ---------------------------------------------------
  free energy    TOTEN  =      -411.59870787 eV

  energy without entropy =     -411.59870787  energy(sigma->0) =     -411.59870787


--------------------------------------------------------------------------------------------------------




--------------------------------------- Iteration      1(  11)  ---------------------------------------


    POTLOK:  cpu time    7.8899: real time    7.9633
    SETDIJ:  cpu time    0.3103: real time    0.3118
    TRIAL :  cpu time    6.9048: real time    6.9641
    CORREC:  cpu time    9.7263: real time    9.7907
    CHARGE:  cpu time    0.7949: real time    0.8002
    --------------------------------------------
      LOOP:  cpu time   25.6958: real time   25.9140

 eigenvalue-minimisations  :     0
 total energy-change (2. order) :-0.8794333E-01  (-0.3360717E-01)
 number of electron     216.0000000 magnetization 
 augmentation part       -0.3947018 magnetization 

 Free energy of the ion-electron system (eV)
  ---------------------------------------------------
  alpha Z        PSCENC =        47.94900195
  Ewald energy   TEWEN  =     48114.18302124
  -Hartree energ DENC   =    -55100.77223600
  -exchange      EXHF   =         0.00000000
  -V(xc)+E(xc)   XCENC  =       429.55061664
  PAW double counting   =     94584.36656650   -94284.61136355
  entropy T*S    EENTRO =        -0.00000000
  eigenvalues    EBANDS =     -2663.43618971
  atomic energy  EATOM  =      8461.08393172
  ---------------------------------------------------
  free energy    TOTEN  =      -411.68665120 eV

  energy without entropy =     -411.68665120  energy(sigma->0) =     -411.68665120


--------------------------------------------------------------------------------------------------------




--------------------------------------- Iteration      1(  12)  ---------------------------------------


    POTLOK:  cpu time    7.8840: real time    7.9529
    SETDIJ:  cpu time    0.3613: real time    0.3628
    TRIAL :  cpu time    6.9110: real time    6.9638
    CORREC:  cpu time    9.7526: real time    9.8250
    CHARGE:  cpu time    0.7987: real time    0.8045
    --------------------------------------------
      LOOP:  cpu time   25.7695: real time   25.9729

 eigenvalue-minimisations  :     0
 total energy-change (2. order) :-0.3360035E-01  (-0.9895696E-02)
 number of electron     216.0000000 magnetization 
 augmentation part       -0.3942034 magnetization 

 Free energy of the ion-electron system (eV)
  ---------------------------------------------------
  alpha Z        PSCENC =        47.94900195
  Ewald energy   TEWEN  =     48114.18302124
  -Hartree energ DENC   =    -55096.66647360
  -exchange      EXHF   =         0.00000000
  -V(xc)+E(xc)   XCENC  =       429.47739020
  PAW double counting   =     94140.02832438   -93840.30146998
  entropy T*S    EENTRO =        -0.00000000
  eigenvalues    EBANDS =     -2667.47397747
  atomic energy  EATOM  =      8461.08393172
  ---------------------------------------------------
  free energy    TOTEN  =      -411.72025156 eV

  energy without entropy =     -411.72025156  energy(sigma->0) =     -411.72025156


--------------------------------------------------------------------------------------------------------




--------------------------------------- Iteration      1(  13)  ---------------------------------------


    POTLOK:  cpu time    7.8982: real time    7.9502
    SETDIJ:  cpu time    0.3594: real time    0.3607
    TRIAL :  cpu time    6.8987: real time    6.9591
    CORREC:  cpu time    9.7327: real time    9.8103
    CHARGE:  cpu time    0.7957: real time    0.8013
    --------------------------------------------
      LOOP:  cpu time   25.7644: real time   25.9736

 eigenvalue-minimisations  :     0
 total energy-change (2. order) :-0.9940880E-02  (-0.2549765E-02)
 number of electron     216.0000000 magnetization 
 augmentation part       -0.3938213 magnetization 

 Free energy of the ion-electron system (eV)
  ---------------------------------------------------
  alpha Z        PSCENC =        47.94900195
  Ewald energy   TEWEN  =     48114.18302124
  -Hartree energ DENC   =    -55095.67259734
  -exchange      EXHF   =         0.00000000
  -V(xc)+E(xc)   XCENC  =       429.44493757
  PAW double counting   =     93923.59958741   -93623.88640644
  entropy T*S    EENTRO =        -0.00000000
  eigenvalues    EBANDS =     -2668.43166855
  atomic energy  EATOM  =      8461.08393172
  ---------------------------------------------------
  free energy    TOTEN  =      -411.73019244 eV

  energy without entropy =     -411.73019244  energy(sigma->0) =     -411.73019244


--------------------------------------------------------------------------------------------------------




--------------------------------------- Iteration      1(  14)  ---------------------------------------


    POTLOK:  cpu time    7.8769: real time    7.9425
    SETDIJ:  cpu time    0.3510: real time    0.3523
    TRIAL :  cpu time    6.9142: real time    6.9668
    CORREC:  cpu time    9.7111: real time    9.7793
    CHARGE:  cpu time    0.7987: real time    0.8037
    --------------------------------------------
      LOOP:  cpu time   25.6765: real time   25.8735

 eigenvalue-minimisations  :     0
 total energy-change (2. order) :-0.2571608E-02  (-0.6345394E-03)
 number of electron     216.0000000 magnetization 
 augmentation part       -0.3937132 magnetization 

 Free energy of the ion-electron system (eV)
  ---------------------------------------------------
  alpha Z        PSCENC =        47.94900195
  Ewald energy   TEWEN  =     48114.18302124
  -Hartree energ DENC   =    -55095.61899262
  -exchange      EXHF   =         0.00000000
  -V(xc)+E(xc)   XCENC  =       429.43973739
  PAW double counting   =     93878.03742992   -93578.33070929
  entropy T*S    EENTRO =        -0.00000000
  eigenvalues    EBANDS =     -2668.47618435
  atomic energy  EATOM  =      8461.08393172
  ---------------------------------------------------
  free energy    TOTEN  =      -411.73276405 eV

  energy without entropy =     -411.73276405  energy(sigma->0) =     -411.73276405


--------------------------------------------------------------------------------------------------------




--------------------------------------- Iteration      1(  15)  ---------------------------------------


    POTLOK:  cpu time    7.9197: real time    7.9720
    SETDIJ:  cpu time    0.3115: real time    0.3125
    TRIAL :  cpu time    6.9038: real time    6.9560
    CORREC:  cpu time    9.7000: real time    9.7755
    CHARGE:  cpu time    0.7968: real time    0.8018
    --------------------------------------------
      LOOP:  cpu time   25.6657: real time   25.8643

 eigenvalue-minimisations  :     0
 total energy-change (2. order) :-0.6435416E-03  (-0.1756051E-03)
 number of electron     216.0000000 magnetization 
 augmentation part       -0.3936139 magnetization 

 Free energy of the ion-electron system (eV)
  ---------------------------------------------------
  alpha Z        PSCENC =        47.94900195
  Ewald energy   TEWEN  =     48114.18302124
  -Hartree energ DENC   =    -55095.43563204
  -exchange      EXHF   =         0.00000000
  -V(xc)+E(xc)   XCENC  =       429.43055619
  PAW double counting   =     93872.29104612   -93572.58484976
  entropy T*S    EENTRO =        -0.00000000
  eigenvalues    EBANDS =     -2668.65048300
  atomic energy  EATOM  =      8461.08393172
  ---------------------------------------------------
  free energy    TOTEN  =      -411.73340759 eV

  energy without entropy =     -411.73340759  energy(sigma->0) =     -411.73340759


--------------------------------------------------------------------------------------------------------




--------------------------------------- Iteration      1(  16)  ---------------------------------------


    POTLOK:  cpu time    7.9216: real time    7.9745
    SETDIJ:  cpu time    0.3158: real time    0.3168
    TRIAL :  cpu time    6.9057: real time    6.9598
    CORREC:  cpu time    9.7609: real time    9.8334
    CHARGE:  cpu time    0.7924: real time    0.8017
    --------------------------------------------
      LOOP:  cpu time   25.7799: real time   25.9725

 eigenvalue-minimisations  :     0
 total energy-change (2. order) :-0.1805218E-03  (-0.5800267E-04)
 number of electron     216.0000000 magnetization 
 augmentation part       -0.3935111 magnetization 

 Free energy of the ion-electron system (eV)
  ---------------------------------------------------
  alpha Z        PSCENC =        47.94900195
  Ewald energy   TEWEN  =     48114.18302124
  -Hartree energ DENC   =    -55095.50885782
  -exchange      EXHF   =         0.00000000
  -V(xc)+E(xc)   XCENC  =       429.43120997
  PAW double counting   =     93855.07190691   -93555.36606450
  entropy T*S    EENTRO =        -0.00000000
  eigenvalues    EBANDS =     -2668.57773758
  atomic energy  EATOM  =      8461.08393172
  ---------------------------------------------------
  free energy    TOTEN  =      -411.73358811 eV

  energy without entropy =     -411.73358811  energy(sigma->0) =     -411.73358811


--------------------------------------------------------------------------------------------------------




--------------------------------------- Iteration      1(  17)  ---------------------------------------


    POTLOK:  cpu time    7.8884: real time    7.9409
    SETDIJ:  cpu time    0.3531: real time    0.3544
    TRIAL :  cpu time    6.9037: real time    6.9554
    CORREC:  cpu time    9.7385: real time    9.8066
    CHARGE:  cpu time    0.7969: real time    0.8020
    --------------------------------------------
      LOOP:  cpu time   25.7296: real time   25.9140

 eigenvalue-minimisations  :     0
 total energy-change (2. order) :-0.6060491E-04  (-0.2046535E-04)
 number of electron     216.0000000 magnetization 
 augmentation part       -0.3935013 magnetization 

 Free energy of the ion-electron system (eV)
  ---------------------------------------------------
  alpha Z        PSCENC =        47.94900195
  Ewald energy   TEWEN  =     48114.18302124
  -Hartree energ DENC   =    -55095.66018810
  -exchange      EXHF   =         0.00000000
  -V(xc)+E(xc)   XCENC  =       429.43528070
  PAW double counting   =     93839.33723501   -93539.63180334
  entropy T*S    EENTRO =        -0.00000000
  eigenvalues    EBANDS =     -2668.43012789
  atomic energy  EATOM  =      8461.08393172
  ---------------------------------------------------
  free energy    TOTEN  =      -411.73364871 eV

  energy without entropy =     -411.73364871  energy(sigma->0) =     -411.73364871


--------------------------------------------------------------------------------------------------------




--------------------------------------- Iteration      1(  18)  ---------------------------------------


    POTLOK:  cpu time    7.8853: real time    7.9439
    SETDIJ:  cpu time    0.3195: real time    0.3205
    TRIAL :  cpu time    6.9079: real time    6.9590
    CORREC:  cpu time    9.7124: real time    9.7822
    CHARGE:  cpu time    0.7964: real time    0.8022
    --------------------------------------------
      LOOP:  cpu time   25.7026: real time   25.8894

 eigenvalue-minimisations  :     0
 total energy-change (2. order) :-0.2179432E-04  (-0.7707752E-05)
 number of electron     216.0000000 magnetization 
 augmentation part       -0.3935172 magnetization 

 Free energy of the ion-electron system (eV)
  ---------------------------------------------------
  alpha Z        PSCENC =        47.94900195
  Ewald energy   TEWEN  =     48114.18302124
  -Hartree energ DENC   =    -55095.69210852
  -exchange      EXHF   =         0.00000000
  -V(xc)+E(xc)   XCENC  =       429.43558324
  PAW double counting   =     93835.56622336   -93535.86038061
  entropy T*S    EENTRO =        -0.00000000
  eigenvalues    EBANDS =     -2668.39894289
  atomic energy  EATOM  =      8461.08393172
  ---------------------------------------------------
  free energy    TOTEN  =      -411.73367051 eV

  energy without entropy =     -411.73367051  energy(sigma->0) =     -411.73367051


--------------------------------------------------------------------------------------------------------




--------------------------------------- Iteration      1(  19)  ---------------------------------------


    POTLOK:  cpu time    7.9117: real time    7.9705
    SETDIJ:  cpu time    0.2895: real time    0.2904
    TRIAL :  cpu time    6.9164: real time    6.9678
    CORREC:  cpu time    9.7134: real time    9.7788
    CHARGE:  cpu time    0.7986: real time    0.8043
    --------------------------------------------
      LOOP:  cpu time   25.6812: real time   25.8650

 eigenvalue-minimisations  :     0
 total energy-change (2. order) :-0.8279865E-05  (-0.3156486E-05)
 number of electron     216.0000000 magnetization 
 augmentation part       -0.3935376 magnetization 

 Free energy of the ion-electron system (eV)
  ---------------------------------------------------
  alpha Z        PSCENC =        47.94900195
  Ewald energy   TEWEN  =     48114.18302124
  -Hartree energ DENC   =    -55095.71990801
  -exchange      EXHF   =         0.00000000
  -V(xc)+E(xc)   XCENC  =       429.43638228
  PAW double counting   =     93838.95106773   -93539.24499001
  entropy T*S    EENTRO =        -0.00000000
  eigenvalues    EBANDS =     -2668.37218568
  atomic energy  EATOM  =      8461.08393172
  ---------------------------------------------------
  free energy    TOTEN  =      -411.73367879 eV

  energy without entropy =     -411.73367879  energy(sigma->0) =     -411.73367879


--------------------------------------------------------------------------------------------------------




--------------------------------------- Iteration      1(  20)  ---------------------------------------


    POTLOK:  cpu time    7.8915: real time    7.9437
    SETDIJ:  cpu time    0.3312: real time    0.3323
    TRIAL :  cpu time    6.9157: real time    6.9668
    CORREC:  cpu time    9.7617: real time    9.8261
    CHARGE:  cpu time    0.7960: real time    0.8012
    --------------------------------------------
      LOOP:  cpu time   25.7240: real time   25.9288

 eigenvalue-minimisations  :     0
 total energy-change (2. order) :-0.3380628E-05  (-0.1367012E-05)
 number of electron     216.0000000 magnetization 
 augmentation part       -0.3935532 magnetization 

 Free energy of the ion-electron system (eV)
  ---------------------------------------------------
  alpha Z        PSCENC =        47.94900195
  Ewald energy   TEWEN  =     48114.18302124
  -Hartree energ DENC   =    -55095.74076571
  -exchange      EXHF   =         0.00000000
  -V(xc)+E(xc)   XCENC  =       429.43697398
  PAW double counting   =     93843.39434913   -93543.68814522
  entropy T*S    EENTRO =        -0.00000000
  eigenvalues    EBANDS =     -2668.35204925
  atomic energy  EATOM  =      8461.08393172
  ---------------------------------------------------
  free energy    TOTEN  =      -411.73368217 eV

  energy without entropy =     -411.73368217  energy(sigma->0) =     -411.73368217


--------------------------------------------------------------------------------------------------------




--------------------------------------- Iteration      1(  21)  ---------------------------------------


    POTLOK:  cpu time    7.9102: real time    7.9621
    SETDIJ:  cpu time    0.2967: real time    0.2977
    TRIAL :  cpu time    6.9175: real time    6.9692
    CORREC:  cpu time    9.7185: real time    9.7845
    CHARGE:  cpu time    0.7956: real time    0.8014
    --------------------------------------------
      LOOP:  cpu time   25.6678: real time   25.8567

 eigenvalue-minimisations  :     0
 total energy-change (2. order) :-0.1425360E-05  (-0.6505695E-06)
 number of electron     216.0000000 magnetization 
 augmentation part       -0.3935527 magnetization 

 Free energy of the ion-electron system (eV)
  ---------------------------------------------------
  alpha Z        PSCENC =        47.94900195
  Ewald energy   TEWEN  =     48114.18302124
  -Hartree energ DENC   =    -55095.74328914
  -exchange      EXHF   =         0.00000000
  -V(xc)+E(xc)   XCENC  =       429.43686861
  PAW double counting   =     93846.05700859   -93546.35070646
  entropy T*S    EENTRO =        -0.00000000
  eigenvalues    EBANDS =     -2668.34952010
  atomic energy  EATOM  =      8461.08393172
  ---------------------------------------------------
  free energy    TOTEN  =      -411.73368359 eV

  energy without entropy =     -411.73368359  energy(sigma->0) =     -411.73368359


--------------------------------------------------------------------------------------------------------




--------------------------------------- Iteration      1(  22)  ---------------------------------------


    POTLOK:  cpu time    7.9083: real time    7.9630
    SETDIJ:  cpu time    0.3085: real time    0.3096
    TRIAL :  cpu time    6.9077: real time    6.9621
    CORREC:  cpu time    9.7275: real time    9.7979
    CHARGE:  cpu time    0.7966: real time    0.8016
    --------------------------------------------
      LOOP:  cpu time   25.7173: real time   25.9058

 eigenvalue-minimisations  :     0
 total energy-change (2. order) :-0.6389164E-06  (-0.2475421E-06)
 number of electron     216.0000000 magnetization 
 augmentation part       -0.3935521 magnetization 

 Free energy of the ion-electron system (eV)
  ---------------------------------------------------
  alpha Z        PSCENC =        47.94900195
  Ewald energy   TEWEN  =     48114.18302124
  -Hartree energ DENC   =    -55095.74844522
  -exchange      EXHF   =         0.00000000
  -V(xc)+E(xc)   XCENC  =       429.43698592
  PAW double counting   =     93846.43371145   -93546.72746473
  entropy T*S    EENTRO =        -0.00000000
  eigenvalues    EBANDS =     -2668.34442657
  atomic energy  EATOM  =      8461.08393172
  ---------------------------------------------------
  free energy    TOTEN  =      -411.73368423 eV

  energy without entropy =     -411.73368423  energy(sigma->0) =     -411.73368423


--------------------------------------------------------------------------------------------------------




--------------------------------------- Iteration      1(  23)  ---------------------------------------


    POTLOK:  cpu time    7.8862: real time    7.9381
    SETDIJ:  cpu time    0.3289: real time    0.3301
    TRIAL :  cpu time    6.9115: real time    6.9633
    CORREC:  cpu time    9.7163: real time    9.7859
    CHARGE:  cpu time    0.7922: real time    0.8010
    --------------------------------------------
      LOOP:  cpu time   25.6836: real time   25.8702

 eigenvalue-minimisations  :     0
 total energy-change (2. order) :-0.2347369E-06  (-0.1895789E-06)
 number of electron     216.0000000 magnetization 
 augmentation part       -0.3935507 magnetization 

 Free energy of the ion-electron system (eV)
  ---------------------------------------------------
  alpha Z        PSCENC =        47.94900195
  Ewald energy   TEWEN  =     48114.18302124
  -Hartree energ DENC   =    -55095.74345982
  -exchange      EXHF   =         0.00000000
  -V(xc)+E(xc)   XCENC  =       429.43683023
  PAW double counting   =     93845.68108763   -93545.97486054
  entropy T*S    EENTRO =        -0.00000000
  eigenvalues    EBANDS =     -2668.34923687
  atomic energy  EATOM  =      8461.08393172
  ---------------------------------------------------
  free energy    TOTEN  =      -411.73368447 eV

  energy without entropy =     -411.73368447  energy(sigma->0) =     -411.73368447


--------------------------------------------------------------------------------------------------------




--------------------------------------- Iteration      1(  24)  ---------------------------------------


    POTLOK:  cpu time    7.8858: real time    7.9398
    SETDIJ:  cpu time    0.3148: real time    0.3159
    TRIAL :  cpu time    6.9034: real time    6.9638
    CORREC:  cpu time    9.7090: real time    9.7770
    EDDIAG:  cpu time    1.1049: real time    1.1131
    CHARGE:  cpu time    0.8151: real time    0.8204
    --------------------------------------------
      LOOP:  cpu time   26.7637: real time   26.9630

 eigenvalue-minimisations  :     0
 total energy-change (2. order) :-0.9825453E-07  (-0.9717055E-07)
 number of electron     216.0000000 magnetization 
 augmentation part       -0.3935522 magnetization 

 Free energy of the ion-electron system (eV)
  ---------------------------------------------------
  alpha Z        PSCENC =        47.94900195
  Ewald energy   TEWEN  =     48114.18302124
  -Hartree energ DENC   =    -55095.73868621
  -exchange      EXHF   =         0.00000000
  -V(xc)+E(xc)   XCENC  =       429.43676439
  PAW double counting   =     93844.47647862   -93544.77028483
  entropy T*S    EENTRO =        -0.00000000
  eigenvalues    EBANDS =     -2668.35391145
  atomic energy  EATOM  =      8461.08393172
  ---------------------------------------------------
  free energy    TOTEN  =      -411.73368457 eV

  energy without entropy =     -411.73368457  energy(sigma->0) =     -411.73368457


--------------------------------------------------------------------------------------------------------


  average scaling for gradient   0.9847


 average (electrostatic) potential at core
  the test charge radii are     0.5770  0.5955
  (the norm of the test charge is              1.0000)
       1 -86.3493       2 -86.3420       3 -86.3564       4 -86.3608       5 -86.3392
       6 -86.3347       7 -86.3434       8 -86.3186       9 -86.3345      10 -86.3304
      11 -86.3390      12 -86.3455      13 -86.3278      14 -86.3320      15 -86.3370
      16 -86.3347      17 -86.3423      18 -86.3438      19 -86.3477      20 -86.3425
      21 -86.3263      22 -86.3320      23 -86.3535      24 -86.3500      25 -86.3381
      26 -86.3404      27 -86.3344      28 -86.3516      29 -86.3339      30 -86.3379
      31 -86.3617      32 -86.3505      33 -86.3475      34 -86.3403      35 -86.3374
      36 -86.3413      37 -86.3431      38 -86.3466      39 -86.3465      40 -86.3435
      41 -86.3448      42 -86.3487      43 -86.3415      44 -86.3485      45 -86.3368
      46 -86.3349      47 -86.3444      48 -86.3407      49 -86.3453      50 -86.3435
      51 -90.2680      52-120.5669      53-120.5743
 
 
 
 E-fermi :  -4.4533     XC(G=0):  -2.8900     alpha+bet : -1.6890

 Fermi energy:        -4.4532976316

 k-point     1 :       0.0000    0.0000    0.0000
  band No.  band energies     occupation 
      1     -27.7338      2.00000
      2     -26.7466      2.00000
      3     -22.4805      2.00000
      4     -21.5615      2.00000
      5     -21.5505      2.00000
      6     -21.5434      2.00000
      7     -21.5425      2.00000
      8     -21.5397      2.00000
      9     -21.5357      2.00000
     10     -19.7241      2.00000
     11     -19.7195      2.00000
     12     -19.7120      2.00000
     13     -19.7111      2.00000
     14     -19.7089      2.00000
     15     -19.7085      2.00000
     16     -18.8301      2.00000
     17     -18.8263      2.00000
     18     -18.8228      2.00000
     19     -18.8210      2.00000
     20     -18.8193      2.00000
     21     -18.8186      2.00000
     22     -16.6868      2.00000
     23     -16.6846      2.00000
     24     -16.6800      2.00000
     25     -16.6788      2.00000
     26     -16.6746      2.00000
     27     -16.6737      2.00000
     28     -15.6922      2.00000
     29     -15.6903      2.00000
     30     -15.6853      2.00000
     31     -15.6850      2.00000
     32     -15.6827      2.00000
     33     -15.6821      2.00000
     34     -14.3516      2.00000
     35     -14.3501      2.00000
     36     -14.3486      2.00000
     37     -14.3466      2.00000
     38     -14.3461      2.00000
     39     -14.3456      2.00000
     40     -12.6227      2.00000
     41     -11.9994      2.00000
     42     -11.9977      2.00000
     43     -11.9931      2.00000
     44     -11.9924      2.00000
     45     -11.9923      2.00000
     46     -11.9910      2.00000
     47     -11.8892      2.00000
     48     -11.8861      2.00000
     49     -11.8843      2.00000
     50     -11.8839      2.00000
     51     -11.8795      2.00000
     52     -11.8793      2.00000
     53     -11.5560      2.00000
     54     -11.4843      2.00000
     55     -11.3837      2.00000
     56     -10.5821      2.00000
     57     -10.5202      2.00000
     58     -10.5200      2.00000
     59     -10.5183      2.00000
     60     -10.5181      2.00000
     61     -10.5171      2.00000
     62     -10.5159      2.00000
     63      -9.5274      2.00000
     64      -9.5269      2.00000
     65      -9.5241      2.00000
     66      -9.5210      2.00000
     67      -9.5190      2.00000
     68      -9.4164      2.00000
     69      -9.2828      2.00000
     70      -9.2789      2.00000
     71      -9.2778      2.00000
     72      -9.2771      2.00000
     73      -9.2761      2.00000
     74      -9.2741      2.00000
     75      -9.2217      2.00000
     76      -9.2205      2.00000
     77      -9.2198      2.00000
     78      -9.2173      2.00000
     79      -9.2170      2.00000
     80      -9.2149      2.00000
     81      -7.9801      2.00000
     82      -7.8724      2.00000
     83      -7.6443      2.00000
     84      -7.6430      2.00000
     85      -7.6417      2.00000
     86      -7.6385      2.00000
     87      -7.6372      2.00000
     88      -7.6368      2.00000
     89      -7.4089      2.00000
     90      -7.3983      2.00000
     91      -7.3943      2.00000
     92      -7.3842      2.00000
     93      -7.3794      2.00000
     94      -7.2665      2.00000
     95      -6.5144      2.00000
     96      -6.5113      2.00000
     97      -6.5018      2.00000
     98      -6.5010      2.00000
     99      -6.4912      2.00000
    100      -6.4398      2.00000
    101      -6.1804      2.00000
    102      -6.1780      2.00000
    103      -4.5423      2.00000
    104      -4.5355      2.00000
    105      -4.5290      2.00000
    106      -4.5245      2.00000
    107      -4.5216      2.00000
    108      -4.5202      2.00000
    109      -1.7585      0.00000
    110      -1.7509      0.00000
    111      -1.7339      0.00000
    112      -1.7305      0.00000
    113      -1.7279      0.00000
    114      -1.7216      0.00000
    115      -0.8881      0.00000
    116      -0.1680      0.00000
    117       0.0735      0.00000
    118       0.0988      0.00000
    119       0.1158      0.00000
    120       0.1252      0.00000
    121       0.1287      0.00000
    122       0.1334      0.00000
    123       0.1758      0.00000
    124       0.2639      0.00000
    125       0.2818      0.00000
    126       0.3235      0.00000
    127       0.5764      0.00000
    128       0.6076      0.00000
    129       0.6142      0.00000
    130       0.6890      0.00000
    131       0.6916      0.00000
    132       0.8642      0.00000
    133       0.9940      0.00000
    134       1.1325      0.00000
    135       1.1935      0.00000
    136       1.2033      0.00000
    137       1.2102      0.00000
    138       1.2292      0.00000
    139       1.3643      0.00000
    140       1.4261      0.00000
    141       1.6172      0.00000
    142       1.6510      0.00000
    143       1.6575      0.00000
    144       1.6683      0.00000
    145       1.6752      0.00000
    146       1.8398      0.00000
    147       1.8460      0.00000
    148       1.8579      0.00000
    149       1.8595      0.00000
    150       1.8649      0.00000
    151       1.8731      0.00000
    152       1.9212      0.00000
    153       2.0926      0.00000
    154       2.1403      0.00000
    155       2.1612      0.00000
    156       2.1886      0.00000
    157       2.2358      0.00000
    158       2.3796      0.00000
    159       2.4360      0.00000
    160       2.6208      0.00000
    161       2.7851      0.00000
    162       2.9039      0.00000
    163       4.1973      0.00000
    164       4.4590      0.00000
    165       4.5113      0.00000
    166       4.5400      0.00000
    167       4.5503      0.00000
    168       4.5563      0.00000


--------------------------------------------------------------------------------------------------------


 soft charge-density along one line, spin component           1
         0         1         2         3         4         5         6         7         8         9
 total charge-density along one line
 
 pseudopotential strength for first ion, spin component:           1
 12.688  21.352  -0.000   0.000   0.000  -0.000   0.000   0.000
 21.352  35.930  -0.000   0.000   0.000  -0.000   0.000   0.000
 -0.000  -0.000  -3.244  -0.000   0.000  -5.814  -0.000   0.000
  0.000   0.000  -0.000  -3.252  -0.000  -0.000  -5.828  -0.000
  0.000   0.000   0.000  -0.000  -3.244   0.000  -0.000  -5.814
 -0.000  -0.000  -5.814  -0.000   0.000 -10.399  -0.000   0.000
  0.000   0.000  -0.000  -5.828  -0.000  -0.000 -10.423  -0.000
  0.000   0.000   0.000  -0.000  -5.814   0.000  -0.000 -10.399
 total augmentation occupancy for first ion, spin component:           1
  6.916  -2.317  -0.001  -0.001   0.000   0.000   0.001  -0.000
 -2.317   0.818   0.000   0.000  -0.000  -0.000  -0.000   0.000
 -0.001   0.000   6.627  -0.007   0.000  -2.167   0.003  -0.000
 -0.001   0.000  -0.007   2.818  -0.000   0.003  -0.689   0.000
  0.000  -0.000   0.000  -0.000   6.627  -0.000   0.000  -2.167
  0.000  -0.000  -2.167   0.003  -0.000   0.724  -0.001   0.000
  0.001  -0.000   0.003  -0.689   0.000  -0.001   0.176   0.000
 -0.000   0.000  -0.000   0.000  -2.167   0.000   0.000   0.724


------------------------ aborting loop because EDIFF is reached ----------------------------------------


    FORLOC:  cpu time    0.1347: real time    0.1356
    FORNL :  cpu time    3.5939: real time    3.6236
    FORCOR:  cpu time    7.9521: real time    8.0042
    OFIELD:  cpu time    0.0029: real time    0.0029

 VOLUME and BASIS-vectors are now :
 -----------------------------------------------------------------------------
  energy-cutoff  :     1000.00
  volume of cell :     3288.85
      direct lattice vectors                 reciprocal lattice vectors
    12.325000000  0.000000000  0.000000000     0.081135903  0.046843835  0.000000000
    -6.162500000 10.673763102  0.000000000     0.000000000  0.093687670  0.000000000
     0.000000000  0.000000000 25.000000000     0.000000000  0.000000000  0.040000000

  length of vectors
    12.325000000 12.325000000 25.000000000     0.093687670  0.093687670  0.040000000


 FORCES acting on ions:
    Electron-Ion                     Ewald-Force                    Non-Local-Force
 -----------------------------------------------------------------------------------------------
   0.130E+02 0.114E+02 0.248E+02   -.130E+02 -.114E+02 -.248E+02   0.144E-01 -.909E-02 0.174E-01
   0.221E+02 0.110E+02 0.335E+02   -.221E+02 -.110E+02 -.335E+02   0.220E-01 -.169E-01 -.234E-02
   0.114E+02 0.286E+02 0.429E+02   -.114E+02 -.287E+02 -.429E+02   -.971E-03 0.587E-01 0.543E-01
   0.192E+02 0.283E+02 0.743E+02   -.193E+02 -.283E+02 -.744E+02   0.841E-01 0.351E-01 0.969E-01
   0.142E+02 0.339E+01 0.249E+02   -.142E+02 -.337E+01 -.249E+02   0.161E-02 -.204E-01 -.202E-02
   0.150E+02 -.249E+01 0.255E+02   -.150E+02 0.250E+01 -.255E+02   -.294E-01 -.718E-02 -.989E-02
   0.319E+02 0.135E+02 0.622E+02   -.320E+02 -.134E+02 -.622E+02   0.611E-01 -.940E-01 -.493E-01
   0.320E+02 -.106E+02 0.675E+02   -.320E+02 0.106E+02 -.674E+02   -.215E-01 -.351E-01 -.230E+00
   -.124E+02 0.269E+02 0.448E+02   0.124E+02 -.268E+02 -.447E+02   -.251E-01 -.135E-01 -.560E-01
   -.241E+02 0.208E+02 0.732E+02   0.242E+02 -.208E+02 -.731E+02   -.736E-01 0.345E-01 -.240E+00
   0.344E+01 -.298E+01 0.196E+02   -.342E+01 0.296E+01 -.196E+02   -.861E-02 0.710E-02 -.552E-02
   0.270E+01 -.217E+01 0.182E+02   -.270E+01 0.218E+01 -.182E+02   -.174E-01 0.749E-02 0.168E-02
   0.119E+02 -.301E+02 0.788E+02   -.121E+02 0.302E+02 -.787E+02   0.119E+00 0.421E-02 -.264E+00
   0.518E+01 -.292E+02 0.439E+02   -.522E+01 0.291E+02 -.438E+02   0.327E-01 0.274E-02 -.470E-01
   -.128E+02 0.805E+01 0.244E+02   0.127E+02 -.804E+01 -.244E+02   0.198E-01 -.111E-01 -.381E-02
   -.194E+02 0.538E+01 0.293E+02   0.193E+02 -.538E+01 -.292E+02   0.402E-02 0.734E-02 -.229E-01
   -.183E+01 -.754E+00 0.174E+02   0.184E+01 0.752E+00 -.174E+02   -.394E-02 -.226E-02 0.147E-02
   0.104E+01 0.681E+01 0.187E+02   -.104E+01 -.681E+01 -.187E+02   -.101E-01 0.423E-02 0.875E-02
   -.405E+01 -.230E+02 0.317E+02   0.402E+01 0.230E+02 -.318E+02   0.379E-01 -.269E-02 0.222E-01
   -.163E+01 -.106E+02 0.208E+02   0.163E+01 0.106E+02 -.208E+02   0.427E-02 -.489E-02 -.789E-03
   0.234E+02 -.101E+02 0.369E+02   -.233E+02 0.101E+02 -.369E+02   -.141E-01 -.248E-02 -.516E-01
   0.134E+02 -.116E+02 0.277E+02   -.133E+02 0.116E+02 -.277E+02   -.176E-01 0.251E-01 -.104E-01
   -.589E+01 0.143E+02 0.101E+03   0.602E+01 -.144E+02 -.101E+03   -.131E+00 0.899E-01 -.771E-01
   -.116E+02 -.228E+02 0.934E+02   0.116E+02 0.229E+02 -.935E+02   0.907E-01 -.101E+00 -.301E-01
   0.596E+01 -.268E+01 0.198E+02   -.593E+01 0.267E+01 -.198E+02   -.162E-01 0.350E-02 -.936E-02
   0.106E+01 0.536E+01 0.200E+02   -.105E+01 -.536E+01 -.200E+02   -.144E-01 0.618E-02 -.118E-02
   -.313E+02 0.335E+01 0.506E+02   0.313E+02 -.341E+01 -.505E+02   0.535E-02 0.385E-01 -.745E-01
   -.279E+02 -.122E+02 0.442E+02   0.280E+02 0.122E+02 -.442E+02   -.474E-01 0.447E-01 0.266E-01
   0.816E+01 -.168E+02 0.292E+02   -.816E+01 0.168E+02 -.291E+02   0.780E-02 0.159E-01 -.158E-01
   0.758E+00 -.598E+01 0.212E+02   -.775E+00 0.597E+01 -.212E+02   0.526E-02 0.138E-01 -.888E-02
   -.234E+02 -.254E+02 0.565E+02   0.234E+02 0.255E+02 -.566E+02   -.636E-01 -.423E-01 0.924E-01
   -.125E+02 -.227E+02 0.343E+02   0.125E+02 0.227E+02 -.344E+02   -.181E-02 -.354E-01 0.338E-01
   0.675E+00 0.281E+01 0.180E+02   -.679E+00 -.281E+01 -.180E+02   0.122E-01 -.100E-01 0.366E-02
   0.197E+01 0.287E+01 0.196E+02   -.197E+01 -.285E+01 -.195E+02   0.103E-02 -.856E-02 -.607E-02
   -.884E+01 0.104E+01 0.217E+02   0.883E+01 -.105E+01 -.217E+02   0.141E-01 0.303E-02 -.173E-02
   -.753E+01 -.298E+01 0.210E+02   0.754E+01 0.298E+01 -.210E+02   -.118E-01 0.102E-01 -.305E-02
   -.156E+02 -.815E+01 0.256E+02   0.156E+02 0.814E+01 -.256E+02   -.180E-01 0.460E-02 0.258E-02
   -.875E+01 -.713E+01 0.206E+02   0.876E+01 0.712E+01 -.207E+02   -.117E-01 0.396E-02 0.112E-01
   -.828E+01 -.109E+02 0.224E+02   0.829E+01 0.109E+02 -.224E+02   -.121E-01 -.106E-01 0.795E-02
   -.121E+01 -.253E+01 0.186E+02   0.120E+01 0.254E+01 -.186E+02   0.741E-03 -.207E-02 0.798E-02
   0.310E+01 0.737E+01 0.196E+02   -.310E+01 -.738E+01 -.196E+02   -.320E-02 0.117E-01 0.791E-02
   0.106E+02 0.165E+02 0.267E+02   -.106E+02 -.165E+02 -.267E+02   0.142E-01 0.170E-01 0.183E-01
   0.831E+00 0.133E+02 0.222E+02   -.821E+00 -.134E+02 -.222E+02   -.873E-02 0.993E-02 -.254E-03
   0.302E+00 0.264E+02 0.359E+02   -.264E+00 -.264E+02 -.359E+02   -.468E-01 0.119E-01 0.236E-01
   -.254E+01 0.508E+01 0.212E+02   0.254E+01 -.507E+01 -.212E+02   0.994E-03 -.102E-01 -.635E-02
   -.110E+02 0.141E+02 0.277E+02   0.110E+02 -.141E+02 -.277E+02   -.422E-02 -.479E-02 -.165E-01
   -.176E+01 -.500E+01 0.194E+02   0.175E+01 0.500E+01 -.194E+02   0.163E-01 0.322E-04 0.108E-02
   -.468E+01 0.193E+01 0.185E+02   0.466E+01 -.192E+01 -.185E+02   0.124E-01 -.194E-02 -.816E-02
   0.346E+00 -.310E+01 0.182E+02   -.344E+00 0.309E+01 -.182E+02   0.818E-02 -.293E-02 0.530E-02
   0.490E+01 0.361E+01 0.185E+02   -.490E+01 -.361E+01 -.185E+02   0.385E-02 0.549E-02 0.385E-02
   0.297E+00 -.175E+00 -.425E+03   -.279E+00 0.160E+00 0.426E+03   -.271E-01 0.129E-01 -.492E-01
   -.229E+03 0.155E+03 -.652E+03   0.279E+03 -.190E+03 0.655E+03   -.509E+02 0.347E+02 -.275E+01
   0.229E+03 -.156E+03 -.629E+03   -.279E+03 0.190E+03 0.626E+03   0.509E+02 -.348E+02 0.372E+01
 -----------------------------------------------------------------------------------------------
   0.589E-01 0.372E-02 -.117E+00   0.568E-13 -.142E-12 0.568E-12   -.589E-01 -.362E-02 0.117E+00
 
 
 POSITION                                       TOTAL-FORCE (eV/Angst)
 -----------------------------------------------------------------------------------
     11.98348      0.00342      0.01417         0.000593     -0.002033      0.001007
     -0.34154      1.42665      0.01100         0.009920      0.007848      0.002951
      2.12355      0.00315      0.01249         0.005419     -0.013603      0.011597
      2.12326      1.42653      0.00641        -0.006618      0.008541     -0.026716
     10.75099      2.13819      0.01213        -0.000572     -0.003592      0.004134
     -1.57382      3.56123      0.01110        -0.005838      0.008015      0.003052
      0.89078      2.13854      0.00548        -0.015871      0.011074     -0.028827
      0.89099      3.56147      0.00181        -0.013803      0.020264     -0.083128
      4.58864      0.00346      0.01135         0.010472      0.033799     -0.005578
      4.58894      1.42623      0.00646         0.020132     -0.017565     -0.110895
      9.51854      4.27281      0.01369         0.008359     -0.012333      0.000593
     -2.80632      5.69591      0.01434        -0.013194      0.007733      0.001162
      2.12300      4.27302      0.00000        -0.019093      0.040424     -0.140235
      2.12335      5.69594      0.00581        -0.006538     -0.042216     -0.003878
      7.05344      0.00333      0.01399         0.003844     -0.001151      0.004464
      7.05353      1.42635      0.01368        -0.007396      0.006463      0.002858
      8.28610      6.40752      0.01601         0.005031     -0.005187     -0.000122
     -4.03885      7.83070      0.01636        -0.006429      0.006569      0.000335
      3.35586      6.40753      0.01007         0.008250      0.003320      0.006393
      3.35599      7.83072      0.01320        -0.003000     -0.003745      0.000820
     -0.34146      4.27290      0.00723         0.027629     -0.017382      0.000321
     -0.34138      5.69591      0.00946        -0.006757      0.004893      0.006982
      3.35624      2.13791      0.00222         0.006721     -0.012559     -0.204995
      3.35573      3.56155      0.00139         0.003999      0.022321     -0.140342
     -1.57395      6.40758      0.01311         0.014177     -0.002178     -0.000567
     -1.57385      7.83068      0.01438        -0.005011      0.003968      0.000622
      5.82093      2.13784      0.01033        -0.019400     -0.022285     -0.015254
      5.82114      3.56097      0.01156        -0.000193     -0.000590      0.008851
      0.89092      6.40755      0.00907         0.001615     -0.000122      0.006384
      0.89106      7.83068      0.01235        -0.011241     -0.003025      0.000672
      4.58871      4.27293      0.00850         0.000425     -0.012169      0.007712
      4.58852      5.69606      0.01149        -0.000652      0.014988      0.005910
      9.51845      0.00337      0.01490         0.008251     -0.007897      0.000555
      9.51855      1.42644      0.01438        -0.004335      0.013281     -0.000136
      8.28593      2.13803      0.01453         0.002430     -0.007989      0.002095
      8.28613      3.56115      0.01464        -0.004411      0.002080      0.001019
      7.05356      4.27269      0.01457         0.000271     -0.002013      0.002736
      7.05362      5.69588      0.01553        -0.003118      0.001722      0.000366
      5.82112      6.40755      0.01489        -0.000861     -0.001124      0.000224
      5.82102      7.83073      0.01579        -0.004106      0.004729     -0.000042
      7.05363      8.54227      0.01631         0.002027     -0.003338      0.001346
     -5.27149      9.96549      0.01495        -0.001152     -0.000808     -0.000157
     -2.80638      8.54234      0.01558         0.002088      0.001678      0.000759
     -2.80627      9.96553      0.01362        -0.008675     -0.001025      0.007962
     -0.34149      8.54239      0.01378         0.006988      0.000201      0.001217
     -0.34138      9.96550      0.01354        -0.008023      0.003972      0.004935
      2.12343      8.54232      0.01336         0.007727     -0.000123      0.000989
      2.12354      9.96544      0.01469        -0.008966      0.002598     -0.001789
      4.58846      8.54235      0.01505         0.010512     -0.007706      0.001373
      4.58853      9.96550      0.01517        -0.002410      0.006475      0.001152
      3.04930      2.68154      2.80616        -0.008660     -0.002400      0.121393
      4.02070      2.02068      2.87058        -0.583331      0.424253      0.201112
      2.07767      3.34267      2.74670         0.612773     -0.455052      0.336609
 -----------------------------------------------------------------------------------
    total drift:                                0.000026      0.000104     -0.000229


--------------------------------------------------------------------------------------------------------



  FREE ENERGIE OF THE ION-ELECTRON SYSTEM (eV)
  ---------------------------------------------------
  free  energy   TOTEN  =      -411.73368457 eV

  energy  without entropy=     -411.73368457  energy(sigma->0) =     -411.73368457
 


--------------------------------------------------------------------------------------------------------


    POTLOK:  cpu time    8.4941: real time    8.5465


--------------------------------------------------------------------------------------------------------


 writing wavefunctions
     LOOP+:  cpu time  645.0752: real time  650.2830
    4ORBIT:  cpu time    0.0000: real time    0.0000

 total amount of memory used by VASP MPI-rank0   551512. kBytes
=======================================================================

   base      :      30000. kBytes
   nonl-proj :     230539. kBytes
   fftplans  :      40716. kBytes
   grid      :     216018. kBytes
   one-center:        162. kBytes
   wavefun   :      34077. kBytes
 
  
  
 General timing and accounting informations for this job:
 ========================================================
  
                  Total CPU time used (sec):      693.060
                            User time (sec):      657.823
                          System time (sec):       35.236
                         Elapsed time (sec):      699.567
  
                   Maximum memory used (kb):     1360336.
                   Average memory used (kb):          N/A
  
                          Minor page faults:       397705
                          Major page faults:           84
                 Voluntary context switches:         3091
