 vasp.6.2.1 16May21 (build Nov 06 2021 14:46:37) complex                        
  
 executed on             LinuxIFC date 2025.03.03  19:22:24
 running on  112 total cores
 distrk:  each k-point on   56 cores,    2 groups
 distr:  one band on NCORE=   1 cores,   56 groups


--------------------------------------------------------------------------------------------------------


 INCAR:
   ALGO = Conjugate
   KPAR = 2
   NCORE = 32
   ISMEAR = 0
   SIGMA = 0.01
   PREC = Accurate
   EDIFF = 1E-7
   ENCUT = 1000
   ISIF = 0
   GGA = BO
   PARAM1 = 0.1833333333
   PARAM2 = 0.2200000000
   LUSE_VDW = .TRUE.
   AGGAC = 0.0000
   LASPH = .TRUE.
   SYMPREC = 1E-7

 POTCAR:    PAW_PBE C_h 06Feb2004                 
 POTCAR:    PAW_PBE O_h 06Feb2004                 
 -----------------------------------------------------------------------------
|                                                                             |
|           W    W    AA    RRRRR   N    N  II  N    N   GGGG   !!!           |
|           W    W   A  A   R    R  NN   N  II  NN   N  G    G  !!!           |
|           W    W  A    A  R    R  N N  N  II  N N  N  G       !!!           |
|           W WW W  AAAAAA  RRRRR   N  N N  II  N  N N  G  GGG   !            |
|           WW  WW  A    A  R   R   N   NN  II  N   NN  G    G                |
|           W    W  A    A  R    R  N    N  II  N    N   GGGG   !!!           |
|                                                                             |
|     The value NCORE = 32 specified in the INCAR file was overwritten,       |
|     because it was not compatible with the 56 processes available:          |
|     NCORE = 1                                                               |
|     was used instead, please check that this makes sense for your           |
|     machine.                                                                |
|                                                                             |
 -----------------------------------------------------------------------------

 -----------------------------------------------------------------------------
|                                                                             |
|           W    W    AA    RRRRR   N    N  II  N    N   GGGG   !!!           |
|           W    W   A  A   R    R  NN   N  II  NN   N  G    G  !!!           |
|           W    W  A    A  R    R  N N  N  II  N N  N  G       !!!           |
|           W WW W  AAAAAA  RRRRR   N  N N  II  N  N N  G  GGG   !            |
|           WW  WW  A    A  R   R   N   NN  II  N   NN  G    G                |
|           W    W  A    A  R    R  N    N  II  N    N   GGGG   !!!           |
|                                                                             |
|     For optimal performance we recommend to set                             |
|       NCORE = 2 up to number-of-cores-per-socket                            |
|     NCORE specifies how many cores store one orbital (NPAR=cpu/NCORE).      |
|     This setting can greatly improve the performance of VASP for DFT.       |
|     The default, NCORE=1 might be grossly inefficient on modern             |
|     multi-core architectures or massively parallel machines. Do your        |
|     own testing! More info at https://www.vasp.at/wiki/index.php/NCORE      |
|     Unfortunately you need to use the default for GW and RPA                |
|     calculations (for HF NCORE is supported but not extensively tested      |
|     yet).                                                                   |
|                                                                             |
 -----------------------------------------------------------------------------

 -----------------------------------------------------------------------------
|                                                                             |
|               ----> ADVICE to this user running VASP <----                  |
|                                                                             |
|     You have switched on vdW-DFT.                                           |
|     This routine was written and supplied by Jiri Klimes. We recommend      |
|     that you carefully read and cite the following publications:            |
|       J. Klimes, D.R. Bowler, A. Michelides                                 |
|          J. Phys.: Cond Matt. 22 022201 (2010)                              |
|       J. Klimes, D.R. Bowler, A. Michelides                                 |
|          Phys. Rev. B. 83, 195131 (2011)                                    |
|     and references therein.                                                 |
|                                                                             |
 -----------------------------------------------------------------------------

 POTCAR:    PAW_PBE C_h 06Feb2004                 
   VRHFIN =C: s2p2                                                                                  
   LEXCH  = PE                                                                                      
   EATOM  =   147.1560 eV,   10.8157 Ry                                                             
                                                                                                    
   TITEL  = PAW_PBE C_h 06Feb2004                                                                   
   LULTRA =        F    use ultrasoft PP ?                                                          
   IUNSCR =        1    unscreen: 0-lin 1-nonlin 2-no                                               
   RPACOR =    0.800    partial core radius                                                         
   POMASS =   12.011; ZVAL   =    4.000    mass and valenz                                          
   RCORE  =    1.100    outmost cutoff radius                                                       
   RWIGS  =    1.630; RWIGS  =    0.863    wigner-seitz radius (au A)                               
   ENMAX  =  700.000; ENMIN  =  500.000 eV                                                          
   ICORE  =        2    local potential                                                             
   LCOR   =        T    correct aug charges                                                         
   LPAW   =        T    paw PP                                                                      
   EAUG   =  946.768                                                                                
   DEXC   =    0.000                                                                                
   RMAX   =    1.128    core radius for proj-oper                                                   
   RAUG   =    1.300    factor for augmentation sphere                                              
   RDEP   =    1.162    radius for radial grids                                                     
   RDEPT  =    1.088    core radius for aug-charge                                                  
                                                                                                    
   Atomic configuration                                                                             
    4 entries                                                                                       
     n  l   j            E        occ.                                                              
     1  0  0.50      -273.3789   2.0000                                                             
     2  0  0.50       -13.7508   2.0000                                                             
     2  1  0.50        -5.2854   2.0000                                                             
     3  2  1.50        -5.4423   0.0000                                                             
   Description                                                                                      
     l       E           TYP  RCUT    TYP  RCUT                                                     
     0    -13.7508458     23  1.100                                                                 
     0     -8.2022199     23  1.100                                                                 
     1     -5.2854383     23  1.100                                                                 
     1      1.1560700     23  1.100                                                                 
     2     -5.4423304      7  1.100                                                                 
  local pseudopotential read in
  partial core-charges read in
  partial kinetic energy density read in
  atomic valenz-charges read in
  non local Contribution for L=           0  read in
    real space projection operators read in
  non local Contribution for L=           0  read in
    real space projection operators read in
  non local Contribution for L=           1  read in
    real space projection operators read in
  non local Contribution for L=           1  read in
    real space projection operators read in
    PAW grid and wavefunctions read in
 
   number of l-projection  operators is LMAX  =           4
   number of lm-projection operators is LMMAX =           8
 
 POTCAR:    PAW_PBE O_h 06Feb2004                 
   VRHFIN =O: s2p4                                                                                  
   LEXCH  = PE                                                                                      
   EATOM  =   432.3788 eV,   31.7789 Ry                                                             
                                                                                                    
   TITEL  = PAW_PBE O_h 06Feb2004                                                                   
   LULTRA =        F    use ultrasoft PP ?                                                          
   IUNSCR =        1    unscreen: 0-lin 1-nonlin 2-no                                               
   RPACOR =    0.800    partial core radius                                                         
   POMASS =   16.000; ZVAL   =    6.000    mass and valenz                                          
   RCORE  =    1.100    outmost cutoff radius                                                       
   RWIGS  =    1.400; RWIGS  =    0.741    wigner-seitz radius (au A)                               
   ENMAX  =  700.000; ENMIN  =  500.000 eV                                                          
   ICORE  =        2    local potential                                                             
   LCOR   =        T    correct aug charges                                                         
   LPAW   =        T    paw PP                                                                      
   EAUG   =  888.804                                                                                
   DEXC   =    0.000                                                                                
   RMAX   =    1.128    core radius for proj-oper                                                   
   RAUG   =    1.300    factor for augmentation sphere                                              
   RDEP   =    1.125    radius for radial grids                                                     
   RDEPT  =    1.088    core radius for aug-charge                                                  
                                                                                                    
   Atomic configuration                                                                             
    4 entries                                                                                       
     n  l   j            E        occ.                                                              
     1  0  0.50      -514.6923   2.0000                                                             
     2  0  0.50       -23.9615   2.0000                                                             
     2  1  0.50        -9.0305   4.0000                                                             
     3  2  1.50        -9.5241   0.0000                                                             
   Description                                                                                      
     l       E           TYP  RCUT    TYP  RCUT                                                     
     0    -23.9615319     23  1.100                                                                 
     0    -25.3221145     23  1.100                                                                 
     1     -9.0304911     23  1.100                                                                 
     1     -5.4802209     23  1.100                                                                 
     2     -9.5240782      7  1.100                                                                 
  local pseudopotential read in
  partial core-charges read in
  partial kinetic energy density read in
  atomic valenz-charges read in
  non local Contribution for L=           0  read in
    real space projection operators read in
  non local Contribution for L=           0  read in
    real space projection operators read in
  non local Contribution for L=           1  read in
    real space projection operators read in
  non local Contribution for L=           1  read in
    real space projection operators read in
    PAW grid and wavefunctions read in
 
   number of l-projection  operators is LMAX  =           4
   number of lm-projection operators is LMMAX =           8
 
 -----------------------------------------------------------------------------
|                                                                             |
|               ----> ADVICE to this user running VASP <----                  |
|                                                                             |
|     You have a (more or less) 'large supercell' and for larger cells it     |
|     might be more efficient to use real-space projection operators.         |
|     Therefore, try LREAL= Auto in the INCAR file.                           |
|     Mind: For very accurate calculation, you might also keep the            |
|     reciprocal projection scheme (i.e. LREAL=.FALSE.).                      |
|                                                                             |
 -----------------------------------------------------------------------------

 -----------------------------------------------------------------------------
|                                                                             |
|               ----> ADVICE to this user running VASP <----                  |
|                                                                             |
|     You enforced a specific xc type in the INCAR file but a different       |
|     type was found in the POTCAR file.                                      |
|     I HOPE YOU KNOW WHAT YOU ARE DOING!                                     |
|                                                                             |
 -----------------------------------------------------------------------------

  PAW_PBE C_h 06Feb2004                 :
 energy of atom  1       EATOM= -147.1560
 kinetic energy error for atom=    0.0031 (will be added to EATOM!!)
  PAW_PBE O_h 06Feb2004                 :
 energy of atom  2       EATOM= -432.3788
 kinetic energy error for atom=    0.0171 (will be added to EATOM!!)
 
 
 POSCAR:  C  O
  positions in cartesian coordinates
  No initial velocities read in
 exchange correlation table for  LEXCH =       42
   RHO(1)=    0.500       N(1)  =     2000
   RHO(2)=  100.500       N(2)  =     4000
 


--------------------------------------------------------------------------------------------------------


 ion  position               nearest neighbor table
   1  0.972  0.000  0.001-  50 1.42   2 1.42  42 1.42
   2  0.039  0.134  0.001-   5 1.42   7 1.42   1 1.42
   3  0.172  0.000  0.001-  42 1.42  44 1.42   4 1.42
   4  0.239  0.134  0.000-   7 1.42   3 1.42  23 1.42
   5  0.972  0.200  0.001-   6 1.42   2 1.42  34 1.42
   6  0.039  0.334  0.001-   5 1.42  21 1.42  11 1.42
   7  0.172  0.200  0.000-   8 1.42   2 1.42   4 1.42
   8  0.239  0.334  0.000-  13 1.42   7 1.42  21 1.42
   9  0.372  0.000  0.001-  10 1.42  44 1.42  46 1.42
  10  0.439  0.134  0.000-  27 1.42   9 1.42  23 1.42
  11  0.972  0.400  0.001-  12 1.42  36 1.42   6 1.42
  12  0.039  0.534  0.001-  25 1.42  11 1.42  17 1.42
  13  0.372  0.400  0.000-   8 1.42  14 1.42  24 1.42
  14  0.439  0.534  0.000-  13 1.42  29 1.42  19 1.42
  15  0.572  0.000  0.001-  46 1.42  16 1.42  48 1.42
  16  0.639  0.134  0.001-  15 1.42  35 1.42  27 1.42
  17  0.972  0.600  0.001-  38 1.42  18 1.42  12 1.42
  18  0.039  0.734  0.001-  43 1.42  41 1.42  17 1.42
  19  0.572  0.600  0.001-  14 1.42  20 1.42  32 1.42
  20  0.639  0.734  0.001-  49 1.42  19 1.42  47 1.42
  21  0.172  0.400  0.000-  22 1.42   8 1.42   6 1.42
  22  0.239  0.534  0.000-  21 1.42  29 1.42  25 1.42
  23  0.372  0.200  0.000-  10 1.42   4 1.42  24 1.42
  24  0.439  0.334  0.000-  13 1.42  31 1.42  23 1.42
  25  0.172  0.600  0.001-  26 1.42  12 1.42  22 1.42
  26  0.239  0.734  0.001-  25 1.42  45 1.42  43 1.42
  27  0.572  0.200  0.001-  10 1.42  28 1.42  16 1.42
  28  0.639  0.334  0.001-  27 1.42  37 1.42  31 1.42
  29  0.372  0.600  0.000-  22 1.42  14 1.42  30 1.42
  30  0.439  0.734  0.001-  47 1.42  29 1.42  45 1.42
  31  0.572  0.400  0.000-  32 1.42  28 1.42  24 1.42
  32  0.639  0.534  0.001-  31 1.42  39 1.42  19 1.42
  33  0.772  0.000  0.001-  34 1.42  48 1.42  50 1.42
  34  0.839  0.134  0.001-  33 1.42   5 1.42  35 1.42
  35  0.772  0.200  0.001-  36 1.42  16 1.42  34 1.42
  36  0.839  0.334  0.001-  35 1.42  11 1.42  37 1.42
  37  0.772  0.400  0.001-  28 1.42  38 1.42  36 1.42
  38  0.839  0.534  0.001-  17 1.42  37 1.42  39 1.42
  39  0.772  0.600  0.001-  40 1.42  38 1.42  32 1.42
  40  0.839  0.734  0.001-  39 1.42  49 1.42  41 1.42
  41  0.972  0.800  0.001-  18 1.42  42 1.42  40 1.42
  42  0.039  0.934  0.001-   3 1.42  41 1.42   1 1.42
  43  0.172  0.800  0.001-  18 1.42  44 1.42  26 1.42
  44  0.239  0.934  0.001-   9 1.42  43 1.42   3 1.42
  45  0.372  0.800  0.001-  26 1.42  46 1.42  30 1.42
  46  0.439  0.934  0.001-  15 1.42  45 1.42   9 1.42
  47  0.572  0.800  0.001-  30 1.42  48 1.42  20 1.42
  48  0.639  0.934  0.001-  47 1.42  33 1.42  15 1.42
  49  0.772  0.800  0.001-  50 1.42  20 1.42  40 1.42
  50  0.839  0.934  0.001-  49 1.42   1 1.42  33 1.42
  51  0.373  0.251  0.397-  52 1.18  53 1.18
  52  0.421  0.189  0.400-  51 1.18
  53  0.325  0.313  0.394-  51 1.18
 
  LATTYP: Found a hexagonal cell.
 ALAT       =    12.3250000000
 C/A-ratio  =     1.6227180527
  
  Lattice vectors:
  
 A1 = (  12.3250000000,   0.0000000000,   0.0000000000)
 A2 = (  -6.1625000000,  10.6737631016,   0.0000000000)
 A3 = (   0.0000000000,   0.0000000000,  20.0000000000)


Analysis of symmetry for initial positions (statically):
=====================================================================
 Subroutine PRICEL returns:
 Original cell was already a primitive cell.
 

 Routine SETGRP: Setting up the symmetry group for a 
 hexagonal supercell.


 Subroutine GETGRP returns: Found  1 space group operations
 (whereof  1 operations were pure point group operations)
 out of a pool of 24 trial point group operations.


The static configuration has the point symmetry C_1 .


Analysis of symmetry for dynamics (positions and initial velocities):
=====================================================================
 Subroutine PRICEL returns:
 Original cell was already a primitive cell.
 

 Routine SETGRP: Setting up the symmetry group for a 
 hexagonal supercell.


 Subroutine GETGRP returns: Found  1 space group operations
 (whereof  1 operations were pure point group operations)
 out of a pool of 24 trial point group operations.


The dynamic configuration has the point symmetry C_1 .


 Subroutine INISYM returns: Found  1 space group operations
 (whereof  1 operations are pure point group operations),
 and found     1 'primitive' translations


----------------------------------------------------------------------------------------

                                     Primitive cell                                     

  volume of cell :    2631.0826

  direct lattice vectors                    reciprocal lattice vectors
    12.325000000  0.000000000  0.000000000     0.081135903  0.046843835  0.000000000
    -6.162500000 10.673763102  0.000000000     0.000000000  0.093687670  0.000000000
     0.000000000  0.000000000 20.000000000     0.000000000  0.000000000  0.050000000

  length of vectors
    12.325000000 12.325000000 20.000000000     0.093687670  0.093687670  0.050000000

  position of ions in fractional coordinates (direct lattice)
     0.972450841  0.000320818  0.000708389
     0.039118382  0.133659505  0.000550216
     0.172443627  0.000295449  0.000624535
     0.239096278  0.133647917  0.000320585
     0.972452058  0.200322012  0.000606523
     0.039128360  0.333643771  0.000555187
     0.172451764  0.200354552  0.000273959
     0.239124359  0.333665720  0.000090325
     0.372465565  0.000324403  0.000567391
     0.439137473  0.133619939  0.000322923
     0.972449824  0.400309362  0.000684513
     0.039124981  0.533636789  0.000716763
     0.372416176  0.400329481  0.000000000
     0.439099602  0.533638981  0.000290518
     0.572443676  0.000312125  0.000699475
     0.639110207  0.133631751  0.000684093
     0.972452703  0.600305653  0.000800361
     0.039124495  0.733640359  0.000818141
     0.572433471  0.600306242  0.000503618
     0.639111888  0.733641879  0.000659881
     0.172454630  0.400318228  0.000361306
     0.239120185  0.533636548  0.000473136
     0.372459750  0.200295993  0.000111246
     0.439107096  0.333673419  0.000069702
     0.172452155  0.600311506  0.000655425
     0.239123371  0.733638574  0.000718912
     0.572431082  0.200289171  0.000516621
     0.639112773  0.333618630  0.000577970
     0.372439808  0.600308022  0.000453556
     0.439116090  0.733637858  0.000617737
     0.572469358  0.400320504  0.000424897
     0.639119408  0.533650873  0.000574513
     0.772445723  0.000315427  0.000745201
     0.839116277  0.133640203  0.000719132
     0.772440513  0.200307432  0.000726291
     0.839120241  0.333635728  0.000731834
     0.772446320  0.400298367  0.000728722
     0.839118980  0.533633964  0.000776376
     0.772456143  0.600308173  0.000744639
     0.839115033  0.733643180  0.000789390
     0.972455313  0.800305582  0.000815291
     0.039114714  0.933643289  0.000747563
     0.172457971  0.800312211  0.000779216
     0.239134551  0.933647193  0.000681063
     0.372451396  0.800316674  0.000689249
     0.439124489  0.933644769  0.000676788
     0.572441101  0.800310054  0.000668168
     0.639115067  0.933638985  0.000734556
     0.772445098  0.800313187  0.000752577
     0.839116614  0.933644338  0.000758538
     0.373021009  0.251226878  0.396850263
     0.420879805  0.189313152  0.400071356
     0.325156981  0.313167186  0.393877520

  ion indices of the primitive-cell ions
   primitive index   ion index
                 1           1
                 2           2
                 3           3
                 4           4
                 5           5
                 6           6
                 7           7
                 8           8
                 9           9
                10          10
                11          11
                12          12
                13          13
                14          14
                15          15
                16          16
                17          17
                18          18
                19          19
                20          20
                21          21
                22          22
                23          23
                24          24
                25          25
                26          26
                27          27
                28          28
                29          29
                30          30
                31          31
                32          32
                33          33
                34          34
                35          35
                36          36
                37          37
                38          38
                39          39
                40          40
                41          41
                42          42
                43          43
                44          44
                45          45
                46          46
                47          47
                48          48
                49          49
                50          50
                51          51
                52          52
                53          53

----------------------------------------------------------------------------------------

 
 
 KPOINTS: auto                                    

Automatic generation of k-mesh.
 Grid dimensions read from file:
 generate k-points for:    1    1    1

 Generating k-lattice:

  Cartesian coordinates                     Fractional coordinates (reciprocal lattice)
     0.081135903  0.046843835  0.000000000     1.000000000 -0.000000000  0.000000000
     0.000000000  0.093687670  0.000000000     0.000000000  1.000000000  0.000000000
     0.000000000  0.000000000  0.050000000     0.000000000  0.000000000  1.000000000

  Length of vectors
     0.093687670  0.093687670  0.050000000

  Shift w.r.t. Gamma in fractional coordinates (k-lattice)
     0.000000000  0.000000000  0.000000000

 
 Subroutine IBZKPT returns following result:
 ===========================================
 
 Found      1 irreducible k-points:
 
 Following reciprocal coordinates:
            Coordinates               Weight
  0.000000  0.000000  0.000000      1.000000
 
 Following cartesian coordinates:
            Coordinates               Weight
  0.000000  0.000000  0.000000      1.000000
 


--------------------------------------------------------------------------------------------------------




 Dimension of arrays:
   k-points           NKPTS =      1   k-points in BZ     NKDIM =      1   number of bands    NBANDS=    168
   number of dos      NEDOS =    301   number of ions     NIONS =     53
   non local maximal  LDIM  =      4   non local SUM 2l+1 LMDIM =      8
   total plane-waves  NPLWV = ******
   max r-space proj   IRMAX =      1   max aug-charges    IRDMAX=   9736
   dimension x,y,z NGX =   128 NGY =  128 NGZ =  210
   dimension x,y,z NGXF=   256 NGYF=  256 NGZF=  420
   support grid    NGXF=   256 NGYF=  256 NGZF=  420
   ions per type =              51   2
   NGX,Y,Z   is equivalent  to a cutoff of  17.27, 17.27, 17.46 a.u.
   NGXF,Y,Z  is equivalent  to a cutoff of  34.53, 34.53, 34.91 a.u.

 SYSTEM =  unknown system                          
 POSCAR =   C  O                                   

 Startparameter for this run:
   NWRITE =      2    write-flag & timer
   PREC   = accura    normal or accurate (medium, high low for compatibility)
   ISTART =      0    job   : 0-new  1-cont  2-samecut
   ICHARG =      2    charge: 1-file 2-atom 10-const
   ISPIN  =      1    spin polarized calculation?
   LNONCOLLINEAR =      F non collinear calculations
   LSORBIT =      F    spin-orbit coupling
   INIWAV =      1    electr: 0-lowe 1-rand  2-diag
   LASPH  =      T    aspherical Exc in radial PAW
 Electronic Relaxation 1
   ENCUT  = 1000.0 eV  73.50 Ry    8.57 a.u.  31.78 31.78 51.57*2*pi/ulx,y,z
   ENINI  = 1000.0     initial cutoff
   ENAUG  =  946.8 eV  augmentation charge cutoff
   NELM   =     60;   NELMIN=  2; NELMDL= -5     # of ELM steps 
   EDIFF  = 0.1E-06   stopping-criterion for ELM
   LREAL  =      F    real-space projection
   NLSPLINE    = F    spline interpolate recip. space projectors
   LCOMPAT=      F    compatible to vasp.4.4
   GGA_COMPAT  = T    GGA compatible to vasp.4.4-vasp.4.6
   LMAXPAW     = -100 max onsite density
   LMAXMIX     =    2 max onsite mixed and CHGCAR
   VOSKOWN=      0    Vosko Wilk Nusair interpolation
   ROPT   =    0.00000   0.00000
 Ionic relaxation
   EDIFFG = 0.1E-05   stopping-criterion for IOM
   NSW    =      0    number of steps for IOM
   NBLOCK =      1;   KBLOCK =      1    inner block; outer block 
   IBRION =     -1    ionic relax: 0-MD 1-quasi-New 2-CG
   NFREE  =      0    steps in history (QN), initial steepest desc. (CG)
   ISIF   =      0    stress and relaxation
   IWAVPR =     10    prediction:  0-non 1-charg 2-wave 3-comb
   ISYM   =      2    0-nonsym 1-usesym 2-fastsym
   LCORR  =      T    Harris-Foulkes like correction to forces

   POTIM  = 0.5000    time-step for ionic-motion
   TEIN   =    0.0    initial temperature
   TEBEG  =    0.0;   TEEND  =   0.0 temperature during run
   SMASS  =  -3.00    Nose mass-parameter (am)
   estimated Nose-frequenzy (Omega)   =  0.10E-29 period in steps = 0.13E+47 mass=  -0.347E-26a.u.
   SCALEE = 1.0000    scale energy and forces
   NPACO  =    256;   APACO  = 16.0  distance and # of slots for P.C.
   PSTRESS=    0.0 pullay stress

  Mass of Ions in am
   POMASS =  12.01 16.00
  Ionic Valenz
   ZVAL   =   4.00  6.00
  Atomic Wigner-Seitz radii
   RWIGS  =  -1.00 -1.00
  virtual crystal weights 
   VCA    =   1.00  1.00
   NELECT =     216.0000    total number of electrons
   NUPDOWN=      -1.0000    fix difference up-down

 DOS related values:
   EMIN   =  10.00;   EMAX   =-10.00  energy-range for DOS
   EFERMI =   0.00
   ISMEAR =     0;   SIGMA  =   0.01  broadening in eV -4-tet -1-fermi 0-gaus

 Electronic relaxation 2 (details)
   IALGO  =     58    algorithm
   LDIAG  =      T    sub-space diagonalisation (order eigenvalues)
   LSUBROT=      F    optimize rotation matrix (better conditioning)
   TURBO    =      0    0=normal 1=particle mesh
   IRESTART =      0    0=no restart 2=restart with 2 vectors
   NREBOOT  =      0    no. of reboots
   NMIN     =      0    reboot dimension
   EREF     =   0.00    reference energy to select bands
   IMIX   =      4    mixing-type and parameters
     AMIX     =   0.40;   BMIX     =  1.00
     AMIX_MAG =   1.60;   BMIX_MAG =  1.00
     AMIN     =   0.10
     WC   =   100.;   INIMIX=   1;  MIXPRE=   1;  MAXMIX= -45

 Intra band minimization:
   WEIMIN = 0.0000     energy-eigenvalue tresh-hold
   EBREAK =  0.15E-09  absolut break condition
   DEPER  =   0.30     relativ break condition  

   TIME   =   0.40     timestep for ELM

  volume/ion in A,a.u.               =      49.64       335.01
  Fermi-wavevector in a.u.,A,eV,Ry     =   0.711510  1.344560  6.887909  0.506247
  Thomas-Fermi vector in A             =   1.798641
 
 Write flags
   LWAVE        =      T    write WAVECAR
   LDOWNSAMPLE  =      F    k-point downsampling of WAVECAR
   LCHARG       =      T    write CHGCAR
   LVTOT        =      F    write LOCPOT, total local potential
   LVHAR        =      F    write LOCPOT, Hartree potential only
   LELF         =      F    write electronic localiz. function (ELF)
   LORBIT       =      0    0 simple, 1 ext, 2 COOP (PROOUT), +10 PAW based schemes


 Dipole corrections
   LMONO  =      F    monopole corrections only (constant potential shift)
   LDIPOL =      F    correct potential (dipole corrections)
   IDIPOL =      0    1-x, 2-y, 3-z, 4-all directions 
   EPSILON=  1.0000000 bulk dielectric constant

 Exchange correlation treatment:
   GGA     =    BO    GGA type
   LEXCH   =    42    internal setting for exchange type
   VOSKOWN=      0    Vosko Wilk Nusair interpolation
   LHFCALC =     F    Hartree Fock is set to
   LHFONE  =     F    Hartree Fock one center treatment
   AEXX    =    0.0000 exact exchange contribution

 vdW DFT:
   LUSE_VDW   =     T    switch on vdW DFT
   Zab_VDW    =-.8491    correlation parameter
   PARAM1     =0.1833
   PARAM2     =0.2200
   PARAM3     =0.0000
   -- rVV10 --
   BPARAM     = 6.3000
   CPARAM     = 0.0093

 Linear response parameters
   LEPSILON=     F    determine dielectric tensor
   LRPA    =     F    only Hartree local field effects (RPA)
   LNABLA  =     F    use nabla operator in PAW spheres
   LVEL    =     F    velocity operator in full k-point grid
   LINTERFAST=   F  fast interpolation
   KINTER  =     0    interpolate to denser k-point grid
   CSHIFT  =0.1000    complex shift for real part using Kramers Kronig
   OMEGAMAX=  -1.0    maximum frequency
   DEG_THRESHOLD= 0.2000000E-02 threshold for treating states as degnerate
   RTIME   =   -0.100 relaxation time in fs
  (WPLASMAI=    0.000 imaginary part of plasma frequency in eV, 0.658/RTIME)
   DFIELD  = 0.0000000 0.0000000 0.0000000 field for delta impulse in time
 
 Orbital magnetization related:
   ORBITALMAG=     F  switch on orbital magnetization
   LCHIMAG   =     F  perturbation theory with respect to B field
   DQ        =  0.001000  dq finite difference perturbation B field
   LLRAUG    =     F  two centre corrections for induced B field



--------------------------------------------------------------------------------------------------------


 Static calculation
 charge density and potential will be updated during run
 non-spin polarized calculation
 Conjugate gradient for all bands (Freysoldt, et al. PRB 79, 241103 (2009))
 preconditioned conjugated gradient                                        
 perform sub-space diagonalisation
    before iterative eigenvector-optimisation
 modified Broyden-mixing scheme, WC =      100.0
 initial mixing is a Kerker type mixing with AMIX =  0.4000 and BMIX =      1.0000
 Hartree-type preconditioning will be used
 using additional bands           60
 reciprocal scheme for non local part
 use partial core corrections
 no Harris-corrections to forces 
 use gradient corrections 
 use of overlap-Matrix (Vanderbilt PP)
 Gauss-broadening in eV      SIGMA  =   0.01


--------------------------------------------------------------------------------------------------------


  energy-cutoff  :     1000.00
  volume of cell :     2631.08
      direct lattice vectors                 reciprocal lattice vectors
    12.325000000  0.000000000  0.000000000     0.081135903  0.046843835  0.000000000
    -6.162500000 10.673763102  0.000000000     0.000000000  0.093687670  0.000000000
     0.000000000  0.000000000 20.000000000     0.000000000  0.000000000  0.050000000

  length of vectors
    12.325000000 12.325000000 20.000000000     0.093687670  0.093687670  0.050000000


 
 k-points in units of 2pi/SCALE and weight: auto                                    
   0.00000000  0.00000000  0.00000000       1.000
 
 k-points in reciprocal lattice and weights: auto                                    
   0.00000000  0.00000000  0.00000000       1.000
 
 position of ions in fractional coordinates (direct lattice) 
   0.97245084  0.00032082  0.00070839
   0.03911838  0.13365950  0.00055022
   0.17244363  0.00029545  0.00062454
   0.23909628  0.13364792  0.00032058
   0.97245206  0.20032201  0.00060652
   0.03912836  0.33364377  0.00055519
   0.17245176  0.20035455  0.00027396
   0.23912436  0.33366572  0.00009033
   0.37246557  0.00032440  0.00056739
   0.43913747  0.13361994  0.00032292
   0.97244982  0.40030936  0.00068451
   0.03912498  0.53363679  0.00071676
   0.37241618  0.40032948  0.00000000
   0.43909960  0.53363898  0.00029052
   0.57244368  0.00031213  0.00069947
   0.63911021  0.13363175  0.00068409
   0.97245270  0.60030565  0.00080036
   0.03912449  0.73364036  0.00081814
   0.57243347  0.60030624  0.00050362
   0.63911189  0.73364188  0.00065988
   0.17245463  0.40031823  0.00036131
   0.23912018  0.53363655  0.00047314
   0.37245975  0.20029599  0.00011125
   0.43910710  0.33367342  0.00006970
   0.17245216  0.60031151  0.00065542
   0.23912337  0.73363857  0.00071891
   0.57243108  0.20028917  0.00051662
   0.63911277  0.33361863  0.00057797
   0.37243981  0.60030802  0.00045356
   0.43911609  0.73363786  0.00061774
   0.57246936  0.40032050  0.00042490
   0.63911941  0.53365087  0.00057451
   0.77244572  0.00031543  0.00074520
   0.83911628  0.13364020  0.00071913
   0.77244051  0.20030743  0.00072629
   0.83912024  0.33363573  0.00073183
   0.77244632  0.40029837  0.00072872
   0.83911898  0.53363396  0.00077638
   0.77245614  0.60030817  0.00074464
   0.83911503  0.73364318  0.00078939
   0.97245531  0.80030558  0.00081529
   0.03911471  0.93364329  0.00074756
   0.17245797  0.80031221  0.00077922
   0.23913455  0.93364719  0.00068106
   0.37245140  0.80031667  0.00068925
   0.43912449  0.93364477  0.00067679
   0.57244110  0.80031005  0.00066817
   0.63911507  0.93363899  0.00073456
   0.77244510  0.80031319  0.00075258
   0.83911661  0.93364434  0.00075854
   0.37302101  0.25122688  0.39685026
   0.42087980  0.18931315  0.40007136
   0.32515698  0.31316719  0.39387752
 
 position of ions in cartesian coordinates  (Angst):
  11.98347958  0.00342433  0.01416777
  -0.34154264  1.42664989  0.01100432
   2.12354700  0.00315355  0.01249070
   2.12325634  1.42652621  0.00641170
  10.75098721  2.13818970  0.01213047
  -1.57382270  3.56123457  0.01110375
   0.89078307  2.13853702  0.00547917
   0.89099273  3.56146885  0.00180651
   4.58863896  0.00346260  0.01134782
   4.58893648  1.42622757  0.00645846
   9.51853763  4.27280730  0.01369027
  -2.80632132  5.69591267  0.01433526
   2.12299894  4.27302204  0.00000000
   2.12335237  5.69593607  0.00581036
   7.05344483  0.00333155  0.01398950
   7.05352764  1.42635365  0.01368187
   8.28609598  6.40752033  0.01600723
  -4.03884931  7.83070339  0.01636283
   3.35585531  6.40752662  0.01007237
   3.35598594  7.83071962  0.01319763
  -0.34145776  4.27290193  0.00722612
  -0.34137895  5.69591010  0.00946273
   3.35624236  2.13791198  0.00222492
   3.35573251  3.56155103  0.00139405
  -1.57394684  6.40758280  0.01310850
  -1.57385216  7.83068434  0.01437823
   5.82093107  2.13783916  0.01033241
   5.82114012  3.56096622  0.01155939
   0.89092245  6.40754561  0.00907111
   0.89106251  7.83067670  0.01235474
   4.58870974  4.27292622  0.00849795
   4.58852320  5.69606300  0.01149026
   9.51844972  0.00336679  0.01490402
   9.51855036  1.42644387  0.01438264
   8.28593477  2.13803408  0.01452582
   8.28612680  3.56114872  0.01463668
   7.05356221  4.27268994  0.01457444
   7.05362213  5.69588251  0.01552751
   5.82112285  6.40754723  0.01489279
   5.82101669  7.83073350  0.01578780
   7.05362858  8.54227219  0.01630582
  -5.27148792  9.96548729  0.01495127
  -2.80637951  8.54234295  0.01558431
  -2.80626749  9.96552896  0.01362126
  -0.34148805  8.54239058  0.01378498
  -0.34137657  9.96550309  0.01353576
   2.12342586  8.54231992  0.01336337
   2.12354296  9.96544135  0.01469111
   4.58845581  8.54235337  0.01505154
   4.58852904  9.96549848  0.01517076
   3.04929830  2.68153618  7.93700526
   4.02070129  2.02068374  8.00142712
   2.07766701  3.34267235  7.87755039
 


--------------------------------------------------------------------------------------------------------


 k-point   1 :   0.0000 0.0000 0.0000  plane waves:  189031

 maximum and minimum number of plane-waves per node :    189031   189031

 maximum number of plane-waves:    189031
 maximum index in each direction: 
   IXMAX=   31   IYMAX=   31   IZMAX=   51
   IXMIN=  -31   IYMIN=  -31   IZMIN=  -51


 serial   3D FFT for wavefunctions
 parallel 3D FFT for charge:
    minimum data exchange during FFTs selected (reduces bandwidth)


 total amount of memory used by VASP MPI-rank0   441788. kBytes
=======================================================================

   base      :      30000. kBytes
   nonl-proj :     184518. kBytes
   fftplans  :      31725. kBytes
   grid      :     168095. kBytes
   one-center:        162. kBytes
   wavefun   :      27288. kBytes
 
     INWAV:  cpu time    0.0000: real time    0.0000
 Broyden mixing: mesh for mixing (old mesh)
   NGX = 63   NGY = 63   NGZ =103
  (NGX  =256   NGY  =256   NGZ  =420)
  gives a total of 408807 points

 initial charge density was supplied:
 charge density of overlapping atoms calculated
 number of electron     216.0000000 magnetization 
 keeping initial charge density in first step


--------------------------------------------------------------------------------------------------------


 Maximum index for augmentation-charges          459 (set IRDMAX)


--------------------------------------------------------------------------------------------------------


 First call to EWALD:  gamma=   0.128
 Maximum number of real-space cells 3x 3x 2
 Maximum number of reciprocal cells 3x 3x 4

    FEWALD:  cpu time    0.0023: real time    0.0023


--------------------------------------- Iteration      1(   1)  ---------------------------------------


vdW kernel read from vdw_kernel.bindat
  0.0000  0.2424  0.5071  0.7962  1.1119  1.4567  1.8333  2.2446  2.6937  3.1842
  3.7199  4.3049  4.9438  5.6415  6.4036  7.2358  8.1446  9.1372 10.2212 11.4050
 12.6979 14.1099 15.6519 17.3360 19.1751 21.1837 23.3773 25.7729 28.3892 31.2465
 34.3669 37.7748 41.4965 45.5611 50.0000
 
    POTLOK:  cpu time    6.3715: real time    6.4340
    SETDIJ:  cpu time    0.0503: real time    0.0507
    TRIAL :  cpu time   11.9635: real time   12.0624
    CORREC:  cpu time    0.0004: real time    0.0005
    --------------------------------------------
      LOOP:  cpu time   18.3978: real time   18.5630

 eigenvalue-minimisations  :   336
 total energy-change (2. order) : 0.2520222E+04  (-0.1170946E+05)
 number of electron     216.0000000 magnetization 
 augmentation part      216.0000000 magnetization 

 Free energy of the ion-electron system (eV)
  ---------------------------------------------------
  alpha Z        PSCENC =        59.93625244
  Ewald energy   TEWEN  =     29682.55906172
  -Hartree energ DENC   =    -35858.01537060
  -exchange      EXHF   =         0.00000000
  -V(xc)+E(xc)   XCENC  =       398.24173233
  PAW double counting   =      6564.79108649    -6260.84737255
  entropy T*S    EENTRO =        -0.00000000
  eigenvalues    EBANDS =      -527.52704764
  atomic energy  EATOM  =      8461.08393172
  ---------------------------------------------------
  free energy    TOTEN  =      2520.22227390 eV

  energy without entropy =     2520.22227390  energy(sigma->0) =     2520.22227390


--------------------------------------------------------------------------------------------------------




--------------------------------------- Iteration      1(   2)  ---------------------------------------


    TRIAL :  cpu time   17.9794: real time   18.1315
    CORREC:  cpu time    0.0001: real time    0.0001
    --------------------------------------------
      LOOP:  cpu time   18.0376: real time   18.1934

 eigenvalue-minimisations  :   560
 total energy-change (2. order) :-0.2357895E+04  (-0.2213779E+04)
 number of electron     216.0000000 magnetization 
 augmentation part      216.0000000 magnetization 

 Free energy of the ion-electron system (eV)
  ---------------------------------------------------
  alpha Z        PSCENC =        59.93625244
  Ewald energy   TEWEN  =     29682.55906172
  -Hartree energ DENC   =    -35858.01537060
  -exchange      EXHF   =         0.00000000
  -V(xc)+E(xc)   XCENC  =       398.24173233
  PAW double counting   =      6564.79108649    -6260.84737255
  entropy T*S    EENTRO =        -0.00000000
  eigenvalues    EBANDS =     -2885.42245865
  atomic energy  EATOM  =      8461.08393172
  ---------------------------------------------------
  free energy    TOTEN  =       162.32686289 eV

  energy without entropy =      162.32686289  energy(sigma->0) =      162.32686289


--------------------------------------------------------------------------------------------------------




--------------------------------------- Iteration      1(   3)  ---------------------------------------


    TRIAL :  cpu time   13.4379: real time   13.5463
    CORREC:  cpu time    0.0001: real time    0.0001
    --------------------------------------------
      LOOP:  cpu time   13.5079: real time   13.6168

 eigenvalue-minimisations  :   392
 total energy-change (2. order) :-0.5783213E+03  (-0.5752861E+03)
 number of electron     216.0000000 magnetization 
 augmentation part      216.0000000 magnetization 

 Free energy of the ion-electron system (eV)
  ---------------------------------------------------
  alpha Z        PSCENC =        59.93625244
  Ewald energy   TEWEN  =     29682.55906172
  -Hartree energ DENC   =    -35858.01537060
  -exchange      EXHF   =         0.00000000
  -V(xc)+E(xc)   XCENC  =       398.24173233
  PAW double counting   =      6564.79108649    -6260.84737255
  entropy T*S    EENTRO =        -0.00000000
  eigenvalues    EBANDS =     -3463.74379072
  atomic energy  EATOM  =      8461.08393172
  ---------------------------------------------------
  free energy    TOTEN  =      -415.99446918 eV

  energy without entropy =     -415.99446918  energy(sigma->0) =     -415.99446918


--------------------------------------------------------------------------------------------------------




--------------------------------------- Iteration      1(   4)  ---------------------------------------


    TRIAL :  cpu time   14.9310: real time   15.0733
    CORREC:  cpu time    0.0001: real time    0.0001
    --------------------------------------------
      LOOP:  cpu time   14.9916: real time   15.1349

 eigenvalue-minimisations  :   448
 total energy-change (2. order) :-0.2909208E+02  (-0.2888806E+02)
 number of electron     216.0000000 magnetization 
 augmentation part      216.0000000 magnetization 

 Free energy of the ion-electron system (eV)
  ---------------------------------------------------
  alpha Z        PSCENC =        59.93625244
  Ewald energy   TEWEN  =     29682.55906172
  -Hartree energ DENC   =    -35858.01537060
  -exchange      EXHF   =         0.00000000
  -V(xc)+E(xc)   XCENC  =       398.24173233
  PAW double counting   =      6564.79108649    -6260.84737255
  entropy T*S    EENTRO =        -0.00000000
  eigenvalues    EBANDS =     -3492.83587007
  atomic energy  EATOM  =      8461.08393172
  ---------------------------------------------------
  free energy    TOTEN  =      -445.08654852 eV

  energy without entropy =     -445.08654852  energy(sigma->0) =     -445.08654852


--------------------------------------------------------------------------------------------------------




--------------------------------------- Iteration      1(   5)  ---------------------------------------


    TRIAL :  cpu time   14.9447: real time   15.0772
    CORREC:  cpu time    0.0001: real time    0.0003
    CHARGE:  cpu time    0.6224: real time    0.6269
    --------------------------------------------
      LOOP:  cpu time   15.6345: real time   15.7737

 eigenvalue-minimisations  :   448
 total energy-change (2. order) :-0.1083656E+01  (-0.1077647E+01)
 number of electron     216.0000000 magnetization 
 augmentation part       -0.2197629 magnetization 

 Free energy of the ion-electron system (eV)
  ---------------------------------------------------
  alpha Z        PSCENC =        59.93625244
  Ewald energy   TEWEN  =     29682.55906172
  -Hartree energ DENC   =    -35858.01537060
  -exchange      EXHF   =         0.00000000
  -V(xc)+E(xc)   XCENC  =       398.24173233
  PAW double counting   =      6564.79108649    -6260.84737255
  entropy T*S    EENTRO =        -0.00000000
  eigenvalues    EBANDS =     -3493.91952623
  atomic energy  EATOM  =      8461.08393172
  ---------------------------------------------------
  free energy    TOTEN  =      -446.17020468 eV

  energy without entropy =     -446.17020468  energy(sigma->0) =     -446.17020468


--------------------------------------------------------------------------------------------------------




--------------------------------------- Iteration      1(   6)  ---------------------------------------


    POTLOK:  cpu time    6.0493: real time    6.0930
    SETDIJ:  cpu time    0.0697: real time    0.0699
    TRIAL :  cpu time    5.3927: real time    5.4345
    CORREC:  cpu time    7.2750: real time    7.3266
    CHARGE:  cpu time    0.6129: real time    0.6168
    --------------------------------------------
      LOOP:  cpu time   19.4587: real time   19.6054

 eigenvalue-minimisations  :     0
 total energy-change (2. order) : 0.5521054E+02  (-0.1767787E+02)
 number of electron     216.0000000 magnetization 
 augmentation part       -0.3314810 magnetization 

 Free energy of the ion-electron system (eV)
  ---------------------------------------------------
  alpha Z        PSCENC =        59.93625244
  Ewald energy   TEWEN  =     29682.55906172
  -Hartree energ DENC   =    -37306.79747177
  -exchange      EXHF   =         0.00000000
  -V(xc)+E(xc)   XCENC  =       448.15859326
  PAW double counting   =     71500.40321466   -71204.62594021
  entropy T*S    EENTRO =        -0.00000000
  eigenvalues    EBANDS =     -2031.67730443
  atomic energy  EATOM  =      8461.08393172
  ---------------------------------------------------
  free energy    TOTEN  =      -390.95966259 eV

  energy without entropy =     -390.95966259  energy(sigma->0) =     -390.95966259


--------------------------------------------------------------------------------------------------------




--------------------------------------- Iteration      1(   7)  ---------------------------------------


    POTLOK:  cpu time    6.0677: real time    6.1116
    SETDIJ:  cpu time    0.0129: real time    0.0130
    TRIAL :  cpu time    5.3860: real time    5.4275
    CORREC:  cpu time    7.3229: real time    7.3762
    CHARGE:  cpu time    0.6118: real time    0.6159
    --------------------------------------------
      LOOP:  cpu time   19.4485: real time   19.6114

 eigenvalue-minimisations  :     0
 total energy-change (2. order) :-0.1772494E+02  (-0.2005962E+01)
 number of electron     216.0000000 magnetization 
 augmentation part       -0.3801677 magnetization 

 Free energy of the ion-electron system (eV)
  ---------------------------------------------------
  alpha Z        PSCENC =        59.93625244
  Ewald energy   TEWEN  =     29682.55906172
  -Hartree energ DENC   =    -36784.09066327
  -exchange      EXHF   =         0.00000000
  -V(xc)+E(xc)   XCENC  =       430.16664271
  PAW double counting   =     86524.52970256   -86225.51027523
  entropy T*S    EENTRO =        -0.00000000
  eigenvalues    EBANDS =     -2557.35925795
  atomic energy  EATOM  =      8461.08393172
  ---------------------------------------------------
  free energy    TOTEN  =      -408.68460529 eV

  energy without entropy =     -408.68460529  energy(sigma->0) =     -408.68460529


--------------------------------------------------------------------------------------------------------




--------------------------------------- Iteration      1(   8)  ---------------------------------------


    POTLOK:  cpu time    6.0696: real time    6.1129
    SETDIJ:  cpu time    0.0301: real time    0.0301
    TRIAL :  cpu time    5.3829: real time    5.4241
    CORREC:  cpu time    7.2588: real time    7.3110
    CHARGE:  cpu time    0.6144: real time    0.6189
    --------------------------------------------
      LOOP:  cpu time   19.4049: real time   19.5489

 eigenvalue-minimisations  :     0
 total energy-change (2. order) :-0.2004916E+01  (-0.5703272E+00)
 number of electron     216.0000000 magnetization 
 augmentation part       -0.3952107 magnetization 

 Free energy of the ion-electron system (eV)
  ---------------------------------------------------
  alpha Z        PSCENC =        59.93625244
  Ewald energy   TEWEN  =     29682.55906172
  -Hartree energ DENC   =    -36754.98208372
  -exchange      EXHF   =         0.00000000
  -V(xc)+E(xc)   XCENC  =       429.54565056
  PAW double counting   =     90855.99451746   -90556.53861329
  entropy T*S    EENTRO =        -0.00000000
  eigenvalues    EBANDS =     -2588.28823833
  atomic energy  EATOM  =      8461.08393172
  ---------------------------------------------------
  free energy    TOTEN  =      -410.68952145 eV

  energy without entropy =     -410.68952145  energy(sigma->0) =     -410.68952145


--------------------------------------------------------------------------------------------------------




--------------------------------------- Iteration      1(   9)  ---------------------------------------


    POTLOK:  cpu time    6.0616: real time    6.1228
    SETDIJ:  cpu time    0.0308: real time    0.0309
    TRIAL :  cpu time    5.3700: real time    5.4216
    CORREC:  cpu time    7.2491: real time    7.3111
    CHARGE:  cpu time    0.6087: real time    0.6141
    --------------------------------------------
      LOOP:  cpu time   19.3610: real time   19.5420

 eigenvalue-minimisations  :     0
 total energy-change (2. order) :-0.5702667E+00  (-0.2150612E+00)
 number of electron     216.0000000 magnetization 
 augmentation part       -0.4001358 magnetization 

 Free energy of the ion-electron system (eV)
  ---------------------------------------------------
  alpha Z        PSCENC =        59.93625244
  Ewald energy   TEWEN  =     29682.55906172
  -Hartree energ DENC   =    -36767.51919979
  -exchange      EXHF   =         0.00000000
  -V(xc)+E(xc)   XCENC  =       429.65205310
  PAW double counting   =     94012.63997385   -93712.99223066
  entropy T*S    EENTRO =        -0.00000000
  eigenvalues    EBANDS =     -2576.61963051
  atomic energy  EATOM  =      8461.08393172
  ---------------------------------------------------
  free energy    TOTEN  =      -411.25978813 eV

  energy without entropy =     -411.25978813  energy(sigma->0) =     -411.25978813


--------------------------------------------------------------------------------------------------------




--------------------------------------- Iteration      1(  10)  ---------------------------------------


    POTLOK:  cpu time    6.0635: real time    6.1080
    SETDIJ:  cpu time    0.0518: real time    0.0520
    TRIAL :  cpu time    5.3766: real time    5.4185
    CORREC:  cpu time    7.2598: real time    7.3135
    CHARGE:  cpu time    0.6121: real time    0.6163
    --------------------------------------------
      LOOP:  cpu time   19.4538: real time   19.6009

 eigenvalue-minimisations  :     0
 total energy-change (2. order) :-0.2144764E+00  (-0.9481156E-01)
 number of electron     216.0000000 magnetization 
 augmentation part       -0.3972389 magnetization 

 Free energy of the ion-electron system (eV)
  ---------------------------------------------------
  alpha Z        PSCENC =        59.93625244
  Ewald energy   TEWEN  =     29682.55906172
  -Hartree energ DENC   =    -36765.04542368
  -exchange      EXHF   =         0.00000000
  -V(xc)+E(xc)   XCENC  =       429.50083703
  PAW double counting   =     94848.18892521   -94548.42580522
  entropy T*S    EENTRO =        -0.00000000
  eigenvalues    EBANDS =     -2579.27204377
  atomic energy  EATOM  =      8461.08393172
  ---------------------------------------------------
  free energy    TOTEN  =      -411.47426455 eV

  energy without entropy =     -411.47426455  energy(sigma->0) =     -411.47426455


--------------------------------------------------------------------------------------------------------




--------------------------------------- Iteration      1(  11)  ---------------------------------------


    POTLOK:  cpu time    6.0904: real time    6.1367
    SETDIJ:  cpu time    0.0197: real time    0.0198
    TRIAL :  cpu time    5.3822: real time    5.4287
    CORREC:  cpu time    7.2645: real time    7.3171
    CHARGE:  cpu time    0.6142: real time    0.6184
    --------------------------------------------
      LOOP:  cpu time   19.4016: real time   19.5607

 eigenvalue-minimisations  :     0
 total energy-change (2. order) :-0.9435804E-01  (-0.3568992E-01)
 number of electron     216.0000000 magnetization 
 augmentation part       -0.3946467 magnetization 

 Free energy of the ion-electron system (eV)
  ---------------------------------------------------
  alpha Z        PSCENC =        59.93625244
  Ewald energy   TEWEN  =     29682.55906172
  -Hartree energ DENC   =    -36757.00203874
  -exchange      EXHF   =         0.00000000
  -V(xc)+E(xc)   XCENC  =       429.37616861
  PAW double counting   =     94455.40987364   -94155.64837613
  entropy T*S    EENTRO =        -0.00000000
  eigenvalues    EBANDS =     -2587.28349584
  atomic energy  EATOM  =      8461.08393172
  ---------------------------------------------------
  free energy    TOTEN  =      -411.56862259 eV

  energy without entropy =     -411.56862259  energy(sigma->0) =     -411.56862259


--------------------------------------------------------------------------------------------------------




--------------------------------------- Iteration      1(  12)  ---------------------------------------


    POTLOK:  cpu time    6.0707: real time    6.1164
    SETDIJ:  cpu time    0.0105: real time    0.0105
    TRIAL :  cpu time    5.3764: real time    5.4320
    CORREC:  cpu time    7.2671: real time    7.3206
    CHARGE:  cpu time    0.6124: real time    0.6166
    --------------------------------------------
      LOOP:  cpu time   19.3618: real time   19.6090

 eigenvalue-minimisations  :     0
 total energy-change (2. order) :-0.3567645E-01  (-0.1064444E-01)
 number of electron     216.0000000 magnetization 
 augmentation part       -0.3942348 magnetization 

 Free energy of the ion-electron system (eV)
  ---------------------------------------------------
  alpha Z        PSCENC =        59.93625244
  Ewald energy   TEWEN  =     29682.55906172
  -Hartree energ DENC   =    -36752.99960148
  -exchange      EXHF   =         0.00000000
  -V(xc)+E(xc)   XCENC  =       429.29859688
  PAW double counting   =     94011.92101202   -93712.18992039
  entropy T*S    EENTRO =        -0.00000000
  eigenvalues    EBANDS =     -2591.21363194
  atomic energy  EATOM  =      8461.08393172
  ---------------------------------------------------
  free energy    TOTEN  =      -411.60429903 eV

  energy without entropy =     -411.60429903  energy(sigma->0) =     -411.60429903


--------------------------------------------------------------------------------------------------------




--------------------------------------- Iteration      1(  13)  ---------------------------------------


    POTLOK:  cpu time    6.0677: real time    6.1118
    SETDIJ:  cpu time    0.0356: real time    0.0357
    TRIAL :  cpu time    5.3856: real time    5.4285
    CORREC:  cpu time    7.2534: real time    7.3069
    CHARGE:  cpu time    0.6097: real time    0.6139
    --------------------------------------------
      LOOP:  cpu time   19.4006: real time   19.5481

 eigenvalue-minimisations  :     0
 total energy-change (2. order) :-0.1066906E-01  (-0.2713991E-02)
 number of electron     216.0000000 magnetization 
 augmentation part       -0.3940086 magnetization 

 Free energy of the ion-electron system (eV)
  ---------------------------------------------------
  alpha Z        PSCENC =        59.93625244
  Ewald energy   TEWEN  =     29682.55906172
  -Hartree energ DENC   =    -36752.20182273
  -exchange      EXHF   =         0.00000000
  -V(xc)+E(xc)   XCENC  =       429.26698913
  PAW double counting   =     93786.44766496   -93486.73132531
  entropy T*S    EENTRO =        -0.00000000
  eigenvalues    EBANDS =     -2591.97572003
  atomic energy  EATOM  =      8461.08393172
  ---------------------------------------------------
  free energy    TOTEN  =      -411.61496809 eV

  energy without entropy =     -411.61496809  energy(sigma->0) =     -411.61496809


--------------------------------------------------------------------------------------------------------




--------------------------------------- Iteration      1(  14)  ---------------------------------------


    POTLOK:  cpu time    6.0589: real time    6.1118
    SETDIJ:  cpu time    0.0533: real time    0.0535
    TRIAL :  cpu time    5.3799: real time    5.4221
    CORREC:  cpu time    7.2888: real time    7.3457
    CHARGE:  cpu time    0.6119: real time    0.6160
    --------------------------------------------
      LOOP:  cpu time   19.4390: real time   19.6250

 eigenvalue-minimisations  :     0
 total energy-change (2. order) :-0.2726369E-02  (-0.6938652E-03)
 number of electron     216.0000000 magnetization 
 augmentation part       -0.3939513 magnetization 

 Free energy of the ion-electron system (eV)
  ---------------------------------------------------
  alpha Z        PSCENC =        59.93625244
  Ewald energy   TEWEN  =     29682.55906172
  -Hartree energ DENC   =    -36752.02969172
  -exchange      EXHF   =         0.00000000
  -V(xc)+E(xc)   XCENC  =       429.25824601
  PAW double counting   =     93743.18856070   -93443.47800345
  entropy T*S    EENTRO =        -0.00000000
  eigenvalues    EBANDS =     -2592.13605188
  atomic energy  EATOM  =      8461.08393172
  ---------------------------------------------------
  free energy    TOTEN  =      -411.61769446 eV

  energy without entropy =     -411.61769446  energy(sigma->0) =     -411.61769446


--------------------------------------------------------------------------------------------------------




--------------------------------------- Iteration      1(  15)  ---------------------------------------


    POTLOK:  cpu time    6.0764: real time    6.1236
    SETDIJ:  cpu time    0.0084: real time    0.0084
    TRIAL :  cpu time    5.3727: real time    5.4188
    CORREC:  cpu time    7.2937: real time    7.3499
    CHARGE:  cpu time    0.6125: real time    0.6165
    --------------------------------------------
      LOOP:  cpu time   19.4213: real time   19.5856

 eigenvalue-minimisations  :     0
 total energy-change (2. order) :-0.6989661E-03  (-0.2072308E-03)
 number of electron     216.0000000 magnetization 
 augmentation part       -0.3938841 magnetization 

 Free energy of the ion-electron system (eV)
  ---------------------------------------------------
  alpha Z        PSCENC =        59.93625244
  Ewald energy   TEWEN  =     29682.55906172
  -Hartree energ DENC   =    -36751.84361347
  -exchange      EXHF   =         0.00000000
  -V(xc)+E(xc)   XCENC  =       429.24889570
  PAW double counting   =     93740.76640210   -93441.05628987
  entropy T*S    EENTRO =        -0.00000000
  eigenvalues    EBANDS =     -2592.31303377
  atomic energy  EATOM  =      8461.08393172
  ---------------------------------------------------
  free energy    TOTEN  =      -411.61839343 eV

  energy without entropy =     -411.61839343  energy(sigma->0) =     -411.61839343


--------------------------------------------------------------------------------------------------------




--------------------------------------- Iteration      1(  16)  ---------------------------------------


    POTLOK:  cpu time    6.0812: real time    6.1250
    SETDIJ:  cpu time    0.0150: real time    0.0150
    TRIAL :  cpu time    5.3757: real time    5.4193
    CORREC:  cpu time    7.2636: real time    7.3192
    CHARGE:  cpu time    0.6164: real time    0.6205
    --------------------------------------------
      LOOP:  cpu time   19.4278: real time   19.5798

 eigenvalue-minimisations  :     0
 total energy-change (2. order) :-0.2106828E-03  (-0.6754576E-04)
 number of electron     216.0000000 magnetization 
 augmentation part       -0.3938085 magnetization 

 Free energy of the ion-electron system (eV)
  ---------------------------------------------------
  alpha Z        PSCENC =        59.93625244
  Ewald energy   TEWEN  =     29682.55906172
  -Hartree energ DENC   =    -36751.93839282
  -exchange      EXHF   =         0.00000000
  -V(xc)+E(xc)   XCENC  =       429.25056949
  PAW double counting   =     93722.38035649   -93422.67065984
  entropy T*S    EENTRO =        -0.00000000
  eigenvalues    EBANDS =     -2592.21972332
  atomic energy  EATOM  =      8461.08393172
  ---------------------------------------------------
  free energy    TOTEN  =      -411.61860411 eV

  energy without entropy =     -411.61860411  energy(sigma->0) =     -411.61860411


--------------------------------------------------------------------------------------------------------




--------------------------------------- Iteration      1(  17)  ---------------------------------------


    POTLOK:  cpu time    6.0668: real time    6.1157
    SETDIJ:  cpu time    0.0703: real time    0.0706
    TRIAL :  cpu time    5.3833: real time    5.4245
    CORREC:  cpu time    7.2515: real time    7.3064
    CHARGE:  cpu time    0.6177: real time    0.6218
    --------------------------------------------
      LOOP:  cpu time   19.3931: real time   19.6116

 eigenvalue-minimisations  :     0
 total energy-change (2. order) :-0.6973142E-04  (-0.2455363E-04)
 number of electron     216.0000000 magnetization 
 augmentation part       -0.3938185 magnetization 

 Free energy of the ion-electron system (eV)
  ---------------------------------------------------
  alpha Z        PSCENC =        59.93625244
  Ewald energy   TEWEN  =     29682.55906172
  -Hartree energ DENC   =    -36752.07806452
  -exchange      EXHF   =         0.00000000
  -V(xc)+E(xc)   XCENC  =       429.25540336
  PAW double counting   =     93705.82751279   -93406.11823103
  entropy T*S    EENTRO =        -0.00000000
  eigenvalues    EBANDS =     -2592.08454034
  atomic energy  EATOM  =      8461.08393172
  ---------------------------------------------------
  free energy    TOTEN  =      -411.61867384 eV

  energy without entropy =     -411.61867384  energy(sigma->0) =     -411.61867384


--------------------------------------------------------------------------------------------------------




--------------------------------------- Iteration      1(  18)  ---------------------------------------


    POTLOK:  cpu time    6.0476: real time    6.0917
    SETDIJ:  cpu time    0.0601: real time    0.0603
    TRIAL :  cpu time    5.3813: real time    5.4241
    CORREC:  cpu time    7.2662: real time    7.3250
    CHARGE:  cpu time    0.6138: real time    0.6185
    --------------------------------------------
      LOOP:  cpu time   19.4186: real time   19.5915

 eigenvalue-minimisations  :     0
 total energy-change (2. order) :-0.2586089E-04  (-0.9113291E-05)
 number of electron     216.0000000 magnetization 
 augmentation part       -0.3938373 magnetization 

 Free energy of the ion-electron system (eV)
  ---------------------------------------------------
  alpha Z        PSCENC =        59.93625244
  Ewald energy   TEWEN  =     29682.55906172
  -Hartree energ DENC   =    -36752.09180355
  -exchange      EXHF   =         0.00000000
  -V(xc)+E(xc)   XCENC  =       429.25533222
  PAW double counting   =     93702.58406961   -93402.87423429
  entropy T*S    EENTRO =        -0.00000000
  eigenvalues    EBANDS =     -2592.07130958
  atomic energy  EATOM  =      8461.08393172
  ---------------------------------------------------
  free energy    TOTEN  =      -411.61869970 eV

  energy without entropy =     -411.61869970  energy(sigma->0) =     -411.61869970


--------------------------------------------------------------------------------------------------------




--------------------------------------- Iteration      1(  19)  ---------------------------------------


    POTLOK:  cpu time    6.1044: real time    6.1503
    SETDIJ:  cpu time    0.0052: real time    0.0052
    TRIAL :  cpu time    5.3740: real time    5.4164
    CORREC:  cpu time    7.2460: real time    7.3042
    CHARGE:  cpu time    0.6110: real time    0.6151
    --------------------------------------------
      LOOP:  cpu time   19.3895: real time   19.5426

 eigenvalue-minimisations  :     0
 total energy-change (2. order) :-0.9678159E-05  (-0.3728391E-05)
 number of electron     216.0000000 magnetization 
 augmentation part       -0.3938592 magnetization 

 Free energy of the ion-electron system (eV)
  ---------------------------------------------------
  alpha Z        PSCENC =        59.93625244
  Ewald energy   TEWEN  =     29682.55906172
  -Hartree energ DENC   =    -36752.12121105
  -exchange      EXHF   =         0.00000000
  -V(xc)+E(xc)   XCENC  =       429.25638928
  PAW double counting   =     93707.02491846   -93407.31485371
  entropy T*S    EENTRO =        -0.00000000
  eigenvalues    EBANDS =     -2592.04319825
  atomic energy  EATOM  =      8461.08393172
  ---------------------------------------------------
  free energy    TOTEN  =      -411.61870938 eV

  energy without entropy =     -411.61870938  energy(sigma->0) =     -411.61870938


--------------------------------------------------------------------------------------------------------




--------------------------------------- Iteration      1(  20)  ---------------------------------------


    POTLOK:  cpu time    6.0768: real time    6.1237
    SETDIJ:  cpu time    0.0316: real time    0.0318
    TRIAL :  cpu time    5.3794: real time    5.4212
    CORREC:  cpu time    7.2540: real time    7.3164
    CHARGE:  cpu time    0.6112: real time    0.6159
    --------------------------------------------
      LOOP:  cpu time   19.4104: real time   19.5707

 eigenvalue-minimisations  :     0
 total energy-change (2. order) :-0.3958732E-05  (-0.1507106E-05)
 number of electron     216.0000000 magnetization 
 augmentation part       -0.3938730 magnetization 

 Free energy of the ion-electron system (eV)
  ---------------------------------------------------
  alpha Z        PSCENC =        59.93625244
  Ewald energy   TEWEN  =     29682.55906172
  -Hartree energ DENC   =    -36752.14373076
  -exchange      EXHF   =         0.00000000
  -V(xc)+E(xc)   XCENC  =       429.25707047
  PAW double counting   =     93712.30678414   -93412.59658258
  entropy T*S    EENTRO =        -0.00000000
  eigenvalues    EBANDS =     -2592.02150050
  atomic energy  EATOM  =      8461.08393172
  ---------------------------------------------------
  free energy    TOTEN  =      -411.61871334 eV

  energy without entropy =     -411.61871334  energy(sigma->0) =     -411.61871334


--------------------------------------------------------------------------------------------------------




--------------------------------------- Iteration      1(  21)  ---------------------------------------


    POTLOK:  cpu time    6.0606: real time    6.1117
    SETDIJ:  cpu time    0.0316: real time    0.0318
    TRIAL :  cpu time    5.3743: real time    5.4228
    CORREC:  cpu time    7.2747: real time    7.3329
    CHARGE:  cpu time    0.6096: real time    0.6136
    --------------------------------------------
      LOOP:  cpu time   19.3911: real time   19.5883

 eigenvalue-minimisations  :     0
 total energy-change (2. order) :-0.1555207E-05  (-0.6044332E-06)
 number of electron     216.0000000 magnetization 
 augmentation part       -0.3938695 magnetization 

 Free energy of the ion-electron system (eV)
  ---------------------------------------------------
  alpha Z        PSCENC =        59.93625244
  Ewald energy   TEWEN  =     29682.55906172
  -Hartree energ DENC   =    -36752.14454083
  -exchange      EXHF   =         0.00000000
  -V(xc)+E(xc)   XCENC  =       429.25689732
  PAW double counting   =     93715.17659383   -93415.46629190
  entropy T*S    EENTRO =        -0.00000000
  eigenvalues    EBANDS =     -2592.02061920
  atomic energy  EATOM  =      8461.08393172
  ---------------------------------------------------
  free energy    TOTEN  =      -411.61871490 eV

  energy without entropy =     -411.61871490  energy(sigma->0) =     -411.61871490


--------------------------------------------------------------------------------------------------------




--------------------------------------- Iteration      1(  22)  ---------------------------------------


    POTLOK:  cpu time    6.0991: real time    6.1416
    SETDIJ:  cpu time    0.0243: real time    0.0244
    TRIAL :  cpu time    5.3820: real time    5.4235
    CORREC:  cpu time    7.2693: real time    7.3277
    CHARGE:  cpu time    0.6121: real time    0.6161
    --------------------------------------------
      LOOP:  cpu time   19.4230: real time   19.6054

 eigenvalue-minimisations  :     0
 total energy-change (2. order) :-0.6079499E-06  (-0.5635614E-06)
 number of electron     216.0000000 magnetization 
 augmentation part       -0.3938644 magnetization 

 Free energy of the ion-electron system (eV)
  ---------------------------------------------------
  alpha Z        PSCENC =        59.93625244
  Ewald energy   TEWEN  =     29682.55906172
  -Hartree energ DENC   =    -36752.14762113
  -exchange      EXHF   =         0.00000000
  -V(xc)+E(xc)   XCENC  =       429.25698256
  PAW double counting   =     93715.58400078   -93415.87375521
  entropy T*S    EENTRO =        -0.00000000
  eigenvalues    EBANDS =     -2592.01756838
  atomic energy  EATOM  =      8461.08393172
  ---------------------------------------------------
  free energy    TOTEN  =      -411.61871550 eV

  energy without entropy =     -411.61871550  energy(sigma->0) =     -411.61871550


--------------------------------------------------------------------------------------------------------




--------------------------------------- Iteration      1(  23)  ---------------------------------------


    POTLOK:  cpu time    6.0795: real time    6.1254
    SETDIJ:  cpu time    0.0761: real time    0.0764
    TRIAL :  cpu time    5.3815: real time    5.4255
    CORREC:  cpu time    7.2694: real time    7.3244
    CHARGE:  cpu time    0.6134: real time    0.6176
    --------------------------------------------
      LOOP:  cpu time   19.4756: real time   19.6277

 eigenvalue-minimisations  :     0
 total energy-change (2. order) :-0.1807930E-06  (-0.2582036E-06)
 number of electron     216.0000000 magnetization 
 augmentation part       -0.3938663 magnetization 

 Free energy of the ion-electron system (eV)
  ---------------------------------------------------
  alpha Z        PSCENC =        59.93625244
  Ewald energy   TEWEN  =     29682.55906172
  -Hartree energ DENC   =    -36752.14401203
  -exchange      EXHF   =         0.00000000
  -V(xc)+E(xc)   XCENC  =       429.25674433
  PAW double counting   =     93714.20805524   -93414.49786771
  entropy T*S    EENTRO =        -0.00000000
  eigenvalues    EBANDS =     -2592.02088140
  atomic energy  EATOM  =      8461.08393172
  ---------------------------------------------------
  free energy    TOTEN  =      -411.61871569 eV

  energy without entropy =     -411.61871569  energy(sigma->0) =     -411.61871569


--------------------------------------------------------------------------------------------------------




--------------------------------------- Iteration      1(  24)  ---------------------------------------


    POTLOK:  cpu time    6.0956: real time    6.1423
    SETDIJ:  cpu time    0.0052: real time    0.0053
    TRIAL :  cpu time    5.3720: real time    5.4166
    CORREC:  cpu time    7.2930: real time    7.3553
    CHARGE:  cpu time    0.6072: real time    0.6163
    --------------------------------------------
      LOOP:  cpu time   19.4550: real time   19.6225

 eigenvalue-minimisations  :     0
 total energy-change (2. order) :-0.2508605E-06  (-0.7891807E-07)
 number of electron     216.0000000 magnetization 
 augmentation part       -0.3938701 magnetization 

 Free energy of the ion-electron system (eV)
  ---------------------------------------------------
  alpha Z        PSCENC =        59.93625244
  Ewald energy   TEWEN  =     29682.55906172
  -Hartree energ DENC   =    -36752.14318685
  -exchange      EXHF   =         0.00000000
  -V(xc)+E(xc)   XCENC  =       429.25681553
  PAW double counting   =     93714.29008398   -93414.57989605
  entropy T*S    EENTRO =        -0.00000000
  eigenvalues    EBANDS =     -2592.02177843
  atomic energy  EATOM  =      8461.08393172
  ---------------------------------------------------
  free energy    TOTEN  =      -411.61871594 eV

  energy without entropy =     -411.61871594  energy(sigma->0) =     -411.61871594


--------------------------------------------------------------------------------------------------------




--------------------------------------- Iteration      1(  25)  ---------------------------------------


    POTLOK:  cpu time    6.1078: real time    6.1523
    SETDIJ:  cpu time    0.0055: real time    0.0055
    TRIAL :  cpu time    5.3711: real time    5.4182
    CORREC:  cpu time    7.1713: real time    7.2229
    EDDIAG:  cpu time    0.8509: real time    0.8577
    CHARGE:  cpu time    0.6189: real time    0.6232
    --------------------------------------------
      LOOP:  cpu time   20.1509: real time   20.3255

 eigenvalue-minimisations  :     0
 total energy-change (2. order) :-0.5870243E-07  ( 0.2479251E-07)
 number of electron     216.0000000 magnetization 
 augmentation part       -0.3938715 magnetization 

 Free energy of the ion-electron system (eV)
  ---------------------------------------------------
  alpha Z        PSCENC =        59.93625244
  Ewald energy   TEWEN  =     29682.55906172
  -Hartree energ DENC   =    -36752.14139804
  -exchange      EXHF   =         0.00000000
  -V(xc)+E(xc)   XCENC  =       429.25677007
  PAW double counting   =     93714.25255766   -93414.54234024
  entropy T*S    EENTRO =        -0.00000000
  eigenvalues    EBANDS =     -2592.02355133
  atomic energy  EATOM  =      8461.08393172
  ---------------------------------------------------
  free energy    TOTEN  =      -411.61871600 eV

  energy without entropy =     -411.61871600  energy(sigma->0) =     -411.61871600


--------------------------------------------------------------------------------------------------------


  average scaling for gradient   0.8880


 average (electrostatic) potential at core
  the test charge radii are     0.5770  0.5955
  (the norm of the test charge is              1.0000)
       1 -85.9888       2 -85.9883       3 -85.9888       4 -85.9894       5 -85.9876
       6 -85.9876       7 -85.9887       8 -85.9876       9 -85.9880      10 -85.9882
      11 -85.9876      12 -85.9876      13 -85.9882      14 -85.9879      15 -85.9875
      16 -85.9877      17 -85.9881      18 -85.9884      19 -85.9887      20 -85.9881
      21 -85.9874      22 -85.9873      23 -85.9897      24 -85.9897      25 -85.9874
      26 -85.9876      27 -85.9880      28 -85.9889      29 -85.9874      30 -85.9874
      31 -85.9891      32 -85.9885      33 -85.9877      34 -85.9876      35 -85.9877
      36 -85.9878      37 -85.9883      38 -85.9885      39 -85.9884      40 -85.9884
      41 -85.9884      42 -85.9885      43 -85.9881      44 -85.9887      45 -85.9875
      46 -85.9876      47 -85.9875      48 -85.9875      49 -85.9885      50 -85.9882
      51 -89.9635      52-120.2714      53-120.2707
 
 
 
 E-fermi :  -4.0927     XC(G=0):  -3.1723     alpha+bet : -2.1113

 Fermi energy:        -4.0927457680

 k-point     1 :       0.0000    0.0000    0.0000
  band No.  band energies     occupation 
      1     -27.4134      2.00000
      2     -26.4322      2.00000
      3     -22.1245      2.00000
      4     -21.1911      2.00000
      5     -21.1897      2.00000
      6     -21.1895      2.00000
      7     -21.1893      2.00000
      8     -21.1892      2.00000
      9     -21.1887      2.00000
     10     -19.3588      2.00000
     11     -19.3587      2.00000
     12     -19.3584      2.00000
     13     -19.3578      2.00000
     14     -19.3573      2.00000
     15     -19.3571      2.00000
     16     -18.4679      2.00000
     17     -18.4678      2.00000
     18     -18.4673      2.00000
     19     -18.4671      2.00000
     20     -18.4664      2.00000
     21     -18.4661      2.00000
     22     -16.3250      2.00000
     23     -16.3246      2.00000
     24     -16.3239      2.00000
     25     -16.3237      2.00000
     26     -16.3232      2.00000
     27     -16.3231      2.00000
     28     -15.3314      2.00000
     29     -15.3314      2.00000
     30     -15.3303      2.00000
     31     -15.3302      2.00000
     32     -15.3298      2.00000
     33     -15.3297      2.00000
     34     -13.9930      2.00000
     35     -13.9929      2.00000
     36     -13.9922      2.00000
     37     -13.9921      2.00000
     38     -13.9920      2.00000
     39     -13.9918      2.00000
     40     -12.2668      2.00000
     41     -11.6399      2.00000
     42     -11.6396      2.00000
     43     -11.6392      2.00000
     44     -11.6391      2.00000
     45     -11.6380      2.00000
     46     -11.6377      2.00000
     47     -11.5287      2.00000
     48     -11.5286      2.00000
     49     -11.5279      2.00000
     50     -11.5279      2.00000
     51     -11.5278      2.00000
     52     -11.5276      2.00000
     53     -11.1245      2.00000
     54     -11.0316      2.00000
     55     -11.0315      2.00000
     56     -10.2872      2.00000
     57     -10.1649      2.00000
     58     -10.1647      2.00000
     59     -10.1632      2.00000
     60     -10.1628      2.00000
     61     -10.1626      2.00000
     62     -10.1625      2.00000
     63      -9.1728      2.00000
     64      -9.1718      2.00000
     65      -9.1716      2.00000
     66      -9.1712      2.00000
     67      -9.1710      2.00000
     68      -9.1710      2.00000
     69      -8.9244      2.00000
     70      -8.9234      2.00000
     71      -8.9230      2.00000
     72      -8.9229      2.00000
     73      -8.9226      2.00000
     74      -8.9223      2.00000
     75      -8.8649      2.00000
     76      -8.8646      2.00000
     77      -8.8639      2.00000
     78      -8.8638      2.00000
     79      -8.8636      2.00000
     80      -8.8628      2.00000
     81      -7.5076      2.00000
     82      -7.5075      2.00000
     83      -7.2879      2.00000
     84      -7.2862      2.00000
     85      -7.2860      2.00000
     86      -7.2857      2.00000
     87      -7.2847      2.00000
     88      -7.2847      2.00000
     89      -7.0464      2.00000
     90      -7.0461      2.00000
     91      -7.0459      2.00000
     92      -7.0455      2.00000
     93      -7.0452      2.00000
     94      -7.0449      2.00000
     95      -6.1517      2.00000
     96      -6.1516      2.00000
     97      -6.1513      2.00000
     98      -6.1511      2.00000
     99      -6.1505      2.00000
    100      -6.1503      2.00000
    101      -5.8259      2.00000
    102      -5.8237      2.00000
    103      -4.1737      2.00000
    104      -4.1733      2.00000
    105      -4.1729      2.00000
    106      -4.1728      2.00000
    107      -4.1722      2.00000
    108      -4.1721      2.00000
    109      -1.3779      0.00000
    110      -1.3776      0.00000
    111      -1.3774      0.00000
    112      -1.3772      0.00000
    113      -1.3765      0.00000
    114      -1.3762      0.00000
    115      -0.2640      0.00000
    116       0.3328      0.00000
    117       0.4795      0.00000
    118       0.4798      0.00000
    119       0.4802      0.00000
    120       0.4802      0.00000
    121       0.4805      0.00000
    122       0.4818      0.00000
    123       0.4926      0.00000
    124       0.7720      0.00000
    125       0.9110      0.00000
    126       0.9400      0.00000
    127       0.9413      0.00000
    128       1.0650      0.00000
    129       1.2144      0.00000
    130       1.3484      0.00000
    131       1.4385      0.00000
    132       1.5296      0.00000
    133       1.6182      0.00000
    134       1.6323      0.00000
    135       1.6568      0.00000
    136       1.6858      0.00000
    137       1.7564      0.00000
    138       1.8207      0.00000
    139       1.9362      0.00000
    140       2.1933      0.00000
    141       2.2074      0.00000
    142       2.2101      0.00000
    143       2.2102      0.00000
    144       2.2106      0.00000
    145       2.2109      0.00000
    146       2.2111      0.00000
    147       2.2115      0.00000
    148       2.2279      0.00000
    149       2.2528      0.00000
    150       2.2811      0.00000
    151       2.3094      0.00000
    152       2.8801      0.00000
    153       2.9451      0.00000
    154       3.2558      0.00000
    155       3.4558      0.00000
    156       3.5891      0.00000
    157       3.8417      0.00000
    158       3.9796      0.00000
    159       4.1263      0.00000
    160       4.2307      0.00000
    161       4.3661      0.00000
    162       4.7502      0.00000
    163       4.8892      0.00000
    164       4.9018      0.00000
    165       4.9056      0.00000
    166       4.9072      0.00000
    167       4.9103      0.00000
    168       4.9112      0.00000


--------------------------------------------------------------------------------------------------------


 soft charge-density along one line, spin component           1
         0         1         2         3         4         5         6         7         8         9
 total charge-density along one line
 
 pseudopotential strength for first ion, spin component:           1
 12.674  21.329   0.000   0.000   0.000   0.000   0.000   0.000
 21.329  35.891   0.000   0.000   0.000   0.000   0.000   0.000
  0.000   0.000  -3.238  -0.000   0.000  -5.804  -0.000   0.000
  0.000   0.000  -0.000  -3.246  -0.000  -0.000  -5.818  -0.000
  0.000   0.000   0.000  -0.000  -3.238   0.000  -0.000  -5.804
  0.000   0.000  -5.804  -0.000   0.000 -10.380  -0.000   0.000
  0.000   0.000  -0.000  -5.818  -0.000  -0.000 -10.405  -0.000
  0.000   0.000   0.000  -0.000  -5.804   0.000  -0.000 -10.380
 total augmentation occupancy for first ion, spin component:           1
  6.917  -2.317  -0.000  -0.002  -0.000   0.000   0.001   0.000
 -2.317   0.818   0.000   0.001   0.000  -0.000  -0.000  -0.000
 -0.000   0.000   6.628  -0.007   0.000  -2.167   0.003  -0.000
 -0.002   0.001  -0.007   2.819  -0.000   0.003  -0.689   0.000
 -0.000   0.000   0.000  -0.000   6.627  -0.000   0.000  -2.167
  0.000  -0.000  -2.167   0.003  -0.000   0.725  -0.001   0.000
  0.001  -0.000   0.003  -0.689   0.000  -0.001   0.176  -0.000
  0.000  -0.000  -0.000   0.000  -2.167   0.000  -0.000   0.724


------------------------ aborting loop because EDIFF is reached ----------------------------------------


    FORLOC:  cpu time    0.1047: real time    0.1055
    FORNL :  cpu time    2.9203: real time    2.9452
    FORCOR:  cpu time    6.0529: real time    6.1135
    OFIELD:  cpu time    0.0022: real time    0.0022

 VOLUME and BASIS-vectors are now :
 -----------------------------------------------------------------------------
  energy-cutoff  :     1000.00
  volume of cell :     2631.08
      direct lattice vectors                 reciprocal lattice vectors
    12.325000000  0.000000000  0.000000000     0.081135903  0.046843835  0.000000000
    -6.162500000 10.673763102  0.000000000     0.000000000  0.093687670  0.000000000
     0.000000000  0.000000000 20.000000000     0.000000000  0.000000000  0.050000000

  length of vectors
    12.325000000 12.325000000 20.000000000     0.093687670  0.093687670  0.050000000


 FORCES acting on ions:
    Electron-Ion                     Ewald-Force                    Non-Local-Force
 -----------------------------------------------------------------------------------------------
   0.905E+00 0.795E+00 0.828E+01   -.906E+00 -.796E+00 -.829E+01   0.460E-02 -.672E-03 0.608E-02
   0.124E+01 0.661E+00 0.935E+01   -.125E+01 -.658E+00 -.935E+01   0.313E-02 -.303E-02 -.572E-02
   0.499E+00 0.136E+01 0.942E+01   -.501E+00 -.136E+01 -.942E+01   -.247E-03 0.116E-01 -.132E-02
   0.625E+00 0.906E+00 0.117E+02   -.623E+00 -.905E+00 -.117E+02   0.117E-01 0.763E-03 -.157E-01
   0.994E+00 0.255E+00 0.871E+01   -.993E+00 -.256E+00 -.871E+01   -.441E-03 -.530E-02 0.384E-02
   0.101E+01 -.226E+00 0.888E+01   -.102E+01 0.228E+00 -.887E+01   -.624E-02 0.334E-02 -.225E-02
   0.120E+01 0.500E+00 0.117E+02   -.120E+01 -.500E+00 -.117E+02   0.119E-01 -.190E-01 -.670E-02
   0.121E+01 -.397E+00 0.129E+02   -.122E+01 0.400E+00 -.129E+02   -.684E-02 -.535E-02 -.585E-02
   -.598E+00 0.131E+01 0.983E+01   0.602E+00 -.131E+01 -.983E+01   -.104E-03 -.127E-01 -.490E-02
   -.784E+00 0.680E+00 0.120E+02   0.785E+00 -.681E+00 -.120E+02   -.256E-01 0.147E-01 0.201E-02
   0.262E+00 -.276E+00 0.797E+01   -.259E+00 0.275E+00 -.797E+01   0.374E-02 -.272E-02 0.624E-03
   0.255E+00 -.213E+00 0.776E+01   -.255E+00 0.214E+00 -.776E+01   -.663E-02 0.330E-02 0.659E-02
   0.377E+00 -.959E+00 0.137E+02   -.378E+00 0.961E+00 -.137E+02   0.264E-01 -.760E-02 -.273E-02
   0.239E+00 -.144E+01 0.110E+02   -.243E+00 0.144E+01 -.109E+02   0.368E-02 0.657E-02 -.161E-01
   -.933E+00 0.560E+00 0.831E+01   0.935E+00 -.562E+00 -.832E+01   0.727E-02 -.386E-02 0.810E-02
   -.119E+01 0.333E+00 0.854E+01   0.119E+01 -.333E+00 -.854E+01   -.165E-02 0.513E-02 -.440E-02
   -.170E+00 -.691E-01 0.734E+01   0.174E+00 0.673E-01 -.735E+01   -.189E-03 0.339E-03 0.219E-02
   0.771E-01 0.584E+00 0.745E+01   -.765E-01 -.584E+00 -.746E+01   -.288E-02 0.157E-02 0.937E-02
   -.241E+00 -.138E+01 0.951E+01   0.241E+00 0.138E+01 -.951E+01   0.594E-02 -.167E-02 0.288E-03
   -.144E+00 -.853E+00 0.815E+01   0.141E+00 0.854E+00 -.815E+01   -.534E-04 -.989E-03 -.579E-03
   0.129E+01 -.553E+00 0.103E+02   -.129E+01 0.553E+00 -.102E+02   -.167E-02 -.219E-02 -.162E-01
   0.924E+00 -.739E+00 0.934E+01   -.927E+00 0.741E+00 -.934E+01   -.668E-02 0.523E-02 -.139E-02
   -.215E+00 0.380E+00 0.136E+02   0.212E+00 -.378E+00 -.136E+02   -.103E-01 0.104E-01 -.756E-04
   -.309E+00 -.605E+00 0.136E+02   0.311E+00 0.603E+00 -.136E+02   0.120E-01 -.147E-01 -.117E-01
   0.504E+00 -.182E+00 0.805E+01   -.502E+00 0.180E+00 -.805E+01   0.363E-02 -.264E-02 -.258E-02
   0.146E+00 0.433E+00 0.790E+01   -.146E+00 -.432E+00 -.791E+01   -.500E-02 0.333E-02 0.624E-02
   -.141E+01 0.146E+00 0.103E+02   0.142E+01 -.148E+00 -.103E+02   0.117E-01 0.773E-02 -.232E-02
   -.132E+01 -.543E+00 0.967E+01   0.132E+01 0.543E+00 -.968E+01   -.856E-02 0.900E-02 0.564E-03
   0.507E+00 -.105E+01 0.949E+01   -.506E+00 0.105E+01 -.948E+01   0.429E-02 0.217E-02 -.618E-02
   0.456E-01 -.463E+00 0.833E+01   -.478E-01 0.465E+00 -.833E+01   -.472E-02 0.231E-02 -.158E-02
   -.936E+00 -.942E+00 0.107E+02   0.935E+00 0.943E+00 -.107E+02   -.118E-01 -.784E-02 -.136E-01
   -.691E+00 -.131E+01 0.931E+01   0.693E+00 0.131E+01 -.931E+01   0.641E-03 -.110E-02 0.170E-02
   0.544E-01 0.290E+00 0.764E+01   -.544E-01 -.290E+00 -.765E+01   0.492E-02 -.455E-02 0.762E-02
   0.165E+00 0.257E+00 0.783E+01   -.168E+00 -.257E+00 -.783E+01   -.228E-02 0.457E-02 -.573E-03
   -.629E+00 0.118E+00 0.802E+01   0.632E+00 -.119E+00 -.802E+01   0.405E-02 -.240E-02 0.666E-02
   -.556E+00 -.259E+00 0.794E+01   0.556E+00 0.259E+00 -.794E+01   -.384E-02 0.226E-02 0.431E-02
   -.104E+01 -.569E+00 0.821E+01   0.105E+01 0.567E+00 -.822E+01   -.851E-03 0.922E-03 0.349E-02
   -.698E+00 -.561E+00 0.776E+01   0.700E+00 0.562E+00 -.777E+01   -.381E-02 0.125E-02 0.905E-02
   -.636E+00 -.803E+00 0.797E+01   0.636E+00 0.805E+00 -.798E+01   -.291E-02 0.275E-03 0.454E-02
   -.935E-01 -.226E+00 0.757E+01   0.945E-01 0.226E+00 -.758E+01   0.185E-02 0.611E-03 0.723E-02
   0.243E+00 0.604E+00 0.754E+01   -.244E+00 -.605E+00 -.755E+01   -.393E-02 0.165E-02 0.676E-02
   0.727E+00 0.110E+01 0.825E+01   -.726E+00 -.110E+01 -.826E+01   -.638E-03 -.894E-03 0.737E-02
   0.842E-01 0.993E+00 0.778E+01   -.809E-01 -.995E+00 -.778E+01   -.124E-03 0.670E-03 0.246E-02
   -.560E-03 0.143E+01 0.896E+01   0.145E-02 -.143E+01 -.897E+01   -.793E-02 0.173E-02 0.519E-02
   -.193E+00 0.356E+00 0.808E+01   0.195E+00 -.359E+00 -.809E+01   0.405E-02 -.298E-02 0.219E-02
   -.686E+00 0.868E+00 0.854E+01   0.686E+00 -.869E+00 -.854E+01   -.592E-02 0.188E-03 -.752E-03
   -.203E+00 -.441E+00 0.805E+01   0.203E+00 0.441E+00 -.806E+01   0.603E-02 -.129E-02 0.651E-02
   -.401E+00 0.140E+00 0.764E+01   0.399E+00 -.139E+00 -.764E+01   -.361E-02 0.321E-02 -.245E-02
   0.380E-01 -.269E+00 0.764E+01   -.384E-01 0.269E+00 -.764E+01   0.414E-02 -.308E-02 0.578E-02
   0.431E+00 0.308E+00 0.761E+01   -.433E+00 -.306E+00 -.761E+01   -.297E-03 0.167E-02 0.338E-02
   -.180E-02 0.267E-01 -.113E+03   -.232E-02 -.231E-01 0.113E+03   -.286E-02 0.194E-02 -.337E-03
   -.229E+03 0.156E+03 -.181E+03   0.279E+03 -.190E+03 0.185E+03   -.513E+02 0.349E+02 -.345E+01
   0.229E+03 -.156E+03 -.161E+03   -.279E+03 0.190E+03 0.158E+03   0.513E+02 -.349E+02 0.310E+01
 -----------------------------------------------------------------------------------------------
   -.740E-02 0.138E-01 0.344E+00   0.000E+00 0.284E-13 0.284E-13   0.724E-02 -.139E-01 -.343E+00
 
 
 POSITION                                       TOTAL-FORCE (eV/Angst)
 -----------------------------------------------------------------------------------
     11.98348      0.00342      0.01417         0.003184     -0.001708     -0.000984
     -0.34154      1.42665      0.01100        -0.000759      0.000053     -0.003346
      2.12355      0.00315      0.01249        -0.001869      0.010809     -0.006374
      2.12326      1.42653      0.00641         0.013598      0.001261     -0.008372
     10.75099      2.13819      0.01213         0.000450     -0.005673      0.000051
     -1.57382      3.56123      0.01110        -0.008987      0.004677     -0.001317
      0.89078      2.13854      0.00548         0.009650     -0.019126      0.002287
      0.89099      3.56147      0.00181        -0.011762     -0.002418      0.011795
      4.58864      0.00346      0.01135         0.003656     -0.015698     -0.003639
      4.58894      1.42623      0.00646        -0.023510      0.013293      0.013594
      9.51854      4.27281      0.01369         0.006549     -0.003048      0.000091
     -2.80632      5.69591      0.01434        -0.006523      0.003357      0.000690
      2.12300      4.27302      0.00000         0.025087     -0.005032      0.020390
      2.12335      5.69594      0.00581        -0.000631      0.009067     -0.002723
      7.05344      0.00333      0.01399         0.009303     -0.005255     -0.000344
      7.05353      1.42635      0.01368        -0.001648      0.004898     -0.003617
      8.28610      6.40752      0.01601         0.002919     -0.001486     -0.000695
     -4.03885      7.83070      0.01636        -0.002213      0.000870      0.000013
      3.35586      6.40753      0.01007         0.005569      0.000559     -0.001143
      3.35599      7.83072      0.01320        -0.003189      0.000035     -0.000733
     -0.34146      4.27290      0.00723        -0.001841     -0.001410     -0.004552
     -0.34138      5.69591      0.00946        -0.009099      0.006524     -0.000933
      3.35624      2.13791      0.00222        -0.013803      0.012035      0.015839
      3.35573      3.56155      0.00139         0.013762     -0.016036      0.008447
     -1.57395      6.40758      0.01311         0.005346     -0.003951     -0.000644
     -1.57385      7.83068      0.01438        -0.004785      0.003759     -0.000031
      5.82093      2.13784      0.01033         0.015965      0.005113     -0.003093
      5.82114      3.56097      0.01156        -0.006358      0.008640     -0.003779
      0.89092      6.40755      0.00907         0.004563      0.002260     -0.002173
      0.89106      7.83068      0.01235        -0.006780      0.003918      0.000354
      4.58871      4.27293      0.00850        -0.013075     -0.006359     -0.010927
      4.58852      5.69606      0.01149         0.002046     -0.001321     -0.003785
      9.51845      0.00337      0.01490         0.004736     -0.004625      0.000207
      9.51855      1.42644      0.01438        -0.005168      0.005390     -0.000375
      8.28593      2.13803      0.01453         0.006733     -0.003332      0.000540
      8.28613      3.56115      0.01464        -0.004362      0.002198     -0.000059
      7.05356      4.27269      0.01457         0.002676     -0.001150     -0.000522
      7.05362      5.69588      0.01553        -0.002478      0.001556     -0.000035
      5.82112      6.40755      0.01489        -0.003022      0.001591     -0.000065
      5.82102      7.83073      0.01579         0.002754      0.000208     -0.000170
      7.05363      8.54227      0.01631        -0.004674      0.001298      0.001145
     -5.27149      9.96549      0.01495         0.000268     -0.002022     -0.002041
     -2.80638      8.54234      0.01558         0.003189     -0.001401     -0.001124
     -2.80627      9.96553      0.01362        -0.006850     -0.000100     -0.003755
     -0.34149      8.54239      0.01378         0.005753     -0.004943      0.000121
     -0.34138      9.96550      0.01354        -0.005808     -0.000075     -0.001116
      2.12343      8.54232      0.01336         0.005851     -0.001541      0.000699
      2.12354      9.96544      0.01469        -0.005129      0.003800     -0.001857
      4.58846      8.54235      0.01505         0.003678     -0.002787      0.001067
      4.58853      9.96550      0.01517        -0.002767      0.003328      0.000202
      3.04930      2.68154      7.93701        -0.006944      0.005577      0.032845
      4.02070      2.02068      8.00143        -0.661030      0.449350     -0.060247
      2.07767      3.34267      7.87755         0.667782     -0.454925      0.024197
 -----------------------------------------------------------------------------------
    total drift:                               -0.000161     -0.000065      0.000652


--------------------------------------------------------------------------------------------------------



  FREE ENERGIE OF THE ION-ELECTRON SYSTEM (eV)
  ---------------------------------------------------
  free  energy   TOTEN  =      -411.61871600 eV

  energy  without entropy=     -411.61871600  energy(sigma->0) =     -411.61871600
 


--------------------------------------------------------------------------------------------------------


    POTLOK:  cpu time    6.1442: real time    6.1889


--------------------------------------------------------------------------------------------------------


 writing wavefunctions
     LOOP+:  cpu time  508.4456: real time  513.3138
    4ORBIT:  cpu time    0.0000: real time    0.0000

 total amount of memory used by VASP MPI-rank0   441788. kBytes
=======================================================================

   base      :      30000. kBytes
   nonl-proj :     184518. kBytes
   fftplans  :      31725. kBytes
   grid      :     168095. kBytes
   one-center:        162. kBytes
   wavefun   :      27288. kBytes
 
  
  
 General timing and accounting informations for this job:
 ========================================================
  
                  Total CPU time used (sec):      544.287
                            User time (sec):      515.854
                          System time (sec):       28.432
                         Elapsed time (sec):      550.837
  
                   Maximum memory used (kb):     1107912.
                   Average memory used (kb):          N/A
  
                          Minor page faults:       352064
                          Major page faults:           87
                 Voluntary context switches:         3576
