 vasp.6.2.1 16May21 (build Nov 06 2021 14:46:37) complex                        
  
 executed on             LinuxIFC date 2025.04.16  18:41:24
 running on  112 total cores
 distrk:  each k-point on   56 cores,    2 groups
 distr:  one band on NCORE=   1 cores,   56 groups


--------------------------------------------------------------------------------------------------------


 INCAR:
   ALGO = Conjugate
   KPAR = 2
   NCORE = 32
   ISMEAR = 0
   SIGMA = 0.01
   PREC = Accurate
   EDIFF = 1E-7
   ENCUT = 1000
   ISIF = 0
   GGA = BO
   PARAM1 = 0.1833333333
   PARAM2 = 0.2200000000
   LUSE_VDW = .TRUE.
   AGGAC = 0.0000
   LASPH = .TRUE.
   SYMPREC = 1E-7

 POTCAR:    PAW_PBE C_h 06Feb2004                 
 POTCAR:    PAW_PBE O_h 06Feb2004                 
 -----------------------------------------------------------------------------
|                                                                             |
|           W    W    AA    RRRRR   N    N  II  N    N   GGGG   !!!           |
|           W    W   A  A   R    R  NN   N  II  NN   N  G    G  !!!           |
|           W    W  A    A  R    R  N N  N  II  N N  N  G       !!!           |
|           W WW W  AAAAAA  RRRRR   N  N N  II  N  N N  G  GGG   !            |
|           WW  WW  A    A  R   R   N   NN  II  N   NN  G    G                |
|           W    W  A    A  R    R  N    N  II  N    N   GGGG   !!!           |
|                                                                             |
|     The value NCORE = 32 specified in the INCAR file was overwritten,       |
|     because it was not compatible with the 56 processes available:          |
|     NCORE = 1                                                               |
|     was used instead, please check that this makes sense for your           |
|     machine.                                                                |
|                                                                             |
 -----------------------------------------------------------------------------

 -----------------------------------------------------------------------------
|                                                                             |
|           W    W    AA    RRRRR   N    N  II  N    N   GGGG   !!!           |
|           W    W   A  A   R    R  NN   N  II  NN   N  G    G  !!!           |
|           W    W  A    A  R    R  N N  N  II  N N  N  G       !!!           |
|           W WW W  AAAAAA  RRRRR   N  N N  II  N  N N  G  GGG   !            |
|           WW  WW  A    A  R   R   N   NN  II  N   NN  G    G                |
|           W    W  A    A  R    R  N    N  II  N    N   GGGG   !!!           |
|                                                                             |
|     For optimal performance we recommend to set                             |
|       NCORE = 2 up to number-of-cores-per-socket                            |
|     NCORE specifies how many cores store one orbital (NPAR=cpu/NCORE).      |
|     This setting can greatly improve the performance of VASP for DFT.       |
|     The default, NCORE=1 might be grossly inefficient on modern             |
|     multi-core architectures or massively parallel machines. Do your        |
|     own testing! More info at https://www.vasp.at/wiki/index.php/NCORE      |
|     Unfortunately you need to use the default for GW and RPA                |
|     calculations (for HF NCORE is supported but not extensively tested      |
|     yet).                                                                   |
|                                                                             |
 -----------------------------------------------------------------------------

 -----------------------------------------------------------------------------
|                                                                             |
|               ----> ADVICE to this user running VASP <----                  |
|                                                                             |
|     You have switched on vdW-DFT.                                           |
|     This routine was written and supplied by Jiri Klimes. We recommend      |
|     that you carefully read and cite the following publications:            |
|       J. Klimes, D.R. Bowler, A. Michelides                                 |
|          J. Phys.: Cond Matt. 22 022201 (2010)                              |
|       J. Klimes, D.R. Bowler, A. Michelides                                 |
|          Phys. Rev. B. 83, 195131 (2011)                                    |
|     and references therein.                                                 |
|                                                                             |
 -----------------------------------------------------------------------------

 POTCAR:    PAW_PBE C_h 06Feb2004                 
   VRHFIN =C: s2p2                                                                                  
   LEXCH  = PE                                                                                      
   EATOM  =   147.1560 eV,   10.8157 Ry                                                             
                                                                                                    
   TITEL  = PAW_PBE C_h 06Feb2004                                                                   
   LULTRA =        F    use ultrasoft PP ?                                                          
   IUNSCR =        1    unscreen: 0-lin 1-nonlin 2-no                                               
   RPACOR =    0.800    partial core radius                                                         
   POMASS =   12.011; ZVAL   =    4.000    mass and valenz                                          
   RCORE  =    1.100    outmost cutoff radius                                                       
   RWIGS  =    1.630; RWIGS  =    0.863    wigner-seitz radius (au A)                               
   ENMAX  =  700.000; ENMIN  =  500.000 eV                                                          
   ICORE  =        2    local potential                                                             
   LCOR   =        T    correct aug charges                                                         
   LPAW   =        T    paw PP                                                                      
   EAUG   =  946.768                                                                                
   DEXC   =    0.000                                                                                
   RMAX   =    1.128    core radius for proj-oper                                                   
   RAUG   =    1.300    factor for augmentation sphere                                              
   RDEP   =    1.162    radius for radial grids                                                     
   RDEPT  =    1.088    core radius for aug-charge                                                  
                                                                                                    
   Atomic configuration                                                                             
    4 entries                                                                                       
     n  l   j            E        occ.                                                              
     1  0  0.50      -273.3789   2.0000                                                             
     2  0  0.50       -13.7508   2.0000                                                             
     2  1  0.50        -5.2854   2.0000                                                             
     3  2  1.50        -5.4423   0.0000                                                             
   Description                                                                                      
     l       E           TYP  RCUT    TYP  RCUT                                                     
     0    -13.7508458     23  1.100                                                                 
     0     -8.2022199     23  1.100                                                                 
     1     -5.2854383     23  1.100                                                                 
     1      1.1560700     23  1.100                                                                 
     2     -5.4423304      7  1.100                                                                 
  local pseudopotential read in
  partial core-charges read in
  partial kinetic energy density read in
  atomic valenz-charges read in
  non local Contribution for L=           0  read in
    real space projection operators read in
  non local Contribution for L=           0  read in
    real space projection operators read in
  non local Contribution for L=           1  read in
    real space projection operators read in
  non local Contribution for L=           1  read in
    real space projection operators read in
    PAW grid and wavefunctions read in
 
   number of l-projection  operators is LMAX  =           4
   number of lm-projection operators is LMMAX =           8
 
 POTCAR:    PAW_PBE O_h 06Feb2004                 
   VRHFIN =O: s2p4                                                                                  
   LEXCH  = PE                                                                                      
   EATOM  =   432.3788 eV,   31.7789 Ry                                                             
                                                                                                    
   TITEL  = PAW_PBE O_h 06Feb2004                                                                   
   LULTRA =        F    use ultrasoft PP ?                                                          
   IUNSCR =        1    unscreen: 0-lin 1-nonlin 2-no                                               
   RPACOR =    0.800    partial core radius                                                         
   POMASS =   16.000; ZVAL   =    6.000    mass and valenz                                          
   RCORE  =    1.100    outmost cutoff radius                                                       
   RWIGS  =    1.400; RWIGS  =    0.741    wigner-seitz radius (au A)                               
   ENMAX  =  700.000; ENMIN  =  500.000 eV                                                          
   ICORE  =        2    local potential                                                             
   LCOR   =        T    correct aug charges                                                         
   LPAW   =        T    paw PP                                                                      
   EAUG   =  888.804                                                                                
   DEXC   =    0.000                                                                                
   RMAX   =    1.128    core radius for proj-oper                                                   
   RAUG   =    1.300    factor for augmentation sphere                                              
   RDEP   =    1.125    radius for radial grids                                                     
   RDEPT  =    1.088    core radius for aug-charge                                                  
                                                                                                    
   Atomic configuration                                                                             
    4 entries                                                                                       
     n  l   j            E        occ.                                                              
     1  0  0.50      -514.6923   2.0000                                                             
     2  0  0.50       -23.9615   2.0000                                                             
     2  1  0.50        -9.0305   4.0000                                                             
     3  2  1.50        -9.5241   0.0000                                                             
   Description                                                                                      
     l       E           TYP  RCUT    TYP  RCUT                                                     
     0    -23.9615319     23  1.100                                                                 
     0    -25.3221145     23  1.100                                                                 
     1     -9.0304911     23  1.100                                                                 
     1     -5.4802209     23  1.100                                                                 
     2     -9.5240782      7  1.100                                                                 
  local pseudopotential read in
  partial core-charges read in
  partial kinetic energy density read in
  atomic valenz-charges read in
  non local Contribution for L=           0  read in
    real space projection operators read in
  non local Contribution for L=           0  read in
    real space projection operators read in
  non local Contribution for L=           1  read in
    real space projection operators read in
  non local Contribution for L=           1  read in
    real space projection operators read in
    PAW grid and wavefunctions read in
 
   number of l-projection  operators is LMAX  =           4
   number of lm-projection operators is LMMAX =           8
 
 -----------------------------------------------------------------------------
|                                                                             |
|               ----> ADVICE to this user running VASP <----                  |
|                                                                             |
|     You have a (more or less) 'large supercell' and for larger cells it     |
|     might be more efficient to use real-space projection operators.         |
|     Therefore, try LREAL= Auto in the INCAR file.                           |
|     Mind: For very accurate calculation, you might also keep the            |
|     reciprocal projection scheme (i.e. LREAL=.FALSE.).                      |
|                                                                             |
 -----------------------------------------------------------------------------

 -----------------------------------------------------------------------------
|                                                                             |
|               ----> ADVICE to this user running VASP <----                  |
|                                                                             |
|     You enforced a specific xc type in the INCAR file but a different       |
|     type was found in the POTCAR file.                                      |
|     I HOPE YOU KNOW WHAT YOU ARE DOING!                                     |
|                                                                             |
 -----------------------------------------------------------------------------

  PAW_PBE C_h 06Feb2004                 :
 energy of atom  1       EATOM= -147.1560
 kinetic energy error for atom=    0.0031 (will be added to EATOM!!)
  PAW_PBE O_h 06Feb2004                 :
 energy of atom  2       EATOM= -432.3788
 kinetic energy error for atom=    0.0171 (will be added to EATOM!!)
 
 
 POSCAR:  C  O
  positions in cartesian coordinates
  No initial velocities read in
 exchange correlation table for  LEXCH =       42
   RHO(1)=    0.500       N(1)  =     2000
   RHO(2)=  100.500       N(2)  =     4000
 


--------------------------------------------------------------------------------------------------------


 ion  position               nearest neighbor table
   1  0.972  0.000  0.001-  50 1.42   2 1.42  42 1.42
   2  0.039  0.134  0.000-   5 1.42   7 1.42   1 1.42
   3  0.172  0.000  0.000-  42 1.42  44 1.42   4 1.42
   4  0.239  0.134  0.000-   7 1.42   3 1.42  23 1.42
   5  0.972  0.200  0.000-   6 1.42   2 1.42  34 1.42
   6  0.039  0.334  0.000-   5 1.42  21 1.42  11 1.42
   7  0.172  0.200  0.000-   8 1.42   2 1.42   4 1.42
   8  0.239  0.334  0.000-  13 1.42   7 1.42  21 1.42
   9  0.372  0.000  0.000-  10 1.42  44 1.42  46 1.42
  10  0.439  0.134  0.000-  27 1.42   9 1.42  23 1.42
  11  0.972  0.400  0.001-  12 1.42  36 1.42   6 1.42
  12  0.039  0.534  0.001-  25 1.42  11 1.42  17 1.42
  13  0.372  0.400  0.000-   8 1.42  14 1.42  24 1.42
  14  0.439  0.534  0.000-  13 1.42  29 1.42  19 1.42
  15  0.572  0.000  0.001-  46 1.42  16 1.42  48 1.42
  16  0.639  0.134  0.001-  15 1.42  35 1.42  27 1.42
  17  0.972  0.600  0.001-  38 1.42  18 1.42  12 1.42
  18  0.039  0.734  0.001-  43 1.42  41 1.42  17 1.42
  19  0.572  0.600  0.000-  14 1.42  20 1.42  32 1.42
  20  0.639  0.734  0.001-  49 1.42  19 1.42  47 1.42
  21  0.172  0.400  0.000-  22 1.42   8 1.42   6 1.42
  22  0.239  0.534  0.000-  21 1.42  29 1.42  25 1.42
  23  0.372  0.200  0.000-  10 1.42   4 1.42  24 1.42
  24  0.439  0.334  0.000-  13 1.42  31 1.42  23 1.42
  25  0.172  0.600  0.001-  26 1.42  12 1.42  22 1.42
  26  0.239  0.734  0.001-  25 1.42  45 1.42  43 1.42
  27  0.572  0.200  0.000-  10 1.42  28 1.42  16 1.42
  28  0.639  0.334  0.000-  27 1.42  37 1.42  31 1.42
  29  0.372  0.600  0.000-  22 1.42  14 1.42  30 1.42
  30  0.439  0.734  0.000-  47 1.42  29 1.42  45 1.42
  31  0.572  0.400  0.000-  32 1.42  28 1.42  24 1.42
  32  0.639  0.534  0.000-  31 1.42  39 1.42  19 1.42
  33  0.772  0.000  0.001-  34 1.42  48 1.42  50 1.42
  34  0.839  0.134  0.001-  33 1.42   5 1.42  35 1.42
  35  0.772  0.200  0.001-  36 1.42  16 1.42  34 1.42
  36  0.839  0.334  0.001-  35 1.42  11 1.42  37 1.42
  37  0.772  0.400  0.001-  28 1.42  38 1.42  36 1.42
  38  0.839  0.534  0.001-  17 1.42  37 1.42  39 1.42
  39  0.772  0.600  0.001-  40 1.42  38 1.42  32 1.42
  40  0.839  0.734  0.001-  39 1.42  49 1.42  41 1.42
  41  0.972  0.800  0.001-  18 1.42  42 1.42  40 1.42
  42  0.039  0.934  0.001-   3 1.42  41 1.42   1 1.42
  43  0.172  0.800  0.001-  18 1.42  44 1.42  26 1.42
  44  0.239  0.934  0.001-   9 1.42  43 1.42   3 1.42
  45  0.372  0.800  0.001-  26 1.42  46 1.42  30 1.42
  46  0.439  0.934  0.001-  15 1.42  45 1.42   9 1.42
  47  0.572  0.800  0.001-  30 1.42  48 1.42  20 1.42
  48  0.639  0.934  0.001-  47 1.42  33 1.42  15 1.42
  49  0.772  0.800  0.001-  50 1.42  20 1.42  40 1.42
  50  0.839  0.934  0.001-  49 1.42   1 1.42  33 1.42
  51  0.373  0.251  0.168-  52 1.18  53 1.18
  52  0.421  0.189  0.171-  51 1.18
  53  0.325  0.313  0.166-  51 1.18
 
  LATTYP: Found a hexagonal cell.
 ALAT       =    12.3250000000
 C/A-ratio  =     2.0283975659
  
  Lattice vectors:
  
 A1 = (  12.3250000000,   0.0000000000,   0.0000000000)
 A2 = (  -6.1625000000,  10.6737631016,   0.0000000000)
 A3 = (   0.0000000000,   0.0000000000,  25.0000000000)


Analysis of symmetry for initial positions (statically):
=====================================================================
 Subroutine PRICEL returns:
 Original cell was already a primitive cell.
 

 Routine SETGRP: Setting up the symmetry group for a 
 hexagonal supercell.


 Subroutine GETGRP returns: Found  1 space group operations
 (whereof  1 operations were pure point group operations)
 out of a pool of 24 trial point group operations.


The static configuration has the point symmetry C_1 .


Analysis of symmetry for dynamics (positions and initial velocities):
=====================================================================
 Subroutine PRICEL returns:
 Original cell was already a primitive cell.
 

 Routine SETGRP: Setting up the symmetry group for a 
 hexagonal supercell.


 Subroutine GETGRP returns: Found  1 space group operations
 (whereof  1 operations were pure point group operations)
 out of a pool of 24 trial point group operations.


The dynamic configuration has the point symmetry C_1 .


 Subroutine INISYM returns: Found  1 space group operations
 (whereof  1 operations are pure point group operations),
 and found     1 'primitive' translations


----------------------------------------------------------------------------------------

                                     Primitive cell                                     

  volume of cell :    3288.8533

  direct lattice vectors                    reciprocal lattice vectors
    12.325000000  0.000000000  0.000000000     0.081135903  0.046843835  0.000000000
    -6.162500000 10.673763102  0.000000000     0.000000000  0.093687670  0.000000000
     0.000000000  0.000000000 25.000000000     0.000000000  0.000000000  0.040000000

  length of vectors
    12.325000000 12.325000000 25.000000000     0.093687670  0.093687670  0.040000000

  position of ions in fractional coordinates (direct lattice)
     0.972450841  0.000320818  0.000566711
     0.039118382  0.133659505  0.000440173
     0.172443627  0.000295449  0.000499628
     0.239096278  0.133647917  0.000256468
     0.972452058  0.200322012  0.000485219
     0.039128360  0.333643771  0.000444150
     0.172451764  0.200354552  0.000219167
     0.239124359  0.333665720  0.000072260
     0.372465565  0.000324403  0.000453913
     0.439137473  0.133619939  0.000258338
     0.972449824  0.400309362  0.000547611
     0.039124981  0.533636789  0.000573410
     0.372416176  0.400329481  0.000000000
     0.439099602  0.533638981  0.000232414
     0.572443676  0.000312125  0.000559580
     0.639110207  0.133631751  0.000547275
     0.972452703  0.600305653  0.000640289
     0.039124495  0.733640359  0.000654513
     0.572433471  0.600306242  0.000402895
     0.639111888  0.733641879  0.000527905
     0.172454630  0.400318228  0.000289045
     0.239120185  0.533636548  0.000378509
     0.372459750  0.200295993  0.000088997
     0.439107096  0.333673419  0.000055762
     0.172452155  0.600311506  0.000524340
     0.239123371  0.733638574  0.000575129
     0.572431082  0.200289171  0.000413296
     0.639112773  0.333618630  0.000462376
     0.372439808  0.600308022  0.000362844
     0.439116090  0.733637858  0.000494190
     0.572469358  0.400320504  0.000339918
     0.639119408  0.533650873  0.000459610
     0.772445723  0.000315427  0.000596161
     0.839116277  0.133640203  0.000575306
     0.772440513  0.200307432  0.000581033
     0.839120241  0.333635728  0.000585467
     0.772446320  0.400298367  0.000582978
     0.839118980  0.533633964  0.000621100
     0.772456143  0.600308173  0.000595712
     0.839115033  0.733643180  0.000631512
     0.972455313  0.800305582  0.000652233
     0.039114714  0.933643289  0.000598051
     0.172457971  0.800312211  0.000623372
     0.239134551  0.933647193  0.000544850
     0.372451396  0.800316674  0.000551399
     0.439124489  0.933644769  0.000541430
     0.572441101  0.800310054  0.000534535
     0.639115067  0.933638985  0.000587644
     0.772445098  0.800313187  0.000602062
     0.839116614  0.933644338  0.000606830
     0.373021009  0.251226878  0.168179283
     0.420879805  0.189313152  0.170756158
     0.325156981  0.313167186  0.165801088

  ion indices of the primitive-cell ions
   primitive index   ion index
                 1           1
                 2           2
                 3           3
                 4           4
                 5           5
                 6           6
                 7           7
                 8           8
                 9           9
                10          10
                11          11
                12          12
                13          13
                14          14
                15          15
                16          16
                17          17
                18          18
                19          19
                20          20
                21          21
                22          22
                23          23
                24          24
                25          25
                26          26
                27          27
                28          28
                29          29
                30          30
                31          31
                32          32
                33          33
                34          34
                35          35
                36          36
                37          37
                38          38
                39          39
                40          40
                41          41
                42          42
                43          43
                44          44
                45          45
                46          46
                47          47
                48          48
                49          49
                50          50
                51          51
                52          52
                53          53

----------------------------------------------------------------------------------------

 
 
 KPOINTS: auto                                    

Automatic generation of k-mesh.
 Grid dimensions read from file:
 generate k-points for:    1    1    1

 Generating k-lattice:

  Cartesian coordinates                     Fractional coordinates (reciprocal lattice)
     0.081135903  0.046843835  0.000000000     1.000000000 -0.000000000  0.000000000
     0.000000000  0.093687670  0.000000000     0.000000000  1.000000000  0.000000000
     0.000000000  0.000000000  0.040000000     0.000000000  0.000000000  1.000000000

  Length of vectors
     0.093687670  0.093687670  0.040000000

  Shift w.r.t. Gamma in fractional coordinates (k-lattice)
     0.000000000  0.000000000  0.000000000

 
 Subroutine IBZKPT returns following result:
 ===========================================
 
 Found      1 irreducible k-points:
 
 Following reciprocal coordinates:
            Coordinates               Weight
  0.000000  0.000000  0.000000      1.000000
 
 Following cartesian coordinates:
            Coordinates               Weight
  0.000000  0.000000  0.000000      1.000000
 


--------------------------------------------------------------------------------------------------------




 Dimension of arrays:
   k-points           NKPTS =      1   k-points in BZ     NKDIM =      1   number of bands    NBANDS=    168
   number of dos      NEDOS =    301   number of ions     NIONS =     53
   non local maximal  LDIM  =      4   non local SUM 2l+1 LMDIM =      8
   total plane-waves  NPLWV = ******
   max r-space proj   IRMAX =      1   max aug-charges    IRDMAX=  10008
   dimension x,y,z NGX =   128 NGY =  128 NGZ =  270
   dimension x,y,z NGXF=   256 NGYF=  256 NGZF=  540
   support grid    NGXF=   256 NGYF=  256 NGZF=  540
   ions per type =              51   2
   NGX,Y,Z   is equivalent  to a cutoff of  17.27, 17.27, 17.95 a.u.
   NGXF,Y,Z  is equivalent  to a cutoff of  34.53, 34.53, 35.91 a.u.

 SYSTEM =  unknown system                          
 POSCAR =   C  O                                   

 Startparameter for this run:
   NWRITE =      2    write-flag & timer
   PREC   = accura    normal or accurate (medium, high low for compatibility)
   ISTART =      0    job   : 0-new  1-cont  2-samecut
   ICHARG =      2    charge: 1-file 2-atom 10-const
   ISPIN  =      1    spin polarized calculation?
   LNONCOLLINEAR =      F non collinear calculations
   LSORBIT =      F    spin-orbit coupling
   INIWAV =      1    electr: 0-lowe 1-rand  2-diag
   LASPH  =      T    aspherical Exc in radial PAW
 Electronic Relaxation 1
   ENCUT  = 1000.0 eV  73.50 Ry    8.57 a.u.  31.78 31.78 64.46*2*pi/ulx,y,z
   ENINI  = 1000.0     initial cutoff
   ENAUG  =  946.8 eV  augmentation charge cutoff
   NELM   =     60;   NELMIN=  2; NELMDL= -5     # of ELM steps 
   EDIFF  = 0.1E-06   stopping-criterion for ELM
   LREAL  =      F    real-space projection
   NLSPLINE    = F    spline interpolate recip. space projectors
   LCOMPAT=      F    compatible to vasp.4.4
   GGA_COMPAT  = T    GGA compatible to vasp.4.4-vasp.4.6
   LMAXPAW     = -100 max onsite density
   LMAXMIX     =    2 max onsite mixed and CHGCAR
   VOSKOWN=      0    Vosko Wilk Nusair interpolation
   ROPT   =    0.00000   0.00000
 Ionic relaxation
   EDIFFG = 0.1E-05   stopping-criterion for IOM
   NSW    =      0    number of steps for IOM
   NBLOCK =      1;   KBLOCK =      1    inner block; outer block 
   IBRION =     -1    ionic relax: 0-MD 1-quasi-New 2-CG
   NFREE  =      0    steps in history (QN), initial steepest desc. (CG)
   ISIF   =      0    stress and relaxation
   IWAVPR =     10    prediction:  0-non 1-charg 2-wave 3-comb
   ISYM   =      2    0-nonsym 1-usesym 2-fastsym
   LCORR  =      T    Harris-Foulkes like correction to forces

   POTIM  = 0.5000    time-step for ionic-motion
   TEIN   =    0.0    initial temperature
   TEBEG  =    0.0;   TEEND  =   0.0 temperature during run
   SMASS  =  -3.00    Nose mass-parameter (am)
   estimated Nose-frequenzy (Omega)   =  0.10E-29 period in steps = 0.13E+47 mass=  -0.347E-26a.u.
   SCALEE = 1.0000    scale energy and forces
   NPACO  =    256;   APACO  = 16.0  distance and # of slots for P.C.
   PSTRESS=    0.0 pullay stress

  Mass of Ions in am
   POMASS =  12.01 16.00
  Ionic Valenz
   ZVAL   =   4.00  6.00
  Atomic Wigner-Seitz radii
   RWIGS  =  -1.00 -1.00
  virtual crystal weights 
   VCA    =   1.00  1.00
   NELECT =     216.0000    total number of electrons
   NUPDOWN=      -1.0000    fix difference up-down

 DOS related values:
   EMIN   =  10.00;   EMAX   =-10.00  energy-range for DOS
   EFERMI =   0.00
   ISMEAR =     0;   SIGMA  =   0.01  broadening in eV -4-tet -1-fermi 0-gaus

 Electronic relaxation 2 (details)
   IALGO  =     58    algorithm
   LDIAG  =      T    sub-space diagonalisation (order eigenvalues)
   LSUBROT=      F    optimize rotation matrix (better conditioning)
   TURBO    =      0    0=normal 1=particle mesh
   IRESTART =      0    0=no restart 2=restart with 2 vectors
   NREBOOT  =      0    no. of reboots
   NMIN     =      0    reboot dimension
   EREF     =   0.00    reference energy to select bands
   IMIX   =      4    mixing-type and parameters
     AMIX     =   0.40;   BMIX     =  1.00
     AMIX_MAG =   1.60;   BMIX_MAG =  1.00
     AMIN     =   0.10
     WC   =   100.;   INIMIX=   1;  MIXPRE=   1;  MAXMIX= -45

 Intra band minimization:
   WEIMIN = 0.0000     energy-eigenvalue tresh-hold
   EBREAK =  0.15E-09  absolut break condition
   DEPER  =   0.30     relativ break condition  

   TIME   =   0.40     timestep for ELM

  volume/ion in A,a.u.               =      62.05       418.76
  Fermi-wavevector in a.u.,A,eV,Ry     =   0.660508  1.248179  5.935820  0.436270
  Thomas-Fermi vector in A             =   1.732977
 
 Write flags
   LWAVE        =      T    write WAVECAR
   LDOWNSAMPLE  =      F    k-point downsampling of WAVECAR
   LCHARG       =      T    write CHGCAR
   LVTOT        =      F    write LOCPOT, total local potential
   LVHAR        =      F    write LOCPOT, Hartree potential only
   LELF         =      F    write electronic localiz. function (ELF)
   LORBIT       =      0    0 simple, 1 ext, 2 COOP (PROOUT), +10 PAW based schemes


 Dipole corrections
   LMONO  =      F    monopole corrections only (constant potential shift)
   LDIPOL =      F    correct potential (dipole corrections)
   IDIPOL =      0    1-x, 2-y, 3-z, 4-all directions 
   EPSILON=  1.0000000 bulk dielectric constant

 Exchange correlation treatment:
   GGA     =    BO    GGA type
   LEXCH   =    42    internal setting for exchange type
   VOSKOWN=      0    Vosko Wilk Nusair interpolation
   LHFCALC =     F    Hartree Fock is set to
   LHFONE  =     F    Hartree Fock one center treatment
   AEXX    =    0.0000 exact exchange contribution

 vdW DFT:
   LUSE_VDW   =     T    switch on vdW DFT
   Zab_VDW    =-.8491    correlation parameter
   PARAM1     =0.1833
   PARAM2     =0.2200
   PARAM3     =0.0000
   -- rVV10 --
   BPARAM     = 6.3000
   CPARAM     = 0.0093

 Linear response parameters
   LEPSILON=     F    determine dielectric tensor
   LRPA    =     F    only Hartree local field effects (RPA)
   LNABLA  =     F    use nabla operator in PAW spheres
   LVEL    =     F    velocity operator in full k-point grid
   LINTERFAST=   F  fast interpolation
   KINTER  =     0    interpolate to denser k-point grid
   CSHIFT  =0.1000    complex shift for real part using Kramers Kronig
   OMEGAMAX=  -1.0    maximum frequency
   DEG_THRESHOLD= 0.2000000E-02 threshold for treating states as degnerate
   RTIME   =   -0.100 relaxation time in fs
  (WPLASMAI=    0.000 imaginary part of plasma frequency in eV, 0.658/RTIME)
   DFIELD  = 0.0000000 0.0000000 0.0000000 field for delta impulse in time
 
 Orbital magnetization related:
   ORBITALMAG=     F  switch on orbital magnetization
   LCHIMAG   =     F  perturbation theory with respect to B field
   DQ        =  0.001000  dq finite difference perturbation B field
   LLRAUG    =     F  two centre corrections for induced B field



--------------------------------------------------------------------------------------------------------


 Static calculation
 charge density and potential will be updated during run
 non-spin polarized calculation
 Conjugate gradient for all bands (Freysoldt, et al. PRB 79, 241103 (2009))
 preconditioned conjugated gradient                                        
 perform sub-space diagonalisation
    before iterative eigenvector-optimisation
 modified Broyden-mixing scheme, WC =      100.0
 initial mixing is a Kerker type mixing with AMIX =  0.4000 and BMIX =      1.0000
 Hartree-type preconditioning will be used
 using additional bands           60
 reciprocal scheme for non local part
 use partial core corrections
 no Harris-corrections to forces 
 use gradient corrections 
 use of overlap-Matrix (Vanderbilt PP)
 Gauss-broadening in eV      SIGMA  =   0.01


--------------------------------------------------------------------------------------------------------


  energy-cutoff  :     1000.00
  volume of cell :     3288.85
      direct lattice vectors                 reciprocal lattice vectors
    12.325000000  0.000000000  0.000000000     0.081135903  0.046843835  0.000000000
    -6.162500000 10.673763102  0.000000000     0.000000000  0.093687670  0.000000000
     0.000000000  0.000000000 25.000000000     0.000000000  0.000000000  0.040000000

  length of vectors
    12.325000000 12.325000000 25.000000000     0.093687670  0.093687670  0.040000000


 
 k-points in units of 2pi/SCALE and weight: auto                                    
   0.00000000  0.00000000  0.00000000       1.000
 
 k-points in reciprocal lattice and weights: auto                                    
   0.00000000  0.00000000  0.00000000       1.000
 
 position of ions in fractional coordinates (direct lattice) 
   0.97245084  0.00032082  0.00056671
   0.03911838  0.13365950  0.00044017
   0.17244363  0.00029545  0.00049963
   0.23909628  0.13364792  0.00025647
   0.97245206  0.20032201  0.00048522
   0.03912836  0.33364377  0.00044415
   0.17245176  0.20035455  0.00021917
   0.23912436  0.33366572  0.00007226
   0.37246557  0.00032440  0.00045391
   0.43913747  0.13361994  0.00025834
   0.97244982  0.40030936  0.00054761
   0.03912498  0.53363679  0.00057341
   0.37241618  0.40032948  0.00000000
   0.43909960  0.53363898  0.00023241
   0.57244368  0.00031213  0.00055958
   0.63911021  0.13363175  0.00054727
   0.97245270  0.60030565  0.00064029
   0.03912449  0.73364036  0.00065451
   0.57243347  0.60030624  0.00040289
   0.63911189  0.73364188  0.00052791
   0.17245463  0.40031823  0.00028904
   0.23912018  0.53363655  0.00037851
   0.37245975  0.20029599  0.00008900
   0.43910710  0.33367342  0.00005576
   0.17245216  0.60031151  0.00052434
   0.23912337  0.73363857  0.00057513
   0.57243108  0.20028917  0.00041330
   0.63911277  0.33361863  0.00046238
   0.37243981  0.60030802  0.00036284
   0.43911609  0.73363786  0.00049419
   0.57246936  0.40032050  0.00033992
   0.63911941  0.53365087  0.00045961
   0.77244572  0.00031543  0.00059616
   0.83911628  0.13364020  0.00057531
   0.77244051  0.20030743  0.00058103
   0.83912024  0.33363573  0.00058547
   0.77244632  0.40029837  0.00058298
   0.83911898  0.53363396  0.00062110
   0.77245614  0.60030817  0.00059571
   0.83911503  0.73364318  0.00063151
   0.97245531  0.80030558  0.00065223
   0.03911471  0.93364329  0.00059805
   0.17245797  0.80031221  0.00062337
   0.23913455  0.93364719  0.00054485
   0.37245140  0.80031667  0.00055140
   0.43912449  0.93364477  0.00054143
   0.57244110  0.80031005  0.00053453
   0.63911507  0.93363899  0.00058764
   0.77244510  0.80031319  0.00060206
   0.83911661  0.93364434  0.00060683
   0.37302101  0.25122688  0.16817928
   0.42087980  0.18931315  0.17075616
   0.32515698  0.31316719  0.16580109
 
 position of ions in cartesian coordinates  (Angst):
  11.98347958  0.00342433  0.01416777
  -0.34154264  1.42664989  0.01100432
   2.12354700  0.00315355  0.01249070
   2.12325634  1.42652621  0.00641170
  10.75098721  2.13818970  0.01213047
  -1.57382270  3.56123457  0.01110375
   0.89078307  2.13853702  0.00547917
   0.89099273  3.56146885  0.00180651
   4.58863896  0.00346260  0.01134782
   4.58893648  1.42622757  0.00645846
   9.51853763  4.27280730  0.01369027
  -2.80632132  5.69591267  0.01433526
   2.12299894  4.27302204  0.00000000
   2.12335237  5.69593607  0.00581036
   7.05344483  0.00333155  0.01398950
   7.05352764  1.42635365  0.01368187
   8.28609598  6.40752033  0.01600723
  -4.03884931  7.83070339  0.01636283
   3.35585531  6.40752662  0.01007237
   3.35598594  7.83071962  0.01319763
  -0.34145776  4.27290193  0.00722612
  -0.34137895  5.69591010  0.00946273
   3.35624236  2.13791198  0.00222492
   3.35573251  3.56155103  0.00139405
  -1.57394684  6.40758280  0.01310850
  -1.57385216  7.83068434  0.01437823
   5.82093107  2.13783916  0.01033241
   5.82114012  3.56096622  0.01155939
   0.89092245  6.40754561  0.00907111
   0.89106251  7.83067670  0.01235474
   4.58870974  4.27292622  0.00849795
   4.58852320  5.69606300  0.01149026
   9.51844972  0.00336679  0.01490402
   9.51855036  1.42644387  0.01438264
   8.28593477  2.13803408  0.01452582
   8.28612680  3.56114872  0.01463668
   7.05356221  4.27268994  0.01457444
   7.05362213  5.69588251  0.01552751
   5.82112285  6.40754723  0.01489279
   5.82101669  7.83073350  0.01578780
   7.05362858  8.54227219  0.01630582
  -5.27148792  9.96548729  0.01495127
  -2.80637951  8.54234295  0.01558431
  -2.80626749  9.96552896  0.01362126
  -0.34148805  8.54239058  0.01378498
  -0.34137657  9.96550309  0.01353576
   2.12342586  8.54231992  0.01336337
   2.12354296  9.96544135  0.01469111
   4.58845581  8.54235337  0.01505154
   4.58852904  9.96549848  0.01517076
   3.04929830  2.68153618  4.20448208
   4.02070129  2.02068374  4.26890394
   2.07766701  3.34267235  4.14502721
 


--------------------------------------------------------------------------------------------------------


 k-point   1 :   0.0000 0.0000 0.0000  plane waves:  236157

 maximum and minimum number of plane-waves per node :    236157   236157

 maximum number of plane-waves:    236157
 maximum index in each direction: 
   IXMAX=   31   IYMAX=   31   IZMAX=   64
   IXMIN=  -31   IYMIN=  -31   IZMIN=  -64


 serial   3D FFT for wavefunctions
 parallel 3D FFT for charge:
    minimum data exchange during FFTs selected (reduces bandwidth)


 total amount of memory used by VASP MPI-rank0   551512. kBytes
=======================================================================

   base      :      30000. kBytes
   nonl-proj :     230539. kBytes
   fftplans  :      40716. kBytes
   grid      :     216018. kBytes
   one-center:        162. kBytes
   wavefun   :      34077. kBytes
 
     INWAV:  cpu time    0.0000: real time    0.0000
 Broyden mixing: mesh for mixing (old mesh)
   NGX = 63   NGY = 63   NGZ =129
  (NGX  =256   NGY  =256   NGZ  =540)
  gives a total of 512001 points

 initial charge density was supplied:
 charge density of overlapping atoms calculated
 number of electron     216.0000000 magnetization 
 keeping initial charge density in first step


--------------------------------------------------------------------------------------------------------


 Maximum index for augmentation-charges          471 (set IRDMAX)


--------------------------------------------------------------------------------------------------------


 First call to EWALD:  gamma=   0.119
 Maximum number of real-space cells 4x 4x 2
 Maximum number of reciprocal cells 2x 2x 4

    FEWALD:  cpu time    0.0032: real time    0.0032


--------------------------------------- Iteration      1(   1)  ---------------------------------------


vdW kernel read from vdw_kernel.bindat
  0.0000  0.2424  0.5071  0.7962  1.1119  1.4567  1.8333  2.2446  2.6937  3.1842
  3.7199  4.3049  4.9438  5.6415  6.4036  7.2358  8.1446  9.1372 10.2212 11.4050
 12.6979 14.1099 15.6519 17.3360 19.1751 21.1837 23.3773 25.7729 28.3892 31.2465
 34.3669 37.7748 41.4965 45.5611 50.0000
 
    POTLOK:  cpu time    8.2395: real time    8.3239
    SETDIJ:  cpu time    0.3549: real time    0.3562
    TRIAL :  cpu time   15.3187: real time   15.4589
    CORREC:  cpu time    0.0005: real time    0.0009
    --------------------------------------------
      LOOP:  cpu time   23.9223: real time   24.1828

 eigenvalue-minimisations  :   336
 total energy-change (2. order) : 0.2644781E+04  (-0.1072466E+05)
 number of electron     216.0000000 magnetization 
 augmentation part      216.0000000 magnetization 

 Free energy of the ion-electron system (eV)
  ---------------------------------------------------
  alpha Z        PSCENC =        47.94900195
  Ewald energy   TEWEN  =     45899.51553853
  -Hartree energ DENC   =    -51968.63327317
  -exchange      EXHF   =         0.00000000
  -V(xc)+E(xc)   XCENC  =       398.23972452
  PAW double counting   =      6564.79108649    -6260.84737255
  entropy T*S    EENTRO =        -0.00000000
  eigenvalues    EBANDS =      -497.31764913
  atomic energy  EATOM  =      8461.08393172
  ---------------------------------------------------
  free energy    TOTEN  =      2644.78098836 eV

  energy without entropy =     2644.78098836  energy(sigma->0) =     2644.78098836


--------------------------------------------------------------------------------------------------------




--------------------------------------- Iteration      1(   2)  ---------------------------------------


    TRIAL :  cpu time   26.8989: real time   27.1187
    CORREC:  cpu time    0.0001: real time    0.0001
    --------------------------------------------
      LOOP:  cpu time   26.9084: real time   27.1294

 eigenvalue-minimisations  :   672
 total energy-change (2. order) :-0.2449789E+04  (-0.2321658E+04)
 number of electron     216.0000000 magnetization 
 augmentation part      216.0000000 magnetization 

 Free energy of the ion-electron system (eV)
  ---------------------------------------------------
  alpha Z        PSCENC =        47.94900195
  Ewald energy   TEWEN  =     45899.51553853
  -Hartree energ DENC   =    -51968.63327317
  -exchange      EXHF   =         0.00000000
  -V(xc)+E(xc)   XCENC  =       398.23972452
  PAW double counting   =      6564.79108649    -6260.84737255
  entropy T*S    EENTRO =        -0.00000000
  eigenvalues    EBANDS =     -2947.10667512
  atomic energy  EATOM  =      8461.08393172
  ---------------------------------------------------
  free energy    TOTEN  =       194.99196237 eV

  energy without entropy =      194.99196237  energy(sigma->0) =      194.99196237


--------------------------------------------------------------------------------------------------------




--------------------------------------- Iteration      1(   3)  ---------------------------------------


    TRIAL :  cpu time   19.1662: real time   19.3105
    CORREC:  cpu time    0.0001: real time    0.0001
    --------------------------------------------
      LOOP:  cpu time   19.2164: real time   19.3633

 eigenvalue-minimisations  :   448
 total energy-change (2. order) :-0.6193096E+03  (-0.6170118E+03)
 number of electron     216.0000000 magnetization 
 augmentation part      216.0000000 magnetization 

 Free energy of the ion-electron system (eV)
  ---------------------------------------------------
  alpha Z        PSCENC =        47.94900195
  Ewald energy   TEWEN  =     45899.51553853
  -Hartree energ DENC   =    -51968.63327317
  -exchange      EXHF   =         0.00000000
  -V(xc)+E(xc)   XCENC  =       398.23972452
  PAW double counting   =      6564.79108649    -6260.84737255
  entropy T*S    EENTRO =        -0.00000000
  eigenvalues    EBANDS =     -3566.41624986
  atomic energy  EATOM  =      8461.08393172
  ---------------------------------------------------
  free energy    TOTEN  =      -424.31761237 eV

  energy without entropy =     -424.31761237  energy(sigma->0) =     -424.31761237


--------------------------------------------------------------------------------------------------------




--------------------------------------- Iteration      1(   4)  ---------------------------------------


    TRIAL :  cpu time   19.1782: real time   19.3196
    CORREC:  cpu time    0.0001: real time    0.0001
    --------------------------------------------
      LOOP:  cpu time   19.2266: real time   19.3721

 eigenvalue-minimisations  :   448
 total energy-change (2. order) :-0.2122649E+02  (-0.2109947E+02)
 number of electron     216.0000000 magnetization 
 augmentation part      216.0000000 magnetization 

 Free energy of the ion-electron system (eV)
  ---------------------------------------------------
  alpha Z        PSCENC =        47.94900195
  Ewald energy   TEWEN  =     45899.51553853
  -Hartree energ DENC   =    -51968.63327317
  -exchange      EXHF   =         0.00000000
  -V(xc)+E(xc)   XCENC  =       398.23972452
  PAW double counting   =      6564.79108649    -6260.84737255
  entropy T*S    EENTRO =        -0.00000000
  eigenvalues    EBANDS =     -3587.64273567
  atomic energy  EATOM  =      8461.08393172
  ---------------------------------------------------
  free energy    TOTEN  =      -445.54409818 eV

  energy without entropy =     -445.54409818  energy(sigma->0) =     -445.54409818


--------------------------------------------------------------------------------------------------------




--------------------------------------- Iteration      1(   5)  ---------------------------------------


    TRIAL :  cpu time   17.2429: real time   17.3728
    CORREC:  cpu time    0.0001: real time    0.0003
    CHARGE:  cpu time    0.8089: real time    0.8146
    --------------------------------------------
      LOOP:  cpu time   18.1146: real time   18.2511

 eigenvalue-minimisations  :   392
 total energy-change (2. order) :-0.7080218E+00  (-0.7069650E+00)
 number of electron     216.0000000 magnetization 
 augmentation part       -0.2165928 magnetization 

 Free energy of the ion-electron system (eV)
  ---------------------------------------------------
  alpha Z        PSCENC =        47.94900195
  Ewald energy   TEWEN  =     45899.51553853
  -Hartree energ DENC   =    -51968.63327317
  -exchange      EXHF   =         0.00000000
  -V(xc)+E(xc)   XCENC  =       398.23972452
  PAW double counting   =      6564.79108649    -6260.84737255
  entropy T*S    EENTRO =        -0.00000000
  eigenvalues    EBANDS =     -3588.35075752
  atomic energy  EATOM  =      8461.08393172
  ---------------------------------------------------
  free energy    TOTEN  =      -446.25212003 eV

  energy without entropy =     -446.25212003  energy(sigma->0) =     -446.25212003


--------------------------------------------------------------------------------------------------------




--------------------------------------- Iteration      1(   6)  ---------------------------------------


    POTLOK:  cpu time    7.8627: real time    7.9171
    SETDIJ:  cpu time    0.3614: real time    0.3627
    TRIAL :  cpu time    6.8914: real time    6.9440
    CORREC:  cpu time    9.7600: real time    9.8330
    CHARGE:  cpu time    0.8027: real time    0.8089
    --------------------------------------------
      LOOP:  cpu time   25.7492: real time   25.9407

 eigenvalue-minimisations  :     0
 total energy-change (2. order) : 0.5514252E+02  (-0.1762359E+02)
 number of electron     216.0000000 magnetization 
 augmentation part       -0.3293977 magnetization 

 Free energy of the ion-electron system (eV)
  ---------------------------------------------------
  alpha Z        PSCENC =        47.94900195
  Ewald energy   TEWEN  =     45899.51553853
  -Hartree energ DENC   =    -53447.16005937
  -exchange      EXHF   =         0.00000000
  -V(xc)+E(xc)   XCENC  =       448.07569398
  PAW double counting   =     71402.31387260   -71106.54221203
  entropy T*S    EENTRO =        -0.00000000
  eigenvalues    EBANDS =     -2096.34536651
  atomic energy  EATOM  =      8461.08393172
  ---------------------------------------------------
  free energy    TOTEN  =      -391.10959912 eV

  energy without entropy =     -391.10959912  energy(sigma->0) =     -391.10959912


--------------------------------------------------------------------------------------------------------




--------------------------------------- Iteration      1(   7)  ---------------------------------------


    POTLOK:  cpu time    7.8878: real time    7.9460
    SETDIJ:  cpu time    0.3583: real time    0.3595
    TRIAL :  cpu time    6.8817: real time    6.9348
    CORREC:  cpu time    9.7613: real time    9.8329
    CHARGE:  cpu time    0.8062: real time    0.8112
    --------------------------------------------
      LOOP:  cpu time   25.7571: real time   25.9472

 eigenvalue-minimisations  :     0
 total energy-change (2. order) :-0.1766942E+02  (-0.2006231E+01)
 number of electron     216.0000000 magnetization 
 augmentation part       -0.3785008 magnetization 

 Free energy of the ion-electron system (eV)
  ---------------------------------------------------
  alpha Z        PSCENC =        47.94900195
  Ewald energy   TEWEN  =     45899.51553853
  -Hartree energ DENC   =    -52913.94540449
  -exchange      EXHF   =         0.00000000
  -V(xc)+E(xc)   XCENC  =       430.16208292
  PAW double counting   =     86338.53038779   -86039.51780463
  entropy T*S    EENTRO =        -0.00000000
  eigenvalues    EBANDS =     -2632.55675488
  atomic energy  EATOM  =      8461.08393172
  ---------------------------------------------------
  free energy    TOTEN  =      -408.77902108 eV

  energy without entropy =     -408.77902108  energy(sigma->0) =     -408.77902108


--------------------------------------------------------------------------------------------------------




--------------------------------------- Iteration      1(   8)  ---------------------------------------


    POTLOK:  cpu time    7.9049: real time    7.9659
    SETDIJ:  cpu time    0.3191: real time    0.3201
    TRIAL :  cpu time    6.8874: real time    6.9386
    CORREC:  cpu time    9.7241: real time    9.7885
    CHARGE:  cpu time    0.8024: real time    0.8074
    --------------------------------------------
      LOOP:  cpu time   25.6586: real time   25.8841

 eigenvalue-minimisations  :     0
 total energy-change (2. order) :-0.2006035E+01  (-0.5773008E+00)
 number of electron     216.0000000 magnetization 
 augmentation part       -0.3941374 magnetization 

 Free energy of the ion-electron system (eV)
  ---------------------------------------------------
  alpha Z        PSCENC =        47.94900195
  Ewald energy   TEWEN  =     45899.51553853
  -Hartree energ DENC   =    -52885.69112301
  -exchange      EXHF   =         0.00000000
  -V(xc)+E(xc)   XCENC  =       429.52483938
  PAW double counting   =     90812.90478271   -90513.44838332
  entropy T*S    EENTRO =        -0.00000000
  eigenvalues    EBANDS =     -2662.62364355
  atomic energy  EATOM  =      8461.08393172
  ---------------------------------------------------
  free energy    TOTEN  =      -410.78505559 eV

  energy without entropy =     -410.78505559  energy(sigma->0) =     -410.78505559


--------------------------------------------------------------------------------------------------------




--------------------------------------- Iteration      1(   9)  ---------------------------------------


    POTLOK:  cpu time    7.9208: real time    7.9775
    SETDIJ:  cpu time    0.2621: real time    0.2630
    TRIAL :  cpu time    6.8865: real time    6.9457
    CORREC:  cpu time    9.7282: real time    9.7970
    CHARGE:  cpu time    0.8030: real time    0.8093
    --------------------------------------------
      LOOP:  cpu time   25.6715: real time   25.8649

 eigenvalue-minimisations  :     0
 total energy-change (2. order) :-0.5771291E+00  (-0.2189625E+00)
 number of electron     216.0000000 magnetization 
 augmentation part       -0.3993310 magnetization 

 Free energy of the ion-electron system (eV)
  ---------------------------------------------------
  alpha Z        PSCENC =        47.94900195
  Ewald energy   TEWEN  =     45899.51553853
  -Hartree energ DENC   =    -52898.50805813
  -exchange      EXHF   =         0.00000000
  -V(xc)+E(xc)   XCENC  =       429.62398840
  PAW double counting   =     94052.15792442   -93752.50441159
  entropy T*S    EENTRO =        -0.00000000
  eigenvalues    EBANDS =     -2650.68009997
  atomic energy  EATOM  =      8461.08393172
  ---------------------------------------------------
  free energy    TOTEN  =      -411.36218466 eV

  energy without entropy =     -411.36218466  energy(sigma->0) =     -411.36218466


--------------------------------------------------------------------------------------------------------




--------------------------------------- Iteration      1(  10)  ---------------------------------------


    POTLOK:  cpu time    7.8995: real time    7.9636
    SETDIJ:  cpu time    0.2962: real time    0.2972
    TRIAL :  cpu time    6.8786: real time    6.9415
    CORREC:  cpu time    9.7248: real time    9.7956
    CHARGE:  cpu time    0.8020: real time    0.8070
    --------------------------------------------
      LOOP:  cpu time   25.6850: real time   25.8894

 eigenvalue-minimisations  :     0
 total energy-change (2. order) :-0.2182489E+00  (-0.9629009E-01)
 number of electron     216.0000000 magnetization 
 augmentation part       -0.3971215 magnetization 

 Free energy of the ion-electron system (eV)
  ---------------------------------------------------
  alpha Z        PSCENC =        47.94900195
  Ewald energy   TEWEN  =     45899.51553853
  -Hartree energ DENC   =    -52895.54235540
  -exchange      EXHF   =         0.00000000
  -V(xc)+E(xc)   XCENC  =       429.46473132
  PAW double counting   =     94876.42965039   -94576.66139102
  entropy T*S    EENTRO =        -0.00000000
  eigenvalues    EBANDS =     -2653.81954104
  atomic energy  EATOM  =      8461.08393172
  ---------------------------------------------------
  free energy    TOTEN  =      -411.58043354 eV

  energy without entropy =     -411.58043354  energy(sigma->0) =     -411.58043354


--------------------------------------------------------------------------------------------------------




--------------------------------------- Iteration      1(  11)  ---------------------------------------


    POTLOK:  cpu time    7.9022: real time    7.9550
    SETDIJ:  cpu time    0.3351: real time    0.3362
    TRIAL :  cpu time    6.8836: real time    6.9344
    CORREC:  cpu time    9.7226: real time    9.7910
    CHARGE:  cpu time    0.8008: real time    0.8064
    --------------------------------------------
      LOOP:  cpu time   25.7049: real time   25.8841

 eigenvalue-minimisations  :     0
 total energy-change (2. order) :-0.9583005E-01  (-0.3600571E-01)
 number of electron     216.0000000 magnetization 
 augmentation part       -0.3949173 magnetization 

 Free energy of the ion-electron system (eV)
  ---------------------------------------------------
  alpha Z        PSCENC =        47.94900195
  Ewald energy   TEWEN  =     45899.51553853
  -Hartree energ DENC   =    -52887.09481583
  -exchange      EXHF   =         0.00000000
  -V(xc)+E(xc)   XCENC  =       429.33467384
  PAW double counting   =     94457.33099730   -94157.56555830
  entropy T*S    EENTRO =        -0.00000000
  eigenvalues    EBANDS =     -2662.23003281
  atomic energy  EATOM  =      8461.08393172
  ---------------------------------------------------
  free energy    TOTEN  =      -411.67626360 eV

  energy without entropy =     -411.67626360  energy(sigma->0) =     -411.67626360


--------------------------------------------------------------------------------------------------------




--------------------------------------- Iteration      1(  12)  ---------------------------------------


    POTLOK:  cpu time    7.8831: real time    7.9381
    SETDIJ:  cpu time    0.3751: real time    0.3764
    TRIAL :  cpu time    6.9002: real time    6.9520
    CORREC:  cpu time    9.7146: real time    9.7848
    CHARGE:  cpu time    0.8027: real time    0.8077
    --------------------------------------------
      LOOP:  cpu time   25.7016: real time   25.9021

 eigenvalue-minimisations  :     0
 total energy-change (2. order) :-0.3598324E-01  (-0.1063137E-01)
 number of electron     216.0000000 magnetization 
 augmentation part       -0.3944905 magnetization 

 Free energy of the ion-electron system (eV)
  ---------------------------------------------------
  alpha Z        PSCENC =        47.94900195
  Ewald energy   TEWEN  =     45899.51553853
  -Hartree energ DENC   =    -52882.97476165
  -exchange      EXHF   =         0.00000000
  -V(xc)+E(xc)   XCENC  =       429.25867248
  PAW double counting   =     93992.34578434   -93692.61279066
  entropy T*S    EENTRO =        -0.00000000
  eigenvalues    EBANDS =     -2666.27762355
  atomic energy  EATOM  =      8461.08393172
  ---------------------------------------------------
  free energy    TOTEN  =      -411.71224683 eV

  energy without entropy =     -411.71224683  energy(sigma->0) =     -411.71224683


--------------------------------------------------------------------------------------------------------




--------------------------------------- Iteration      1(  13)  ---------------------------------------


    POTLOK:  cpu time    7.8842: real time    7.9375
    SETDIJ:  cpu time    0.3136: real time    0.3147
    TRIAL :  cpu time    6.8814: real time    6.9341
    CORREC:  cpu time    9.7184: real time    9.7991
    CHARGE:  cpu time    0.8008: real time    0.8074
    --------------------------------------------
      LOOP:  cpu time   25.6350: real time   25.8448

 eigenvalue-minimisations  :     0
 total energy-change (2. order) :-0.1066998E-01  (-0.2775920E-02)
 number of electron     216.0000000 magnetization 
 augmentation part       -0.3942333 magnetization 

 Free energy of the ion-electron system (eV)
  ---------------------------------------------------
  alpha Z        PSCENC =        47.94900195
  Ewald energy   TEWEN  =     45899.51553853
  -Hartree energ DENC   =    -52882.02529106
  -exchange      EXHF   =         0.00000000
  -V(xc)+E(xc)   XCENC  =       429.22421845
  PAW double counting   =     93767.73477276   -93468.01670486
  entropy T*S    EENTRO =        -0.00000000
  eigenvalues    EBANDS =     -2667.18838430
  atomic energy  EATOM  =      8461.08393172
  ---------------------------------------------------
  free energy    TOTEN  =      -411.72291682 eV

  energy without entropy =     -411.72291682  energy(sigma->0) =     -411.72291682


--------------------------------------------------------------------------------------------------------




--------------------------------------- Iteration      1(  14)  ---------------------------------------


    POTLOK:  cpu time    7.8648: real time    7.9293
    SETDIJ:  cpu time    0.3212: real time    0.3225
    TRIAL :  cpu time    6.8783: real time    6.9446
    CORREC:  cpu time    9.7221: real time    9.8030
    CHARGE:  cpu time    0.8028: real time    0.8091
    --------------------------------------------
      LOOP:  cpu time   25.6410: real time   25.8653

 eigenvalue-minimisations  :     0
 total energy-change (2. order) :-0.2798812E-02  (-0.7208509E-03)
 number of electron     216.0000000 magnetization 
 augmentation part       -0.3941707 magnetization 

 Free energy of the ion-electron system (eV)
  ---------------------------------------------------
  alpha Z        PSCENC =        47.94900195
  Ewald energy   TEWEN  =     45899.51553853
  -Hartree energ DENC   =    -52881.87671909
  -exchange      EXHF   =         0.00000000
  -V(xc)+E(xc)   XCENC  =       429.21594319
  PAW double counting   =     93722.87679779   -93423.16449027
  entropy T*S    EENTRO =        -0.00000000
  eigenvalues    EBANDS =     -2667.32571944
  atomic energy  EATOM  =      8461.08393172
  ---------------------------------------------------
  free energy    TOTEN  =      -411.72571563 eV

  energy without entropy =     -411.72571563  energy(sigma->0) =     -411.72571563


--------------------------------------------------------------------------------------------------------




--------------------------------------- Iteration      1(  15)  ---------------------------------------


    POTLOK:  cpu time    7.8935: real time    7.9622
    SETDIJ:  cpu time    0.3419: real time    0.3433
    TRIAL :  cpu time    6.8772: real time    6.9410
    CORREC:  cpu time    9.7353: real time    9.8120
    CHARGE:  cpu time    0.8030: real time    0.8079
    --------------------------------------------
      LOOP:  cpu time   25.7030: real time   25.9240

 eigenvalue-minimisations  :     0
 total energy-change (2. order) :-0.7296570E-03  (-0.2057658E-03)
 number of electron     216.0000000 magnetization 
 augmentation part       -0.3940867 magnetization 

 Free energy of the ion-electron system (eV)
  ---------------------------------------------------
  alpha Z        PSCENC =        47.94900195
  Ewald energy   TEWEN  =     45899.51553853
  -Hartree energ DENC   =    -52881.70067260
  -exchange      EXHF   =         0.00000000
  -V(xc)+E(xc)   XCENC  =       429.20681218
  PAW double counting   =     93719.91267729   -93420.20070311
  entropy T*S    EENTRO =        -0.00000000
  eigenvalues    EBANDS =     -2667.49303125
  atomic energy  EATOM  =      8461.08393172
  ---------------------------------------------------
  free energy    TOTEN  =      -411.72644528 eV

  energy without entropy =     -411.72644528  energy(sigma->0) =     -411.72644528


--------------------------------------------------------------------------------------------------------




--------------------------------------- Iteration      1(  16)  ---------------------------------------


    POTLOK:  cpu time    7.8654: real time    7.9239
    SETDIJ:  cpu time    0.3293: real time    0.3304
    TRIAL :  cpu time    6.8801: real time    6.9335
    CORREC:  cpu time    9.7376: real time    9.8045
    CHARGE:  cpu time    0.8014: real time    0.8066
    --------------------------------------------
      LOOP:  cpu time   25.6758: real time   25.8658

 eigenvalue-minimisations  :     0
 total energy-change (2. order) :-0.2113386E-03  (-0.7245942E-04)
 number of electron     216.0000000 magnetization 
 augmentation part       -0.3939898 magnetization 

 Free energy of the ion-electron system (eV)
  ---------------------------------------------------
  alpha Z        PSCENC =        47.94900195
  Ewald energy   TEWEN  =     45899.51553853
  -Hartree energ DENC   =    -52881.77851089
  -exchange      EXHF   =         0.00000000
  -V(xc)+E(xc)   XCENC  =       429.20814338
  PAW double counting   =     93703.36550371   -93403.65380208
  entropy T*S    EENTRO =        -0.00000000
  eigenvalues    EBANDS =     -2667.41646294
  atomic energy  EATOM  =      8461.08393172
  ---------------------------------------------------
  free energy    TOTEN  =      -411.72665662 eV

  energy without entropy =     -411.72665662  energy(sigma->0) =     -411.72665662


--------------------------------------------------------------------------------------------------------




--------------------------------------- Iteration      1(  17)  ---------------------------------------


    POTLOK:  cpu time    7.8970: real time    7.9504
    SETDIJ:  cpu time    0.2961: real time    0.2973
    TRIAL :  cpu time    6.8814: real time    6.9396
    CORREC:  cpu time    9.7277: real time    9.7974
    CHARGE:  cpu time    0.8029: real time    0.8081
    --------------------------------------------
      LOOP:  cpu time   25.6870: real time   25.8777

 eigenvalue-minimisations  :     0
 total energy-change (2. order) :-0.7547109E-04  (-0.2737723E-04)
 number of electron     216.0000000 magnetization 
 augmentation part       -0.3939892 magnetization 

 Free energy of the ion-electron system (eV)
  ---------------------------------------------------
  alpha Z        PSCENC =        47.94900195
  Ewald energy   TEWEN  =     45899.51553853
  -Hartree energ DENC   =    -52881.93330981
  -exchange      EXHF   =         0.00000000
  -V(xc)+E(xc)   XCENC  =       429.21324210
  PAW double counting   =     93687.60524331   -93387.89392519
  entropy T*S    EENTRO =        -0.00000000
  eigenvalues    EBANDS =     -2667.26645470
  atomic energy  EATOM  =      8461.08393172
  ---------------------------------------------------
  free energy    TOTEN  =      -411.72673209 eV

  energy without entropy =     -411.72673209  energy(sigma->0) =     -411.72673209


--------------------------------------------------------------------------------------------------------




--------------------------------------- Iteration      1(  18)  ---------------------------------------


    POTLOK:  cpu time    7.8888: real time    7.9414
    SETDIJ:  cpu time    0.3406: real time    0.3417
    TRIAL :  cpu time    6.8822: real time    6.9345
    CORREC:  cpu time    9.7919: real time    9.8819
    CHARGE:  cpu time    0.8024: real time    0.8076
    --------------------------------------------
      LOOP:  cpu time   25.7359: real time   25.9395

 eigenvalue-minimisations  :     0
 total energy-change (2. order) :-0.2900670E-04  (-0.1096822E-04)
 number of electron     216.0000000 magnetization 
 augmentation part       -0.3940030 magnetization 

 Free energy of the ion-electron system (eV)
  ---------------------------------------------------
  alpha Z        PSCENC =        47.94900195
  Ewald energy   TEWEN  =     45899.51553853
  -Hartree energ DENC   =    -52881.95755927
  -exchange      EXHF   =         0.00000000
  -V(xc)+E(xc)   XCENC  =       429.21333516
  PAW double counting   =     93684.72134655   -93385.00943499
  entropy T*S    EENTRO =        -0.00000000
  eigenvalues    EBANDS =     -2667.24292076
  atomic energy  EATOM  =      8461.08393172
  ---------------------------------------------------
  free energy    TOTEN  =      -411.72676110 eV

  energy without entropy =     -411.72676110  energy(sigma->0) =     -411.72676110


--------------------------------------------------------------------------------------------------------




--------------------------------------- Iteration      1(  19)  ---------------------------------------


    POTLOK:  cpu time    7.8651: real time    7.9199
    SETDIJ:  cpu time    0.3497: real time    0.3509
    TRIAL :  cpu time    6.8934: real time    6.9443
    CORREC:  cpu time    9.7403: real time    9.8083
    CHARGE:  cpu time    0.8037: real time    0.8093
    --------------------------------------------
      LOOP:  cpu time   25.7018: real time   25.8956

 eigenvalue-minimisations  :     0
 total energy-change (2. order) :-0.1176429E-04  (-0.4753801E-05)
 number of electron     216.0000000 magnetization 
 augmentation part       -0.3940258 magnetization 

 Free energy of the ion-electron system (eV)
  ---------------------------------------------------
  alpha Z        PSCENC =        47.94900195
  Ewald energy   TEWEN  =     45899.51553853
  -Hartree energ DENC   =    -52881.99123867
  -exchange      EXHF   =         0.00000000
  -V(xc)+E(xc)   XCENC  =       429.21447834
  PAW double counting   =     93689.53467827   -93389.82252787
  entropy T*S    EENTRO =        -0.00000000
  eigenvalues    EBANDS =     -2667.21063514
  atomic energy  EATOM  =      8461.08393172
  ---------------------------------------------------
  free energy    TOTEN  =      -411.72677287 eV

  energy without entropy =     -411.72677287  energy(sigma->0) =     -411.72677287


--------------------------------------------------------------------------------------------------------




--------------------------------------- Iteration      1(  20)  ---------------------------------------


    POTLOK:  cpu time    7.9114: real time    7.9634
    SETDIJ:  cpu time    0.3007: real time    0.3017
    TRIAL :  cpu time    6.8855: real time    6.9370
    CORREC:  cpu time    9.7327: real time    9.7967
    CHARGE:  cpu time    0.8012: real time    0.8063
    --------------------------------------------
      LOOP:  cpu time   25.6758: real time   25.8524

 eigenvalue-minimisations  :     0
 total energy-change (2. order) :-0.5036025E-05  (-0.2082745E-05)
 number of electron     216.0000000 magnetization 
 augmentation part       -0.3940396 magnetization 

 Free energy of the ion-electron system (eV)
  ---------------------------------------------------
  alpha Z        PSCENC =        47.94900195
  Ewald energy   TEWEN  =     45899.51553853
  -Hartree energ DENC   =    -52882.01381356
  -exchange      EXHF   =         0.00000000
  -V(xc)+E(xc)   XCENC  =       429.21507249
  PAW double counting   =     93695.16443885   -93395.45214542
  entropy T*S    EENTRO =        -0.00000000
  eigenvalues    EBANDS =     -2667.18880246
  atomic energy  EATOM  =      8461.08393172
  ---------------------------------------------------
  free energy    TOTEN  =      -411.72677790 eV

  energy without entropy =     -411.72677790  energy(sigma->0) =     -411.72677790


--------------------------------------------------------------------------------------------------------




--------------------------------------- Iteration      1(  21)  ---------------------------------------


    POTLOK:  cpu time    7.8844: real time    7.9395
    SETDIJ:  cpu time    0.3247: real time    0.3258
    TRIAL :  cpu time    6.8762: real time    6.9350
    CORREC:  cpu time    9.6991: real time    9.7718
    CHARGE:  cpu time    0.8061: real time    0.8111
    --------------------------------------------
      LOOP:  cpu time   25.6743: real time   25.8690

 eigenvalue-minimisations  :     0
 total energy-change (2. order) :-0.2119545E-05  (-0.8407319E-06)
 number of electron     216.0000000 magnetization 
 augmentation part       -0.3940318 magnetization 

 Free energy of the ion-electron system (eV)
  ---------------------------------------------------
  alpha Z        PSCENC =        47.94900195
  Ewald energy   TEWEN  =     45899.51553853
  -Hartree energ DENC   =    -52882.01361578
  -exchange      EXHF   =         0.00000000
  -V(xc)+E(xc)   XCENC  =       429.21483271
  PAW double counting   =     93697.81156140   -93398.09919449
  entropy T*S    EENTRO =        -0.00000000
  eigenvalues    EBANDS =     -2667.18883606
  atomic energy  EATOM  =      8461.08393172
  ---------------------------------------------------
  free energy    TOTEN  =      -411.72678002 eV

  energy without entropy =     -411.72678002  energy(sigma->0) =     -411.72678002


--------------------------------------------------------------------------------------------------------




--------------------------------------- Iteration      1(  22)  ---------------------------------------


    POTLOK:  cpu time    7.8768: real time    7.9338
    SETDIJ:  cpu time    0.3414: real time    0.3425
    TRIAL :  cpu time    6.8732: real time    6.9309
    CORREC:  cpu time    9.7307: real time    9.7976
    CHARGE:  cpu time    0.8043: real time    0.8093
    --------------------------------------------
      LOOP:  cpu time   25.7248: real time   25.9176

 eigenvalue-minimisations  :     0
 total energy-change (2. order) :-0.8252100E-06  (-0.3514755E-06)
 number of electron     216.0000000 magnetization 
 augmentation part       -0.3940324 magnetization 

 Free energy of the ion-electron system (eV)
  ---------------------------------------------------
  alpha Z        PSCENC =        47.94900195
  Ewald energy   TEWEN  =     45899.51553853
  -Hartree energ DENC   =    -52882.01765588
  -exchange      EXHF   =         0.00000000
  -V(xc)+E(xc)   XCENC  =       429.21498572
  PAW double counting   =     93697.23512647   -93397.52287612
  entropy T*S    EENTRO =        -0.00000000
  eigenvalues    EBANDS =     -2667.18483324
  atomic energy  EATOM  =      8461.08393172
  ---------------------------------------------------
  free energy    TOTEN  =      -411.72678085 eV

  energy without entropy =     -411.72678085  energy(sigma->0) =     -411.72678085


--------------------------------------------------------------------------------------------------------




--------------------------------------- Iteration      1(  23)  ---------------------------------------


    POTLOK:  cpu time    7.9019: real time    7.9601
    SETDIJ:  cpu time    0.2980: real time    0.2992
    TRIAL :  cpu time    6.8858: real time    6.9413
    CORREC:  cpu time    9.7591: real time    9.8259
    CHARGE:  cpu time    0.8023: real time    0.8074
    --------------------------------------------
      LOOP:  cpu time   25.6762: real time   25.8677

 eigenvalue-minimisations  :     0
 total energy-change (2. order) :-0.3288733E-06  (-0.4016351E-06)
 number of electron     216.0000000 magnetization 
 augmentation part       -0.3940276 magnetization 

 Free energy of the ion-electron system (eV)
  ---------------------------------------------------
  alpha Z        PSCENC =        47.94900195
  Ewald energy   TEWEN  =     45899.51553853
  -Hartree energ DENC   =    -52882.00690936
  -exchange      EXHF   =         0.00000000
  -V(xc)+E(xc)   XCENC  =       429.21457543
  PAW double counting   =     93695.87298267   -93396.16072552
  entropy T*S    EENTRO =        -0.00000000
  eigenvalues    EBANDS =     -2667.19517659
  atomic energy  EATOM  =      8461.08393172
  ---------------------------------------------------
  free energy    TOTEN  =      -411.72678117 eV

  energy without entropy =     -411.72678117  energy(sigma->0) =     -411.72678117


--------------------------------------------------------------------------------------------------------




--------------------------------------- Iteration      1(  24)  ---------------------------------------


    POTLOK:  cpu time    7.8828: real time    7.9417
    SETDIJ:  cpu time    0.3336: real time    0.3349
    TRIAL :  cpu time    6.8855: real time    6.9420
    CORREC:  cpu time    9.7184: real time    9.7837
    CHARGE:  cpu time    0.8050: real time    0.8102
    --------------------------------------------
      LOOP:  cpu time   25.6584: real time   25.8810

 eigenvalue-minimisations  :     0
 total energy-change (2. order) : 0.1793669E-06  (-0.4071968E-06)
 number of electron     216.0000000 magnetization 
 augmentation part       -0.3940361 magnetization 

 Free energy of the ion-electron system (eV)
  ---------------------------------------------------
  alpha Z        PSCENC =        47.94900195
  Ewald energy   TEWEN  =     45899.51553853
  -Hartree energ DENC   =    -52882.00574476
  -exchange      EXHF   =         0.00000000
  -V(xc)+E(xc)   XCENC  =       429.21493103
  PAW double counting   =     93693.80939319   -93394.09727288
  entropy T*S    EENTRO =        -0.00000000
  eigenvalues    EBANDS =     -2667.19655978
  atomic energy  EATOM  =      8461.08393172
  ---------------------------------------------------
  free energy    TOTEN  =      -411.72678100 eV

  energy without entropy =     -411.72678100  energy(sigma->0) =     -411.72678100


--------------------------------------------------------------------------------------------------------




--------------------------------------- Iteration      1(  25)  ---------------------------------------


    POTLOK:  cpu time    7.8801: real time    7.9373
    SETDIJ:  cpu time    0.3591: real time    0.3605
    TRIAL :  cpu time    6.8835: real time    6.9457
    CORREC:  cpu time    9.7228: real time    9.7945
    CHARGE:  cpu time    0.8029: real time    0.8082
    --------------------------------------------
      LOOP:  cpu time   25.6796: real time   25.8847

 eigenvalue-minimisations  :     0
 total energy-change (2. order) :-0.3393943E-06  (-0.1064327E-06)
 number of electron     216.0000000 magnetization 
 augmentation part       -0.3940374 magnetization 

 Free energy of the ion-electron system (eV)
  ---------------------------------------------------
  alpha Z        PSCENC =        47.94900195
  Ewald energy   TEWEN  =     45899.51553853
  -Hartree energ DENC   =    -52881.99763442
  -exchange      EXHF   =         0.00000000
  -V(xc)+E(xc)   XCENC  =       429.21443930
  PAW double counting   =     93694.13447235   -93394.42223769
  entropy T*S    EENTRO =        -0.00000000
  eigenvalues    EBANDS =     -2667.20429308
  atomic energy  EATOM  =      8461.08393172
  ---------------------------------------------------
  free energy    TOTEN  =      -411.72678133 eV

  energy without entropy =     -411.72678133  energy(sigma->0) =     -411.72678133


--------------------------------------------------------------------------------------------------------




--------------------------------------- Iteration      1(  26)  ---------------------------------------


    POTLOK:  cpu time    7.8681: real time    7.9198
    SETDIJ:  cpu time    0.3297: real time    0.3308
    TRIAL :  cpu time    6.8841: real time    6.9396
    CORREC:  cpu time    9.7082: real time    9.7764
    CHARGE:  cpu time    0.8041: real time    0.8093
    --------------------------------------------
      LOOP:  cpu time   25.6521: real time   25.8368

 eigenvalue-minimisations  :     0
 total energy-change (2. order) :-0.9773066E-07  (-0.1518520E-06)
 number of electron     216.0000000 magnetization 
 augmentation part       -0.3940352 magnetization 

 Free energy of the ion-electron system (eV)
  ---------------------------------------------------
  alpha Z        PSCENC =        47.94900195
  Ewald energy   TEWEN  =     45899.51553853
  -Hartree energ DENC   =    -52881.99925264
  -exchange      EXHF   =         0.00000000
  -V(xc)+E(xc)   XCENC  =       429.21447269
  PAW double counting   =     93694.58471434   -93394.87246727
  entropy T*S    EENTRO =        -0.00000000
  eigenvalues    EBANDS =     -2667.20272075
  atomic energy  EATOM  =      8461.08393172
  ---------------------------------------------------
  free energy    TOTEN  =      -411.72678143 eV

  energy without entropy =     -411.72678143  energy(sigma->0) =     -411.72678143


--------------------------------------------------------------------------------------------------------




--------------------------------------- Iteration      1(  27)  ---------------------------------------


    POTLOK:  cpu time    7.8776: real time    7.9301
    SETDIJ:  cpu time    0.3242: real time    0.3253
    TRIAL :  cpu time    6.8805: real time    6.9354
    CORREC:  cpu time    9.7132: real time    9.7873
    CHARGE:  cpu time    0.8008: real time    0.8061
    --------------------------------------------
      LOOP:  cpu time   25.6462: real time   25.8372

 eigenvalue-minimisations  :     0
 total energy-change (2. order) : 0.1289154E-06  (-0.1565310E-06)
 number of electron     216.0000000 magnetization 
 augmentation part       -0.3940396 magnetization 

 Free energy of the ion-electron system (eV)
[...]
      9     -21.5339      2.00000
     10     -19.7058      2.00000
     11     -19.7057      2.00000
     12     -19.7052      2.00000
     13     -19.7047      2.00000
     14     -19.7044      2.00000
     15     -19.7042      2.00000
     16     -18.8147      2.00000
     17     -18.8143      2.00000
     18     -18.8142      2.00000
     19     -18.8141      2.00000
     20     -18.8138      2.00000
     21     -18.8133      2.00000
     22     -16.6723      2.00000
     23     -16.6721      2.00000
     24     -16.6716      2.00000
     25     -16.6711      2.00000
     26     -16.6691      2.00000
     27     -16.6690      2.00000
     28     -15.6784      2.00000
     29     -15.6782      2.00000
     30     -15.6774      2.00000
     31     -15.6773      2.00000
     32     -15.6768      2.00000
     33     -15.6767      2.00000
     34     -14.3399      2.00000
     35     -14.3398      2.00000
     36     -14.3394      2.00000
     37     -14.3392      2.00000
     38     -14.3392      2.00000
     39     -14.3384      2.00000
     40     -12.6263      2.00000
     41     -11.9866      2.00000
     42     -11.9865      2.00000
     43     -11.9859      2.00000
     44     -11.9858      2.00000
     45     -11.9853      2.00000
     46     -11.9852      2.00000
     47     -11.8764      2.00000
     48     -11.8763      2.00000
     49     -11.8753      2.00000
     50     -11.8753      2.00000
     51     -11.8738      2.00000
     52     -11.8735      2.00000
     53     -11.4854      2.00000
     54     -11.3956      2.00000
     55     -11.3916      2.00000
     56     -10.6334      2.00000
     57     -10.5115      2.00000
     58     -10.5114      2.00000
     59     -10.5105      2.00000
     60     -10.5102      2.00000
     61     -10.5097      2.00000
     62     -10.5097      2.00000
     63      -9.5252      2.00000
     64      -9.5228      2.00000
     65      -9.5178      2.00000
     66      -9.5174      2.00000
     67      -9.5147      2.00000
     68      -9.5143      2.00000
     69      -9.2723      2.00000
     70      -9.2706      2.00000
     71      -9.2704      2.00000
     72      -9.2692      2.00000
     73      -9.2690      2.00000
     74      -9.2689      2.00000
     75      -9.2119      2.00000
     76      -9.2117      2.00000
     77      -9.2116      2.00000
     78      -9.2109      2.00000
     79      -9.2101      2.00000
     80      -9.2094      2.00000
     81      -7.8712      2.00000
     82      -7.8683      2.00000
     83      -7.6344      2.00000
     84      -7.6340      2.00000
     85      -7.6337      2.00000
     86      -7.6333      2.00000
     87      -7.6309      2.00000
     88      -7.6308      2.00000
     89      -7.3956      2.00000
     90      -7.3953      2.00000
     91      -7.3921      2.00000
     92      -7.3911      2.00000
     93      -7.3910      2.00000
     94      -7.3902      2.00000
     95      -6.5012      2.00000
     96      -6.4996      2.00000
     97      -6.4991      2.00000
     98      -6.4969      2.00000
     99      -6.4965      2.00000
    100      -6.4959      2.00000
    101      -6.1729      2.00000
    102      -6.1707      2.00000
    103      -4.5228      2.00000
    104      -4.5221      2.00000
    105      -4.5209      2.00000
    106      -4.5203      2.00000
    107      -4.5170      2.00000
    108      -4.5168      2.00000
    109      -1.7272      0.00000
    110      -1.7270      0.00000
    111      -1.7238      0.00000
    112      -1.7234      0.00000
    113      -1.7227      0.00000
    114      -1.7223      0.00000
    115      -0.8944      0.00000
    116      -0.2588      0.00000
    117       0.1296      0.00000
    118       0.1306      0.00000
    119       0.1316      0.00000
    120       0.1338      0.00000
    121       0.1342      0.00000
    122       0.1371      0.00000
    123       0.1579      0.00000
    124       0.2416      0.00000
    125       0.2748      0.00000
    126       0.3078      0.00000
    127       0.5289      0.00000
    128       0.5714      0.00000
    129       0.5746      0.00000
    130       0.5798      0.00000
    131       0.7058      0.00000
    132       0.8568      0.00000
    133       1.0483      0.00000
    134       1.1322      0.00000
    135       1.1493      0.00000
    136       1.2061      0.00000
    137       1.2132      0.00000
    138       1.2255      0.00000
    139       1.2711      0.00000
    140       1.4872      0.00000
    141       1.6352      0.00000
    142       1.6590      0.00000
    143       1.6672      0.00000
    144       1.6813      0.00000
    145       1.6971      0.00000
    146       1.8449      0.00000
    147       1.8610      0.00000
    148       1.8615      0.00000
    149       1.8642      0.00000
    150       1.8651      0.00000
    151       1.8653      0.00000
    152       1.8655      0.00000
    153       2.0403      0.00000
    154       2.0843      0.00000
    155       2.1391      0.00000
    156       2.1510      0.00000
    157       2.1693      0.00000
    158       2.2117      0.00000
    159       2.3064      0.00000
    160       2.3210      0.00000
    161       2.3451      0.00000
    162       2.3918      0.00000
    163       2.6245      0.00000
    164       3.5749      0.00000
    165       4.0726      0.00000
    166       4.4567      0.00000
    167       4.5170      0.00000
    168       4.5327      0.00000


--------------------------------------------------------------------------------------------------------


 soft charge-density along one line, spin component           1
         0         1         2         3         4         5         6         7         8         9
 total charge-density along one line
 
 pseudopotential strength for first ion, spin component:           1
 12.688  21.351  -0.000   0.000   0.000  -0.000   0.000   0.000
 21.351  35.929  -0.000   0.000   0.000  -0.000   0.000   0.000
 -0.000  -0.000  -3.244  -0.000   0.000  -5.814  -0.000   0.000
  0.000   0.000  -0.000  -3.252  -0.000  -0.000  -5.828  -0.000
  0.000   0.000   0.000  -0.000  -3.244   0.000  -0.000  -5.814
 -0.000  -0.000  -5.814  -0.000   0.000 -10.398  -0.000   0.000
  0.000   0.000  -0.000  -5.828  -0.000  -0.000 -10.423  -0.000
  0.000   0.000   0.000  -0.000  -5.814   0.000  -0.000 -10.398
 total augmentation occupancy for first ion, spin component:           1
  6.917  -2.317  -0.000  -0.002   0.000   0.000   0.001  -0.000
 -2.317   0.818   0.000   0.001  -0.000  -0.000  -0.000   0.000
 -0.000   0.000   6.628  -0.007   0.000  -2.167   0.003  -0.000
 -0.002   0.001  -0.007   2.819  -0.000   0.003  -0.689   0.000
  0.000  -0.000   0.000  -0.000   6.627  -0.000   0.000  -2.167
  0.000  -0.000  -2.167   0.003  -0.000   0.724  -0.001   0.000
  0.001  -0.000   0.003  -0.689   0.000  -0.001   0.176  -0.000
 -0.000   0.000  -0.000   0.000  -2.167   0.000  -0.000   0.724


------------------------ aborting loop because EDIFF is reached ----------------------------------------


    FORLOC:  cpu time    0.1360: real time    0.1370
    FORNL :  cpu time    3.5859: real time    3.6182
    FORCOR:  cpu time    7.8845: real time    7.9487
    OFIELD:  cpu time    0.0029: real time    0.0029

 VOLUME and BASIS-vectors are now :
 -----------------------------------------------------------------------------
  energy-cutoff  :     1000.00
  volume of cell :     3288.85
      direct lattice vectors                 reciprocal lattice vectors
    12.325000000  0.000000000  0.000000000     0.081135903  0.046843835  0.000000000
    -6.162500000 10.673763102  0.000000000     0.000000000  0.093687670  0.000000000
     0.000000000  0.000000000 25.000000000     0.000000000  0.000000000  0.040000000

  length of vectors
    12.325000000 12.325000000 25.000000000     0.093687670  0.093687670  0.040000000


 FORCES acting on ions:
    Electron-Ion                     Ewald-Force                    Non-Local-Force
 -----------------------------------------------------------------------------------------------
   0.672E+01 0.586E+01 0.254E+02   -.673E+01 -.586E+01 -.254E+02   0.110E-01 -.218E-02 0.991E-02
   0.103E+02 0.502E+01 0.304E+02   -.103E+02 -.502E+01 -.304E+02   0.140E-01 -.715E-02 -.485E-02
   0.468E+01 0.123E+02 0.349E+02   -.467E+01 -.123E+02 -.349E+02   -.150E-02 0.266E-01 0.169E-01
   0.662E+01 0.963E+01 0.474E+02   -.664E+01 -.964E+01 -.474E+02   0.259E-01 0.784E-02 0.270E-01
   0.722E+01 0.170E+01 0.255E+02   -.722E+01 -.170E+01 -.255E+02   0.405E-02 -.113E-01 -.180E-02
   0.748E+01 -.138E+01 0.259E+02   -.747E+01 0.138E+01 -.259E+02   -.958E-02 0.537E-04 -.110E-01
   0.121E+02 0.455E+01 0.431E+02   -.121E+02 -.453E+01 -.431E+02   0.311E-01 -.315E-01 0.516E-02
   0.117E+02 -.413E+01 0.448E+02   -.117E+02 0.415E+01 -.448E+02   0.871E-02 -.173E-01 -.167E-01
   -.542E+01 0.111E+02 0.351E+02   0.544E+01 -.111E+02 -.351E+02   -.117E-01 -.430E-02 -.120E-01
   -.881E+01 0.744E+01 0.459E+02   0.885E+01 -.746E+01 -.459E+02   -.479E-01 0.296E-01 0.749E-02
   0.184E+01 -.172E+01 0.220E+02   -.183E+01 0.172E+01 -.220E+02   -.391E-03 -.715E-03 -.461E-02
   0.152E+01 -.126E+01 0.209E+02   -.152E+01 0.126E+01 -.209E+02   -.120E-01 0.528E-02 0.241E-02
   0.468E+01 -.103E+02 0.490E+02   -.471E+01 0.103E+02 -.490E+02   0.499E-01 -.221E-01 0.281E-02
   0.244E+01 -.123E+02 0.357E+02   -.246E+01 0.123E+02 -.357E+02   0.155E-01 -.802E-03 -.215E-01
   -.646E+01 0.402E+01 0.249E+02   0.646E+01 -.402E+01 -.249E+02   0.912E-02 -.437E-02 -.167E-02
   -.917E+01 0.267E+01 0.275E+02   0.917E+01 -.267E+01 -.275E+02   -.546E-02 0.992E-02 -.152E-01
   -.107E+01 -.428E+00 0.202E+02   0.108E+01 0.425E+00 -.202E+02   -.531E-02 0.185E-02 0.107E-02
   0.538E+00 0.381E+01 0.212E+02   -.533E+00 -.381E+01 -.212E+02   -.666E-02 0.378E-02 0.923E-02
   -.182E+01 -.110E+02 0.297E+02   0.181E+01 0.110E+02 -.297E+02   0.151E-01 -.717E-02 0.388E-02
   -.879E+00 -.580E+01 0.229E+02   0.871E+00 0.581E+01 -.229E+02   0.476E-02 -.495E-02 -.152E-02
   0.104E+02 -.457E+01 0.321E+02   -.104E+02 0.457E+01 -.321E+02   0.161E-02 -.661E-02 -.318E-01
   0.660E+01 -.559E+01 0.272E+02   -.660E+01 0.559E+01 -.272E+02   -.790E-02 0.785E-02 -.129E-01
   -.227E+01 0.455E+01 0.553E+02   0.228E+01 -.456E+01 -.553E+02   -.228E-01 0.217E-01 0.546E-01
   -.332E+01 -.716E+01 0.537E+02   0.331E+01 0.717E+01 -.537E+02   0.195E-01 -.301E-01 0.391E-01
   0.329E+01 -.138E+01 0.221E+02   -.328E+01 0.138E+01 -.221E+02   -.185E-02 -.468E-03 -.869E-02
   0.675E+00 0.292E+01 0.222E+02   -.670E+00 -.292E+01 -.222E+02   -.101E-01 0.585E-02 0.889E-03
   -.126E+02 0.166E+01 0.375E+02   0.126E+02 -.167E+01 -.375E+02   -.167E-02 0.167E-01 -.809E-02
   -.119E+02 -.485E+01 0.353E+02   0.119E+02 0.484E+01 -.353E+02   -.236E-01 0.167E-01 0.912E-02
   0.397E+01 -.802E+01 0.282E+02   -.398E+01 0.802E+01 -.281E+02   0.107E-01 0.223E-02 -.163E-01
   0.362E+00 -.320E+01 0.232E+02   -.367E+00 0.320E+01 -.232E+02   -.162E-02 0.422E-02 -.794E-02
   -.913E+01 -.967E+01 0.410E+02   0.915E+01 0.968E+01 -.410E+02   -.252E-01 -.156E-01 0.164E-01
   -.577E+01 -.106E+02 0.310E+02   0.578E+01 0.106E+02 -.310E+02   0.532E-03 -.131E-01 0.135E-01
   0.414E+00 0.165E+01 0.208E+02   -.419E+00 -.165E+01 -.208E+02   0.968E-02 -.674E-02 0.441E-02
   0.111E+01 0.164E+01 0.219E+02   -.112E+01 -.164E+01 -.219E+02   -.402E-03 0.180E-02 -.510E-02
   -.454E+01 0.642E+00 0.233E+02   0.454E+01 -.646E+00 -.233E+02   0.525E-02 -.295E-03 0.242E-03
   -.397E+01 -.163E+01 0.229E+02   0.397E+01 0.162E+01 -.229E+02   -.913E-02 0.565E-02 -.279E-03
   -.787E+01 -.409E+01 0.257E+02   0.789E+01 0.408E+01 -.257E+02   -.102E-01 0.270E-02 0.331E-02
   -.478E+01 -.385E+01 0.226E+02   0.479E+01 0.385E+01 -.226E+02   -.902E-02 0.203E-02 0.104E-01
   -.442E+01 -.574E+01 0.238E+02   0.443E+01 0.575E+01 -.238E+02   -.786E-02 -.338E-02 0.822E-02
   -.664E+00 -.142E+01 0.212E+02   0.664E+00 0.142E+01 -.212E+02   0.280E-02 -.131E-02 0.864E-02
   0.166E+01 0.406E+01 0.218E+02   -.166E+01 -.407E+01 -.218E+02   -.481E-02 0.605E-02 0.855E-02
   0.531E+01 0.832E+01 0.265E+02   -.531E+01 -.832E+01 -.265E+02   0.540E-02 0.491E-02 0.143E-01
   0.445E+00 0.703E+01 0.235E+02   -.436E+00 -.704E+01 -.235E+02   -.575E-02 0.605E-02 0.443E-03
   -.689E-01 0.119E+02 0.312E+02   0.841E-01 -.119E+02 -.312E+02   -.193E-01 0.945E-02 0.831E-02
   -.133E+01 0.260E+01 0.231E+02   0.133E+01 -.260E+01 -.231E+02   0.223E-02 -.392E-02 -.480E-02
   -.536E+01 0.670E+01 0.268E+02   0.537E+01 -.670E+01 -.268E+02   -.110E-01 0.175E-02 -.113E-01
   -.105E+01 -.283E+01 0.218E+02   0.104E+01 0.283E+01 -.219E+02   0.113E-01 -.277E-02 0.226E-02
   -.259E+01 0.102E+01 0.211E+02   0.258E+01 -.101E+01 -.211E+02   0.136E-02 0.160E-02 -.743E-02
   0.237E+00 -.177E+01 0.209E+02   -.241E+00 0.177E+01 -.210E+02   0.718E-02 -.419E-02 0.608E-02
   0.279E+01 0.202E+01 0.211E+02   -.279E+01 -.202E+01 -.211E+02   0.510E-02 0.915E-03 0.317E-02
   0.546E-01 -.338E-01 -.364E+03   -.513E-01 0.324E-01 0.364E+03   -.419E-02 0.283E-02 -.214E-01
   -.229E+03 0.156E+03 -.559E+03   0.279E+03 -.190E+03 0.563E+03   -.513E+02 0.349E+02 -.348E+01
   0.229E+03 -.156E+03 -.537E+03   -.279E+03 0.190E+03 0.534E+03   0.513E+02 -.349E+02 0.305E+01
 -----------------------------------------------------------------------------------------------
   0.535E-02 0.544E-02 0.370E+00   0.171E-12 -.142E-12 -.682E-12   -.440E-02 -.611E-02 -.368E+00
 
 
 POSITION                                       TOTAL-FORCE (eV/Angst)
 -----------------------------------------------------------------------------------
     11.98348      0.00342      0.01417         0.002592     -0.000646     -0.000380
     -0.34154      1.42665      0.01100        -0.002321      0.000117     -0.001325
      2.12355      0.00315      0.01249        -0.000727      0.005719     -0.002288
      2.12326      1.42653      0.00641         0.007770      0.000235      0.001097
     10.75099      2.13819      0.01213         0.000382     -0.004680      0.000894
     -1.57382      3.56123      0.01110        -0.006599      0.005404     -0.000746
      0.89078      2.13854      0.00548         0.005500     -0.012892      0.007048
      0.89099      3.56147      0.00181        -0.012520     -0.000227      0.015281
      4.58864      0.00346      0.01135         0.004787     -0.015116     -0.000912
      4.58894      1.42623      0.00646        -0.015911      0.009074      0.018912
      9.51854      4.27281      0.01369         0.006945     -0.003905      0.000487
     -2.80632      5.69591      0.01434        -0.006306      0.003353      0.001057
      2.12300      4.27302      0.00000         0.016499     -0.002475      0.025434
      2.12335      5.69594      0.00581        -0.002023      0.008868      0.000271
      7.05344      0.00333      0.01399         0.007832     -0.004209      0.000618
      7.05353      1.42635      0.01368        -0.002173      0.004283     -0.002161
      8.28610      6.40752      0.01601         0.003427     -0.001500     -0.000472
     -4.03885      7.83070      0.01636        -0.001797      0.001172      0.000136
      3.35586      6.40753      0.01007         0.002944      0.000251     -0.000117
      3.35599      7.83072      0.01320        -0.003452      0.000847     -0.000078
     -0.34146      4.27290      0.00723        -0.000507     -0.001581     -0.002120
     -0.34138      5.69591      0.00946        -0.007830      0.004580      0.000074
      3.35624      2.13791      0.00222        -0.008269      0.007797      0.028315
      3.35573      3.56155      0.00139         0.009133     -0.010469      0.019665
     -1.57395      6.40758      0.01311         0.006768     -0.004203     -0.000385
     -1.57385      7.83068      0.01438        -0.004552      0.003827      0.000523
      5.82093      2.13784      0.01033         0.015848      0.003217     -0.000034
      5.82114      3.56097      0.01156        -0.003886      0.004965     -0.000820
      0.89092      6.40755      0.00907         0.004078      0.001177     -0.000797
      0.89106      7.83068      0.01235        -0.007158      0.002551      0.000627
      4.58871      4.27293      0.00850        -0.007531     -0.004531     -0.004156
      4.58852      5.69606      0.01149         0.001569      0.001937     -0.001771
      9.51845      0.00337      0.01490         0.004531     -0.004550      0.000492
      9.51855      1.42644      0.01438        -0.004840      0.006171     -0.000039
      8.28593      2.13803      0.01453         0.005168     -0.004016      0.001125
      8.28613      3.56115      0.01464        -0.004160      0.001728      0.000562
      7.05356      4.27269      0.01457         0.003886     -0.000793      0.000582
      7.05362      5.69588      0.01553        -0.002295      0.001002      0.000238
      5.82112      6.40755      0.01489        -0.001819      0.002072      0.000549
      5.82102      7.83073      0.01579         0.002445      0.000700     -0.000043
      7.05363      8.54227      0.01631        -0.004360      0.000358      0.001436
     -5.27149      9.96549      0.01495        -0.001211     -0.002811     -0.000963
     -2.80638      8.54234      0.01558         0.003392     -0.002093     -0.000328
     -2.80627      9.96553      0.01362        -0.003720      0.000033     -0.001836
     -0.34149      8.54239      0.01378         0.005793     -0.003520      0.000694
     -0.34138      9.96550      0.01354        -0.005659      0.000843      0.000113
      2.12343      8.54232      0.01336         0.005608     -0.001546      0.001088
      2.12354      9.96544      0.01469        -0.006295      0.004219     -0.001620
      4.58846      8.54235      0.01505         0.003403     -0.002864      0.001167
      4.58853      9.96550      0.01517        -0.003563      0.003151      0.000630
      3.04930      2.68154      4.20448        -0.000950      0.001401     -0.015639
      4.02070      2.02068      4.26890        -0.634218      0.431275     -0.083694
      2.07767      3.34267      4.14503         0.636354     -0.433702     -0.006390
 -----------------------------------------------------------------------------------
    total drift:                                0.000955     -0.000677      0.002331


--------------------------------------------------------------------------------------------------------



  FREE ENERGIE OF THE ION-ELECTRON SYSTEM (eV)
  ---------------------------------------------------
  free  energy   TOTEN  =      -411.72678144 eV

  energy  without entropy=     -411.72678144  energy(sigma->0) =     -411.72678144
 


--------------------------------------------------------------------------------------------------------


    POTLOK:  cpu time    8.4486: real time    8.5151


--------------------------------------------------------------------------------------------------------


 writing wavefunctions
     LOOP+:  cpu time  881.1256: real time  888.2837
    4ORBIT:  cpu time    0.0000: real time    0.0000

 total amount of memory used by VASP MPI-rank0   551512. kBytes
=======================================================================

   base      :      30000. kBytes
   nonl-proj :     230539. kBytes
   fftplans  :      40716. kBytes
   grid      :     216018. kBytes
   one-center:        162. kBytes
   wavefun   :      34077. kBytes
 
  
  
 General timing and accounting informations for this job:
 ========================================================
  
                  Total CPU time used (sec):      925.595
                            User time (sec):      876.540
                          System time (sec):       49.055
                         Elapsed time (sec):      934.075
  
                   Maximum memory used (kb):     1359072.
                   Average memory used (kb):          N/A
  
                          Minor page faults:       568393
                          Major page faults:          163
                 Voluntary context switches:         3972
