 vasp.6.2.1 16May21 (build Nov 06 2021 14:46:37) complex                        
  
 executed on             LinuxIFC date 2025.03.03  19:11:30
 running on  112 total cores
 distrk:  each k-point on   56 cores,    2 groups
 distr:  one band on NCORE=   1 cores,   56 groups


--------------------------------------------------------------------------------------------------------


 INCAR:
   ALGO = Conjugate
   KPAR = 2
   NCORE = 32
   ISMEAR = 0
   SIGMA = 0.01
   PREC = Accurate
   EDIFF = 1E-7
   ENCUT = 1000
   ISIF = 0
   GGA = BO
   PARAM1 = 0.1833333333
   PARAM2 = 0.2200000000
   LUSE_VDW = .TRUE.
   AGGAC = 0.0000
   LASPH = .TRUE.
   SYMPREC = 1E-7

 POTCAR:    PAW_PBE C_h 06Feb2004                 
 POTCAR:    PAW_PBE O_h 06Feb2004                 
 -----------------------------------------------------------------------------
|                                                                             |
|           W    W    AA    RRRRR   N    N  II  N    N   GGGG   !!!           |
|           W    W   A  A   R    R  NN   N  II  NN   N  G    G  !!!           |
|           W    W  A    A  R    R  N N  N  II  N N  N  G       !!!           |
|           W WW W  AAAAAA  RRRRR   N  N N  II  N  N N  G  GGG   !            |
|           WW  WW  A    A  R   R   N   NN  II  N   NN  G    G                |
|           W    W  A    A  R    R  N    N  II  N    N   GGGG   !!!           |
|                                                                             |
|     The value NCORE = 32 specified in the INCAR file was overwritten,       |
|     because it was not compatible with the 56 processes available:          |
|     NCORE = 1                                                               |
|     was used instead, please check that this makes sense for your           |
|     machine.                                                                |
|                                                                             |
 -----------------------------------------------------------------------------

 -----------------------------------------------------------------------------
|                                                                             |
|           W    W    AA    RRRRR   N    N  II  N    N   GGGG   !!!           |
|           W    W   A  A   R    R  NN   N  II  NN   N  G    G  !!!           |
|           W    W  A    A  R    R  N N  N  II  N N  N  G       !!!           |
|           W WW W  AAAAAA  RRRRR   N  N N  II  N  N N  G  GGG   !            |
|           WW  WW  A    A  R   R   N   NN  II  N   NN  G    G                |
|           W    W  A    A  R    R  N    N  II  N    N   GGGG   !!!           |
|                                                                             |
|     For optimal performance we recommend to set                             |
|       NCORE = 2 up to number-of-cores-per-socket                            |
|     NCORE specifies how many cores store one orbital (NPAR=cpu/NCORE).      |
|     This setting can greatly improve the performance of VASP for DFT.       |
|     The default, NCORE=1 might be grossly inefficient on modern             |
|     multi-core architectures or massively parallel machines. Do your        |
|     own testing! More info at https://www.vasp.at/wiki/index.php/NCORE      |
|     Unfortunately you need to use the default for GW and RPA                |
|     calculations (for HF NCORE is supported but not extensively tested      |
|     yet).                                                                   |
|                                                                             |
 -----------------------------------------------------------------------------

 -----------------------------------------------------------------------------
|                                                                             |
|               ----> ADVICE to this user running VASP <----                  |
|                                                                             |
|     You have switched on vdW-DFT.                                           |
|     This routine was written and supplied by Jiri Klimes. We recommend      |
|     that you carefully read and cite the following publications:            |
|       J. Klimes, D.R. Bowler, A. Michelides                                 |
|          J. Phys.: Cond Matt. 22 022201 (2010)                              |
|       J. Klimes, D.R. Bowler, A. Michelides                                 |
|          Phys. Rev. B. 83, 195131 (2011)                                    |
|     and references therein.                                                 |
|                                                                             |
 -----------------------------------------------------------------------------

 POTCAR:    PAW_PBE C_h 06Feb2004                 
   VRHFIN =C: s2p2                                                                                  
   LEXCH  = PE                                                                                      
   EATOM  =   147.1560 eV,   10.8157 Ry                                                             
                                                                                                    
   TITEL  = PAW_PBE C_h 06Feb2004                                                                   
   LULTRA =        F    use ultrasoft PP ?                                                          
   IUNSCR =        1    unscreen: 0-lin 1-nonlin 2-no                                               
   RPACOR =    0.800    partial core radius                                                         
   POMASS =   12.011; ZVAL   =    4.000    mass and valenz                                          
   RCORE  =    1.100    outmost cutoff radius                                                       
   RWIGS  =    1.630; RWIGS  =    0.863    wigner-seitz radius (au A)                               
   ENMAX  =  700.000; ENMIN  =  500.000 eV                                                          
   ICORE  =        2    local potential                                                             
   LCOR   =        T    correct aug charges                                                         
   LPAW   =        T    paw PP                                                                      
   EAUG   =  946.768                                                                                
   DEXC   =    0.000                                                                                
   RMAX   =    1.128    core radius for proj-oper                                                   
   RAUG   =    1.300    factor for augmentation sphere                                              
   RDEP   =    1.162    radius for radial grids                                                     
   RDEPT  =    1.088    core radius for aug-charge                                                  
                                                                                                    
   Atomic configuration                                                                             
    4 entries                                                                                       
     n  l   j            E        occ.                                                              
     1  0  0.50      -273.3789   2.0000                                                             
     2  0  0.50       -13.7508   2.0000                                                             
     2  1  0.50        -5.2854   2.0000                                                             
     3  2  1.50        -5.4423   0.0000                                                             
   Description                                                                                      
     l       E           TYP  RCUT    TYP  RCUT                                                     
     0    -13.7508458     23  1.100                                                                 
     0     -8.2022199     23  1.100                                                                 
     1     -5.2854383     23  1.100                                                                 
     1      1.1560700     23  1.100                                                                 
     2     -5.4423304      7  1.100                                                                 
  local pseudopotential read in
  partial core-charges read in
  partial kinetic energy density read in
  atomic valenz-charges read in
  non local Contribution for L=           0  read in
    real space projection operators read in
  non local Contribution for L=           0  read in
    real space projection operators read in
  non local Contribution for L=           1  read in
    real space projection operators read in
  non local Contribution for L=           1  read in
    real space projection operators read in
    PAW grid and wavefunctions read in
 
   number of l-projection  operators is LMAX  =           4
   number of lm-projection operators is LMMAX =           8
 
 POTCAR:    PAW_PBE O_h 06Feb2004                 
   VRHFIN =O: s2p4                                                                                  
   LEXCH  = PE                                                                                      
   EATOM  =   432.3788 eV,   31.7789 Ry                                                             
                                                                                                    
   TITEL  = PAW_PBE O_h 06Feb2004                                                                   
   LULTRA =        F    use ultrasoft PP ?                                                          
   IUNSCR =        1    unscreen: 0-lin 1-nonlin 2-no                                               
   RPACOR =    0.800    partial core radius                                                         
   POMASS =   16.000; ZVAL   =    6.000    mass and valenz                                          
   RCORE  =    1.100    outmost cutoff radius                                                       
   RWIGS  =    1.400; RWIGS  =    0.741    wigner-seitz radius (au A)                               
   ENMAX  =  700.000; ENMIN  =  500.000 eV                                                          
   ICORE  =        2    local potential                                                             
   LCOR   =        T    correct aug charges                                                         
   LPAW   =        T    paw PP                                                                      
   EAUG   =  888.804                                                                                
   DEXC   =    0.000                                                                                
   RMAX   =    1.128    core radius for proj-oper                                                   
   RAUG   =    1.300    factor for augmentation sphere                                              
   RDEP   =    1.125    radius for radial grids                                                     
   RDEPT  =    1.088    core radius for aug-charge                                                  
                                                                                                    
   Atomic configuration                                                                             
    4 entries                                                                                       
     n  l   j            E        occ.                                                              
     1  0  0.50      -514.6923   2.0000                                                             
     2  0  0.50       -23.9615   2.0000                                                             
     2  1  0.50        -9.0305   4.0000                                                             
     3  2  1.50        -9.5241   0.0000                                                             
   Description                                                                                      
     l       E           TYP  RCUT    TYP  RCUT                                                     
     0    -23.9615319     23  1.100                                                                 
     0    -25.3221145     23  1.100                                                                 
     1     -9.0304911     23  1.100                                                                 
     1     -5.4802209     23  1.100                                                                 
     2     -9.5240782      7  1.100                                                                 
  local pseudopotential read in
  partial core-charges read in
  partial kinetic energy density read in
  atomic valenz-charges read in
  non local Contribution for L=           0  read in
    real space projection operators read in
  non local Contribution for L=           0  read in
    real space projection operators read in
  non local Contribution for L=           1  read in
    real space projection operators read in
  non local Contribution for L=           1  read in
    real space projection operators read in
    PAW grid and wavefunctions read in
 
   number of l-projection  operators is LMAX  =           4
   number of lm-projection operators is LMMAX =           8
 
 -----------------------------------------------------------------------------
|                                                                             |
|               ----> ADVICE to this user running VASP <----                  |
|                                                                             |
|     You have a (more or less) 'large supercell' and for larger cells it     |
|     might be more efficient to use real-space projection operators.         |
|     Therefore, try LREAL= Auto in the INCAR file.                           |
|     Mind: For very accurate calculation, you might also keep the            |
|     reciprocal projection scheme (i.e. LREAL=.FALSE.).                      |
|                                                                             |
 -----------------------------------------------------------------------------

 -----------------------------------------------------------------------------
|                                                                             |
|               ----> ADVICE to this user running VASP <----                  |
|                                                                             |
|     You enforced a specific xc type in the INCAR file but a different       |
|     type was found in the POTCAR file.                                      |
|     I HOPE YOU KNOW WHAT YOU ARE DOING!                                     |
|                                                                             |
 -----------------------------------------------------------------------------

  PAW_PBE C_h 06Feb2004                 :
 energy of atom  1       EATOM= -147.1560
 kinetic energy error for atom=    0.0031 (will be added to EATOM!!)
  PAW_PBE O_h 06Feb2004                 :
 energy of atom  2       EATOM= -432.3788
 kinetic energy error for atom=    0.0171 (will be added to EATOM!!)
 
 
 POSCAR:  C  O
  positions in cartesian coordinates
  No initial velocities read in
 exchange correlation table for  LEXCH =       42
   RHO(1)=    0.500       N(1)  =     2000
   RHO(2)=  100.500       N(2)  =     4000
 


--------------------------------------------------------------------------------------------------------


 ion  position               nearest neighbor table
   1  0.972  0.000  0.001-  50 1.42   2 1.42  42 1.42
   2  0.039  0.134  0.001-   5 1.42   7 1.42   1 1.42
   3  0.172  0.000  0.001-  42 1.42  44 1.42   4 1.42
   4  0.239  0.134  0.000-   7 1.42   3 1.42  23 1.42
   5  0.972  0.200  0.001-   6 1.42   2 1.42  34 1.42
   6  0.039  0.334  0.001-   5 1.42  21 1.42  11 1.42
   7  0.172  0.200  0.000-   8 1.42   2 1.42   4 1.42
   8  0.239  0.334  0.000-  13 1.42   7 1.42  21 1.42
   9  0.372  0.000  0.001-  10 1.42  44 1.42  46 1.42
  10  0.439  0.134  0.000-  27 1.42   9 1.42  23 1.42
  11  0.972  0.400  0.001-  12 1.42  36 1.42   6 1.42
  12  0.039  0.534  0.001-  25 1.42  11 1.42  17 1.42
  13  0.372  0.400  0.000-   8 1.42  14 1.42  24 1.42
  14  0.439  0.534  0.000-  13 1.42  29 1.42  19 1.42
  15  0.572  0.000  0.001-  46 1.42  16 1.42  48 1.42
  16  0.639  0.134  0.001-  15 1.42  35 1.42  27 1.42
  17  0.972  0.600  0.001-  38 1.42  18 1.42  12 1.42
  18  0.039  0.734  0.001-  43 1.42  41 1.42  17 1.42
  19  0.572  0.600  0.001-  14 1.42  20 1.42  32 1.42
  20  0.639  0.734  0.001-  49 1.42  19 1.42  47 1.42
  21  0.172  0.400  0.000-  22 1.42   8 1.42   6 1.42
  22  0.239  0.534  0.000-  21 1.42  29 1.42  25 1.42
  23  0.372  0.200  0.000-  10 1.42   4 1.42  24 1.42
  24  0.439  0.334  0.000-  13 1.42  31 1.42  23 1.42
  25  0.172  0.600  0.001-  26 1.42  12 1.42  22 1.42
  26  0.239  0.734  0.001-  25 1.42  45 1.42  43 1.42
  27  0.572  0.200  0.001-  10 1.42  28 1.42  16 1.42
  28  0.639  0.334  0.001-  27 1.42  37 1.42  31 1.42
  29  0.372  0.600  0.000-  22 1.42  14 1.42  30 1.42
  30  0.439  0.734  0.001-  47 1.42  29 1.42  45 1.42
  31  0.572  0.400  0.000-  32 1.42  28 1.42  24 1.42
  32  0.639  0.534  0.001-  31 1.42  39 1.42  19 1.42
  33  0.772  0.000  0.001-  34 1.42  48 1.42  50 1.42
  34  0.839  0.134  0.001-  33 1.42   5 1.42  35 1.42
  35  0.772  0.200  0.001-  36 1.42  16 1.42  34 1.42
  36  0.839  0.334  0.001-  35 1.42  11 1.42  37 1.42
  37  0.772  0.400  0.001-  28 1.42  38 1.42  36 1.42
  38  0.839  0.534  0.001-  17 1.42  37 1.42  39 1.42
  39  0.772  0.600  0.001-  40 1.42  38 1.42  32 1.42
  40  0.839  0.734  0.001-  39 1.42  49 1.42  41 1.42
  41  0.972  0.800  0.001-  18 1.42  42 1.42  40 1.42
  42  0.039  0.934  0.001-   3 1.42  41 1.42   1 1.42
  43  0.172  0.800  0.001-  18 1.42  44 1.42  26 1.42
  44  0.239  0.934  0.001-   9 1.42  43 1.42   3 1.42
  45  0.372  0.800  0.001-  26 1.42  46 1.42  30 1.42
  46  0.439  0.934  0.001-  15 1.42  45 1.42   9 1.42
  47  0.572  0.800  0.001-  30 1.42  48 1.42  20 1.42
  48  0.639  0.934  0.001-  47 1.42  33 1.42  15 1.42
  49  0.772  0.800  0.001-  50 1.42  20 1.42  40 1.42
  50  0.839  0.934  0.001-  49 1.42   1 1.42  33 1.42
  51  0.373  0.251  0.375-  52 1.18  53 1.18
  52  0.421  0.189  0.378-  51 1.18
  53  0.325  0.313  0.372-  51 1.18
 
  LATTYP: Found a hexagonal cell.
 ALAT       =    12.3250000000
 C/A-ratio  =     1.6227180527
  
  Lattice vectors:
  
 A1 = (  12.3250000000,   0.0000000000,   0.0000000000)
 A2 = (  -6.1625000000,  10.6737631016,   0.0000000000)
 A3 = (   0.0000000000,   0.0000000000,  20.0000000000)


Analysis of symmetry for initial positions (statically):
=====================================================================
 Subroutine PRICEL returns:
 Original cell was already a primitive cell.
 

 Routine SETGRP: Setting up the symmetry group for a 
 hexagonal supercell.


 Subroutine GETGRP returns: Found  1 space group operations
 (whereof  1 operations were pure point group operations)
 out of a pool of 24 trial point group operations.


The static configuration has the point symmetry C_1 .


Analysis of symmetry for dynamics (positions and initial velocities):
=====================================================================
 Subroutine PRICEL returns:
 Original cell was already a primitive cell.
 

 Routine SETGRP: Setting up the symmetry group for a 
 hexagonal supercell.


 Subroutine GETGRP returns: Found  1 space group operations
 (whereof  1 operations were pure point group operations)
 out of a pool of 24 trial point group operations.


The dynamic configuration has the point symmetry C_1 .


 Subroutine INISYM returns: Found  1 space group operations
 (whereof  1 operations are pure point group operations),
 and found     1 'primitive' translations


----------------------------------------------------------------------------------------

                                     Primitive cell                                     

  volume of cell :    2631.0826

  direct lattice vectors                    reciprocal lattice vectors
    12.325000000  0.000000000  0.000000000     0.081135903  0.046843835  0.000000000
    -6.162500000 10.673763102  0.000000000     0.000000000  0.093687670  0.000000000
     0.000000000  0.000000000 20.000000000     0.000000000  0.000000000  0.050000000

  length of vectors
    12.325000000 12.325000000 20.000000000     0.093687670  0.093687670  0.050000000

  position of ions in fractional coordinates (direct lattice)
     0.972450841  0.000320818  0.000708389
     0.039118382  0.133659505  0.000550216
     0.172443627  0.000295449  0.000624535
     0.239096278  0.133647917  0.000320585
     0.972452058  0.200322012  0.000606523
     0.039128360  0.333643771  0.000555187
     0.172451764  0.200354552  0.000273959
     0.239124359  0.333665720  0.000090325
     0.372465565  0.000324403  0.000567391
     0.439137473  0.133619939  0.000322923
     0.972449824  0.400309362  0.000684513
     0.039124981  0.533636789  0.000716763
     0.372416176  0.400329481  0.000000000
     0.439099602  0.533638981  0.000290518
     0.572443676  0.000312125  0.000699475
     0.639110207  0.133631751  0.000684093
     0.972452703  0.600305653  0.000800361
     0.039124495  0.733640359  0.000818141
     0.572433471  0.600306242  0.000503618
     0.639111888  0.733641879  0.000659881
     0.172454630  0.400318228  0.000361306
     0.239120185  0.533636548  0.000473136
     0.372459750  0.200295993  0.000111246
     0.439107096  0.333673419  0.000069702
     0.172452155  0.600311506  0.000655425
     0.239123371  0.733638574  0.000718912
     0.572431082  0.200289171  0.000516621
     0.639112773  0.333618630  0.000577970
     0.372439808  0.600308022  0.000453556
     0.439116090  0.733637858  0.000617737
     0.572469358  0.400320504  0.000424897
     0.639119408  0.533650873  0.000574513
     0.772445723  0.000315427  0.000745201
     0.839116277  0.133640203  0.000719132
     0.772440513  0.200307432  0.000726291
     0.839120241  0.333635728  0.000731834
     0.772446320  0.400298367  0.000728722
     0.839118980  0.533633964  0.000776376
     0.772456143  0.600308173  0.000744639
     0.839115033  0.733643180  0.000789390
     0.972455313  0.800305582  0.000815291
     0.039114714  0.933643289  0.000747563
     0.172457971  0.800312211  0.000779216
     0.239134551  0.933647193  0.000681063
     0.372451396  0.800316674  0.000689249
     0.439124489  0.933644769  0.000676788
     0.572441101  0.800310054  0.000668168
     0.639115067  0.933638985  0.000734556
     0.772445098  0.800313187  0.000752577
     0.839116614  0.933644338  0.000758538
     0.373021009  0.251226878  0.374576769
     0.420879805  0.189313152  0.377797862
     0.325156981  0.313167186  0.371604025

  ion indices of the primitive-cell ions
   primitive index   ion index
                 1           1
                 2           2
                 3           3
                 4           4
                 5           5
                 6           6
                 7           7
                 8           8
                 9           9
                10          10
                11          11
                12          12
                13          13
                14          14
                15          15
                16          16
                17          17
                18          18
                19          19
                20          20
                21          21
                22          22
                23          23
                24          24
                25          25
                26          26
                27          27
                28          28
                29          29
                30          30
                31          31
                32          32
                33          33
                34          34
                35          35
                36          36
                37          37
                38          38
                39          39
                40          40
                41          41
                42          42
                43          43
                44          44
                45          45
                46          46
                47          47
                48          48
                49          49
                50          50
                51          51
                52          52
                53          53

----------------------------------------------------------------------------------------

 
 
 KPOINTS: auto                                    

Automatic generation of k-mesh.
 Grid dimensions read from file:
 generate k-points for:    1    1    1

 Generating k-lattice:

  Cartesian coordinates                     Fractional coordinates (reciprocal lattice)
     0.081135903  0.046843835  0.000000000     1.000000000 -0.000000000  0.000000000
     0.000000000  0.093687670  0.000000000     0.000000000  1.000000000  0.000000000
     0.000000000  0.000000000  0.050000000     0.000000000  0.000000000  1.000000000

  Length of vectors
     0.093687670  0.093687670  0.050000000

  Shift w.r.t. Gamma in fractional coordinates (k-lattice)
     0.000000000  0.000000000  0.000000000

 
 Subroutine IBZKPT returns following result:
 ===========================================
 
 Found      1 irreducible k-points:
 
 Following reciprocal coordinates:
            Coordinates               Weight
  0.000000  0.000000  0.000000      1.000000
 
 Following cartesian coordinates:
            Coordinates               Weight
  0.000000  0.000000  0.000000      1.000000
 


--------------------------------------------------------------------------------------------------------




 Dimension of arrays:
   k-points           NKPTS =      1   k-points in BZ     NKDIM =      1   number of bands    NBANDS=    168
   number of dos      NEDOS =    301   number of ions     NIONS =     53
   non local maximal  LDIM  =      4   non local SUM 2l+1 LMDIM =      8
   total plane-waves  NPLWV = ******
   max r-space proj   IRMAX =      1   max aug-charges    IRDMAX=   9736
   dimension x,y,z NGX =   128 NGY =  128 NGZ =  210
   dimension x,y,z NGXF=   256 NGYF=  256 NGZF=  420
   support grid    NGXF=   256 NGYF=  256 NGZF=  420
   ions per type =              51   2
   NGX,Y,Z   is equivalent  to a cutoff of  17.27, 17.27, 17.46 a.u.
   NGXF,Y,Z  is equivalent  to a cutoff of  34.53, 34.53, 34.91 a.u.

 SYSTEM =  unknown system                          
 POSCAR =   C  O                                   

 Startparameter for this run:
   NWRITE =      2    write-flag & timer
   PREC   = accura    normal or accurate (medium, high low for compatibility)
   ISTART =      0    job   : 0-new  1-cont  2-samecut
   ICHARG =      2    charge: 1-file 2-atom 10-const
   ISPIN  =      1    spin polarized calculation?
   LNONCOLLINEAR =      F non collinear calculations
   LSORBIT =      F    spin-orbit coupling
   INIWAV =      1    electr: 0-lowe 1-rand  2-diag
   LASPH  =      T    aspherical Exc in radial PAW
 Electronic Relaxation 1
   ENCUT  = 1000.0 eV  73.50 Ry    8.57 a.u.  31.78 31.78 51.57*2*pi/ulx,y,z
   ENINI  = 1000.0     initial cutoff
   ENAUG  =  946.8 eV  augmentation charge cutoff
   NELM   =     60;   NELMIN=  2; NELMDL= -5     # of ELM steps 
   EDIFF  = 0.1E-06   stopping-criterion for ELM
   LREAL  =      F    real-space projection
   NLSPLINE    = F    spline interpolate recip. space projectors
   LCOMPAT=      F    compatible to vasp.4.4
   GGA_COMPAT  = T    GGA compatible to vasp.4.4-vasp.4.6
   LMAXPAW     = -100 max onsite density
   LMAXMIX     =    2 max onsite mixed and CHGCAR
   VOSKOWN=      0    Vosko Wilk Nusair interpolation
   ROPT   =    0.00000   0.00000
 Ionic relaxation
   EDIFFG = 0.1E-05   stopping-criterion for IOM
   NSW    =      0    number of steps for IOM
   NBLOCK =      1;   KBLOCK =      1    inner block; outer block 
   IBRION =     -1    ionic relax: 0-MD 1-quasi-New 2-CG
   NFREE  =      0    steps in history (QN), initial steepest desc. (CG)
   ISIF   =      0    stress and relaxation
   IWAVPR =     10    prediction:  0-non 1-charg 2-wave 3-comb
   ISYM   =      2    0-nonsym 1-usesym 2-fastsym
   LCORR  =      T    Harris-Foulkes like correction to forces

   POTIM  = 0.5000    time-step for ionic-motion
   TEIN   =    0.0    initial temperature
   TEBEG  =    0.0;   TEEND  =   0.0 temperature during run
   SMASS  =  -3.00    Nose mass-parameter (am)
   estimated Nose-frequenzy (Omega)   =  0.10E-29 period in steps = 0.13E+47 mass=  -0.347E-26a.u.
   SCALEE = 1.0000    scale energy and forces
   NPACO  =    256;   APACO  = 16.0  distance and # of slots for P.C.
   PSTRESS=    0.0 pullay stress

  Mass of Ions in am
   POMASS =  12.01 16.00
  Ionic Valenz
   ZVAL   =   4.00  6.00
  Atomic Wigner-Seitz radii
   RWIGS  =  -1.00 -1.00
  virtual crystal weights 
   VCA    =   1.00  1.00
   NELECT =     216.0000    total number of electrons
   NUPDOWN=      -1.0000    fix difference up-down

 DOS related values:
   EMIN   =  10.00;   EMAX   =-10.00  energy-range for DOS
   EFERMI =   0.00
   ISMEAR =     0;   SIGMA  =   0.01  broadening in eV -4-tet -1-fermi 0-gaus

 Electronic relaxation 2 (details)
   IALGO  =     58    algorithm
   LDIAG  =      T    sub-space diagonalisation (order eigenvalues)
   LSUBROT=      F    optimize rotation matrix (better conditioning)
   TURBO    =      0    0=normal 1=particle mesh
   IRESTART =      0    0=no restart 2=restart with 2 vectors
   NREBOOT  =      0    no. of reboots
   NMIN     =      0    reboot dimension
   EREF     =   0.00    reference energy to select bands
   IMIX   =      4    mixing-type and parameters
     AMIX     =   0.40;   BMIX     =  1.00
     AMIX_MAG =   1.60;   BMIX_MAG =  1.00
     AMIN     =   0.10
     WC   =   100.;   INIMIX=   1;  MIXPRE=   1;  MAXMIX= -45

 Intra band minimization:
   WEIMIN = 0.0000     energy-eigenvalue tresh-hold
   EBREAK =  0.15E-09  absolut break condition
   DEPER  =   0.30     relativ break condition  

   TIME   =   0.40     timestep for ELM

  volume/ion in A,a.u.               =      49.64       335.01
  Fermi-wavevector in a.u.,A,eV,Ry     =   0.711510  1.344560  6.887909  0.506247
  Thomas-Fermi vector in A             =   1.798641
 
 Write flags
   LWAVE        =      T    write WAVECAR
   LDOWNSAMPLE  =      F    k-point downsampling of WAVECAR
   LCHARG       =      T    write CHGCAR
   LVTOT        =      F    write LOCPOT, total local potential
   LVHAR        =      F    write LOCPOT, Hartree potential only
   LELF         =      F    write electronic localiz. function (ELF)
   LORBIT       =      0    0 simple, 1 ext, 2 COOP (PROOUT), +10 PAW based schemes


 Dipole corrections
   LMONO  =      F    monopole corrections only (constant potential shift)
   LDIPOL =      F    correct potential (dipole corrections)
   IDIPOL =      0    1-x, 2-y, 3-z, 4-all directions 
   EPSILON=  1.0000000 bulk dielectric constant

 Exchange correlation treatment:
   GGA     =    BO    GGA type
   LEXCH   =    42    internal setting for exchange type
   VOSKOWN=      0    Vosko Wilk Nusair interpolation
   LHFCALC =     F    Hartree Fock is set to
   LHFONE  =     F    Hartree Fock one center treatment
   AEXX    =    0.0000 exact exchange contribution

 vdW DFT:
   LUSE_VDW   =     T    switch on vdW DFT
   Zab_VDW    =-.8491    correlation parameter
   PARAM1     =0.1833
   PARAM2     =0.2200
   PARAM3     =0.0000
   -- rVV10 --
   BPARAM     = 6.3000
   CPARAM     = 0.0093

 Linear response parameters
   LEPSILON=     F    determine dielectric tensor
   LRPA    =     F    only Hartree local field effects (RPA)
   LNABLA  =     F    use nabla operator in PAW spheres
   LVEL    =     F    velocity operator in full k-point grid
   LINTERFAST=   F  fast interpolation
   KINTER  =     0    interpolate to denser k-point grid
   CSHIFT  =0.1000    complex shift for real part using Kramers Kronig
   OMEGAMAX=  -1.0    maximum frequency
   DEG_THRESHOLD= 0.2000000E-02 threshold for treating states as degnerate
   RTIME   =   -0.100 relaxation time in fs
  (WPLASMAI=    0.000 imaginary part of plasma frequency in eV, 0.658/RTIME)
   DFIELD  = 0.0000000 0.0000000 0.0000000 field for delta impulse in time
 
 Orbital magnetization related:
   ORBITALMAG=     F  switch on orbital magnetization
   LCHIMAG   =     F  perturbation theory with respect to B field
   DQ        =  0.001000  dq finite difference perturbation B field
   LLRAUG    =     F  two centre corrections for induced B field



--------------------------------------------------------------------------------------------------------


 Static calculation
 charge density and potential will be updated during run
 non-spin polarized calculation
 Conjugate gradient for all bands (Freysoldt, et al. PRB 79, 241103 (2009))
 preconditioned conjugated gradient                                        
 perform sub-space diagonalisation
    before iterative eigenvector-optimisation
 modified Broyden-mixing scheme, WC =      100.0
 initial mixing is a Kerker type mixing with AMIX =  0.4000 and BMIX =      1.0000
 Hartree-type preconditioning will be used
 using additional bands           60
 reciprocal scheme for non local part
 use partial core corrections
 no Harris-corrections to forces 
 use gradient corrections 
 use of overlap-Matrix (Vanderbilt PP)
 Gauss-broadening in eV      SIGMA  =   0.01


--------------------------------------------------------------------------------------------------------


  energy-cutoff  :     1000.00
  volume of cell :     2631.08
      direct lattice vectors                 reciprocal lattice vectors
    12.325000000  0.000000000  0.000000000     0.081135903  0.046843835  0.000000000
    -6.162500000 10.673763102  0.000000000     0.000000000  0.093687670  0.000000000
     0.000000000  0.000000000 20.000000000     0.000000000  0.000000000  0.050000000

  length of vectors
    12.325000000 12.325000000 20.000000000     0.093687670  0.093687670  0.050000000


 
 k-points in units of 2pi/SCALE and weight: auto                                    
   0.00000000  0.00000000  0.00000000       1.000
 
 k-points in reciprocal lattice and weights: auto                                    
   0.00000000  0.00000000  0.00000000       1.000
 
 position of ions in fractional coordinates (direct lattice) 
   0.97245084  0.00032082  0.00070839
   0.03911838  0.13365950  0.00055022
   0.17244363  0.00029545  0.00062454
   0.23909628  0.13364792  0.00032058
   0.97245206  0.20032201  0.00060652
   0.03912836  0.33364377  0.00055519
   0.17245176  0.20035455  0.00027396
   0.23912436  0.33366572  0.00009033
   0.37246557  0.00032440  0.00056739
   0.43913747  0.13361994  0.00032292
   0.97244982  0.40030936  0.00068451
   0.03912498  0.53363679  0.00071676
   0.37241618  0.40032948  0.00000000
   0.43909960  0.53363898  0.00029052
   0.57244368  0.00031213  0.00069947
   0.63911021  0.13363175  0.00068409
   0.97245270  0.60030565  0.00080036
   0.03912449  0.73364036  0.00081814
   0.57243347  0.60030624  0.00050362
   0.63911189  0.73364188  0.00065988
   0.17245463  0.40031823  0.00036131
   0.23912018  0.53363655  0.00047314
   0.37245975  0.20029599  0.00011125
   0.43910710  0.33367342  0.00006970
   0.17245216  0.60031151  0.00065542
   0.23912337  0.73363857  0.00071891
   0.57243108  0.20028917  0.00051662
   0.63911277  0.33361863  0.00057797
   0.37243981  0.60030802  0.00045356
   0.43911609  0.73363786  0.00061774
   0.57246936  0.40032050  0.00042490
   0.63911941  0.53365087  0.00057451
   0.77244572  0.00031543  0.00074520
   0.83911628  0.13364020  0.00071913
   0.77244051  0.20030743  0.00072629
   0.83912024  0.33363573  0.00073183
   0.77244632  0.40029837  0.00072872
   0.83911898  0.53363396  0.00077638
   0.77245614  0.60030817  0.00074464
   0.83911503  0.73364318  0.00078939
   0.97245531  0.80030558  0.00081529
   0.03911471  0.93364329  0.00074756
   0.17245797  0.80031221  0.00077922
   0.23913455  0.93364719  0.00068106
   0.37245140  0.80031667  0.00068925
   0.43912449  0.93364477  0.00067679
   0.57244110  0.80031005  0.00066817
   0.63911507  0.93363899  0.00073456
   0.77244510  0.80031319  0.00075258
   0.83911661  0.93364434  0.00075854
   0.37302101  0.25122688  0.37457677
   0.42087980  0.18931315  0.37779786
   0.32515698  0.31316719  0.37160403
 
 position of ions in cartesian coordinates  (Angst):
  11.98347958  0.00342433  0.01416777
  -0.34154264  1.42664989  0.01100432
   2.12354700  0.00315355  0.01249070
   2.12325634  1.42652621  0.00641170
  10.75098721  2.13818970  0.01213047
  -1.57382270  3.56123457  0.01110375
   0.89078307  2.13853702  0.00547917
   0.89099273  3.56146885  0.00180651
   4.58863896  0.00346260  0.01134782
   4.58893648  1.42622757  0.00645846
   9.51853763  4.27280730  0.01369027
  -2.80632132  5.69591267  0.01433526
   2.12299894  4.27302204  0.00000000
   2.12335237  5.69593607  0.00581036
   7.05344483  0.00333155  0.01398950
   7.05352764  1.42635365  0.01368187
   8.28609598  6.40752033  0.01600723
  -4.03884931  7.83070339  0.01636283
   3.35585531  6.40752662  0.01007237
   3.35598594  7.83071962  0.01319763
  -0.34145776  4.27290193  0.00722612
  -0.34137895  5.69591010  0.00946273
   3.35624236  2.13791198  0.00222492
   3.35573251  3.56155103  0.00139405
  -1.57394684  6.40758280  0.01310850
  -1.57385216  7.83068434  0.01437823
   5.82093107  2.13783916  0.01033241
   5.82114012  3.56096622  0.01155939
   0.89092245  6.40754561  0.00907111
   0.89106251  7.83067670  0.01235474
   4.58870974  4.27292622  0.00849795
   4.58852320  5.69606300  0.01149026
   9.51844972  0.00336679  0.01490402
   9.51855036  1.42644387  0.01438264
   8.28593477  2.13803408  0.01452582
   8.28612680  3.56114872  0.01463668
   7.05356221  4.27268994  0.01457444
   7.05362213  5.69588251  0.01552751
   5.82112285  6.40754723  0.01489279
   5.82101669  7.83073350  0.01578780
   7.05362858  8.54227219  0.01630582
  -5.27148792  9.96548729  0.01495127
  -2.80637951  8.54234295  0.01558431
  -2.80626749  9.96552896  0.01362126
  -0.34148805  8.54239058  0.01378498
  -0.34137657  9.96550309  0.01353576
   2.12342586  8.54231992  0.01336337
   2.12354296  9.96544135  0.01469111
   4.58845581  8.54235337  0.01505154
   4.58852904  9.96549848  0.01517076
   3.04929830  2.68153618  7.49153538
   4.02070129  2.02068374  7.55595724
   2.07766701  3.34267235  7.43208051
 


--------------------------------------------------------------------------------------------------------


 k-point   1 :   0.0000 0.0000 0.0000  plane waves:  189031

 maximum and minimum number of plane-waves per node :    189031   189031

 maximum number of plane-waves:    189031
 maximum index in each direction: 
   IXMAX=   31   IYMAX=   31   IZMAX=   51
   IXMIN=  -31   IYMIN=  -31   IZMIN=  -51


 serial   3D FFT for wavefunctions
 parallel 3D FFT for charge:
    minimum data exchange during FFTs selected (reduces bandwidth)


 total amount of memory used by VASP MPI-rank0   441788. kBytes
=======================================================================

   base      :      30000. kBytes
   nonl-proj :     184518. kBytes
   fftplans  :      31725. kBytes
   grid      :     168095. kBytes
   one-center:        162. kBytes
   wavefun   :      27288. kBytes
 
     INWAV:  cpu time    0.0000: real time    0.0000
 Broyden mixing: mesh for mixing (old mesh)
   NGX = 63   NGY = 63   NGZ =103
  (NGX  =256   NGY  =256   NGZ  =420)
  gives a total of 408807 points

 initial charge density was supplied:
 charge density of overlapping atoms calculated
 number of electron     216.0000000 magnetization 
 keeping initial charge density in first step


--------------------------------------------------------------------------------------------------------


 Maximum index for augmentation-charges          459 (set IRDMAX)


--------------------------------------------------------------------------------------------------------


 First call to EWALD:  gamma=   0.128
 Maximum number of real-space cells 3x 3x 2
 Maximum number of reciprocal cells 3x 3x 4

    FEWALD:  cpu time    0.0030: real time    0.0030


--------------------------------------- Iteration      1(   1)  ---------------------------------------


vdW kernel read from vdw_kernel.bindat
  0.0000  0.2424  0.5071  0.7962  1.1119  1.4567  1.8333  2.2446  2.6937  3.1842
  3.7199  4.3049  4.9438  5.6415  6.4036  7.2358  8.1446  9.1372 10.2212 11.4050
 12.6979 14.1099 15.6519 17.3360 19.1751 21.1837 23.3773 25.7729 28.3892 31.2465
 34.3669 37.7748 41.4965 45.5611 50.0000
 
    POTLOK:  cpu time    6.3432: real time    6.3992
    SETDIJ:  cpu time    0.0913: real time    0.0917
    TRIAL :  cpu time   11.9739: real time   12.0710
    CORREC:  cpu time    0.0006: real time    0.0006
    --------------------------------------------
      LOOP:  cpu time   18.4178: real time   18.5856

 eigenvalue-minimisations  :   336
 total energy-change (2. order) : 0.2517939E+04  (-0.1170979E+05)
 number of electron     216.0000000 magnetization 
 augmentation part      216.0000000 magnetization 

 Free energy of the ion-electron system (eV)
  ---------------------------------------------------
  alpha Z        PSCENC =        59.93625244
  Ewald energy   TEWEN  =     29907.56189182
  -Hartree energ DENC   =    -36083.01706340
  -exchange      EXHF   =         0.00000000
  -V(xc)+E(xc)   XCENC  =       398.24139938
  PAW double counting   =      6564.79108649    -6260.84737255
  entropy T*S    EENTRO =        -0.00000000
  eigenvalues    EBANDS =      -529.81065068
  atomic energy  EATOM  =      8461.08393172
  ---------------------------------------------------
  free energy    TOTEN  =      2517.93947522 eV

  energy without entropy =     2517.93947522  energy(sigma->0) =     2517.93947522


--------------------------------------------------------------------------------------------------------




--------------------------------------- Iteration      1(   2)  ---------------------------------------


    TRIAL :  cpu time   18.0348: real time   18.1771
    CORREC:  cpu time    0.0001: real time    0.0001
    --------------------------------------------
      LOOP:  cpu time   18.0906: real time   18.2359

 eigenvalue-minimisations  :   560
 total energy-change (2. order) :-0.2357571E+04  (-0.2210982E+04)
 number of electron     216.0000000 magnetization 
 augmentation part      216.0000000 magnetization 

 Free energy of the ion-electron system (eV)
  ---------------------------------------------------
  alpha Z        PSCENC =        59.93625244
  Ewald energy   TEWEN  =     29907.56189182
  -Hartree energ DENC   =    -36083.01706340
  -exchange      EXHF   =         0.00000000
  -V(xc)+E(xc)   XCENC  =       398.24139938
  PAW double counting   =      6564.79108649    -6260.84737255
  entropy T*S    EENTRO =        -0.00000000
  eigenvalues    EBANDS =     -2887.38152890
  atomic energy  EATOM  =      8461.08393172
  ---------------------------------------------------
  free energy    TOTEN  =       160.36859700 eV

  energy without entropy =      160.36859700  energy(sigma->0) =      160.36859700


--------------------------------------------------------------------------------------------------------




--------------------------------------- Iteration      1(   3)  ---------------------------------------


    TRIAL :  cpu time   13.4642: real time   13.5723
    CORREC:  cpu time    0.0002: real time    0.0002
    --------------------------------------------
      LOOP:  cpu time   13.5360: real time   13.6482

 eigenvalue-minimisations  :   392
 total energy-change (2. order) :-0.5764906E+03  (-0.5735305E+03)
 number of electron     216.0000000 magnetization 
 augmentation part      216.0000000 magnetization 

 Free energy of the ion-electron system (eV)
  ---------------------------------------------------
  alpha Z        PSCENC =        59.93625244
  Ewald energy   TEWEN  =     29907.56189182
  -Hartree energ DENC   =    -36083.01706340
  -exchange      EXHF   =         0.00000000
  -V(xc)+E(xc)   XCENC  =       398.24139938
  PAW double counting   =      6564.79108649    -6260.84737255
  entropy T*S    EENTRO =        -0.00000000
  eigenvalues    EBANDS =     -3463.87214862
  atomic energy  EATOM  =      8461.08393172
  ---------------------------------------------------
  free energy    TOTEN  =      -416.12202272 eV

  energy without entropy =     -416.12202272  energy(sigma->0) =     -416.12202272


--------------------------------------------------------------------------------------------------------




--------------------------------------- Iteration      1(   4)  ---------------------------------------


    TRIAL :  cpu time   14.9523: real time   15.0908
    CORREC:  cpu time    0.0001: real time    0.0003
    --------------------------------------------
      LOOP:  cpu time   14.9989: real time   15.1612

 eigenvalue-minimisations  :   448
 total energy-change (2. order) :-0.2896913E+02  (-0.2876717E+02)
 number of electron     216.0000000 magnetization 
 augmentation part      216.0000000 magnetization 

 Free energy of the ion-electron system (eV)
  ---------------------------------------------------
  alpha Z        PSCENC =        59.93625244
  Ewald energy   TEWEN  =     29907.56189182
  -Hartree energ DENC   =    -36083.01706340
  -exchange      EXHF   =         0.00000000
  -V(xc)+E(xc)   XCENC  =       398.24139938
  PAW double counting   =      6564.79108649    -6260.84737255
  entropy T*S    EENTRO =        -0.00000000
  eigenvalues    EBANDS =     -3492.84128289
  atomic energy  EATOM  =      8461.08393172
  ---------------------------------------------------
  free energy    TOTEN  =      -445.09115698 eV

  energy without entropy =     -445.09115698  energy(sigma->0) =     -445.09115698


--------------------------------------------------------------------------------------------------------




--------------------------------------- Iteration      1(   5)  ---------------------------------------


    TRIAL :  cpu time   14.9754: real time   15.1000
    CORREC:  cpu time    0.0001: real time    0.0001
    CHARGE:  cpu time    0.6132: real time    0.6178
    --------------------------------------------
      LOOP:  cpu time   15.5922: real time   15.7879

 eigenvalue-minimisations  :   448
 total energy-change (2. order) :-0.1079894E+01  (-0.1074704E+01)
 number of electron     216.0000000 magnetization 
 augmentation part       -0.2199156 magnetization 

 Free energy of the ion-electron system (eV)
  ---------------------------------------------------
  alpha Z        PSCENC =        59.93625244
  Ewald energy   TEWEN  =     29907.56189182
  -Hartree energ DENC   =    -36083.01706340
  -exchange      EXHF   =         0.00000000
  -V(xc)+E(xc)   XCENC  =       398.24139938
  PAW double counting   =      6564.79108649    -6260.84737255
  entropy T*S    EENTRO =        -0.00000000
  eigenvalues    EBANDS =     -3493.92117719
  atomic energy  EATOM  =      8461.08393172
  ---------------------------------------------------
  free energy    TOTEN  =      -446.17105129 eV

  energy without entropy =     -446.17105129  energy(sigma->0) =     -446.17105129


--------------------------------------------------------------------------------------------------------




--------------------------------------- Iteration      1(   6)  ---------------------------------------


    POTLOK:  cpu time    6.0280: real time    6.0781
    SETDIJ:  cpu time    0.0821: real time    0.0824
    TRIAL :  cpu time    5.3615: real time    5.4300
    CORREC:  cpu time    7.2579: real time    7.3145
    CHARGE:  cpu time    0.6033: real time    0.6080
    --------------------------------------------
      LOOP:  cpu time   19.3759: real time   19.5647

 eigenvalue-minimisations  :     0
 total energy-change (2. order) : 0.5520381E+02  (-0.1767390E+02)
 number of electron     216.0000000 magnetization 
 augmentation part       -0.3317987 magnetization 

 Free energy of the ion-electron system (eV)
  ---------------------------------------------------
  alpha Z        PSCENC =        59.93625244
  Ewald energy   TEWEN  =     29907.56189182
  -Hartree energ DENC   =    -37531.68145423
  -exchange      EXHF   =         0.00000000
  -V(xc)+E(xc)   XCENC  =       448.15366204
  PAW double counting   =     71500.46660331   -71204.68814957
  entropy T*S    EENTRO =        -0.00000000
  eigenvalues    EBANDS =     -2031.79997926
  atomic energy  EATOM  =      8461.08393172
  ---------------------------------------------------
  free energy    TOTEN  =      -390.96724173 eV

  energy without entropy =     -390.96724173  energy(sigma->0) =     -390.96724173


--------------------------------------------------------------------------------------------------------




--------------------------------------- Iteration      1(   7)  ---------------------------------------


    POTLOK:  cpu time    6.0546: real time    6.0988
    SETDIJ:  cpu time    0.0517: real time    0.0518
    TRIAL :  cpu time    5.3696: real time    5.4131
    CORREC:  cpu time    7.2433: real time    7.3239
    CHARGE:  cpu time    0.6029: real time    0.6072
    --------------------------------------------
      LOOP:  cpu time   19.3610: real time   19.5347

 eigenvalue-minimisations  :     0
 total energy-change (2. order) :-0.1772075E+02  (-0.2003604E+01)
 number of electron     216.0000000 magnetization 
 augmentation part       -0.3803824 magnetization 

 Free energy of the ion-electron system (eV)
  ---------------------------------------------------
  alpha Z        PSCENC =        59.93625244
  Ewald energy   TEWEN  =     29907.56189182
  -Hartree energ DENC   =    -37008.90691688
  -exchange      EXHF   =         0.00000000
  -V(xc)+E(xc)   XCENC  =       430.16507271
  PAW double counting   =     86535.02221458   -86236.00220671
  entropy T*S    EENTRO =        -0.00000000
  eigenvalues    EBANDS =     -2557.54823464
  atomic energy  EATOM  =      8461.08393172
  ---------------------------------------------------
  free energy    TOTEN  =      -408.68799497 eV

  energy without entropy =     -408.68799497  energy(sigma->0) =     -408.68799497


--------------------------------------------------------------------------------------------------------




--------------------------------------- Iteration      1(   8)  ---------------------------------------


    POTLOK:  cpu time    6.0364: real time    6.0790
    SETDIJ:  cpu time    0.0529: real time    0.0530
    TRIAL :  cpu time    5.3629: real time    5.4059
    CORREC:  cpu time    7.2633: real time    7.3250
    CHARGE:  cpu time    0.6041: real time    0.6082
    --------------------------------------------
      LOOP:  cpu time   19.4620: real time   19.6150

 eigenvalue-minimisations  :     0
 total energy-change (2. order) :-0.2002539E+01  (-0.5713464E+00)
 number of electron     216.0000000 magnetization 
 augmentation part       -0.3953443 magnetization 

 Free energy of the ion-electron system (eV)
  ---------------------------------------------------
  alpha Z        PSCENC =        59.93625244
  Ewald energy   TEWEN  =     29907.56189182
  -Hartree energ DENC   =    -36979.85348229
  -exchange      EXHF   =         0.00000000
  -V(xc)+E(xc)   XCENC  =       429.54320029
  PAW double counting   =     90853.99781530   -90554.54170792
  entropy T*S    EENTRO =        -0.00000000
  eigenvalues    EBANDS =     -2588.41843579
  atomic energy  EATOM  =      8461.08393172
  ---------------------------------------------------
  free energy    TOTEN  =      -410.69053443 eV

  energy without entropy =     -410.69053443  energy(sigma->0) =     -410.69053443


--------------------------------------------------------------------------------------------------------




--------------------------------------- Iteration      1(   9)  ---------------------------------------


    POTLOK:  cpu time    6.0609: real time    6.1191
    SETDIJ:  cpu time    0.0472: real time    0.0475
    TRIAL :  cpu time    5.3676: real time    5.4127
    CORREC:  cpu time    7.2802: real time    7.3330
    CHARGE:  cpu time    0.6040: real time    0.6081
    --------------------------------------------
      LOOP:  cpu time   19.4137: real time   19.5746

 eigenvalue-minimisations  :     0
 total energy-change (2. order) :-0.5712791E+00  (-0.2145866E+00)
 number of electron     216.0000000 magnetization 
 augmentation part       -0.4001868 magnetization 

 Free energy of the ion-electron system (eV)
  ---------------------------------------------------
  alpha Z        PSCENC =        59.93625244
  Ewald energy   TEWEN  =     29907.56189182
  -Hartree energ DENC   =    -36992.53541481
  -exchange      EXHF   =         0.00000000
  -V(xc)+E(xc)   XCENC  =       429.65227269
  PAW double counting   =     94019.62494267   -93719.97688572
  entropy T*S    EENTRO =        -0.00000000
  eigenvalues    EBANDS =     -2576.60880438
  atomic energy  EATOM  =      8461.08393172
  ---------------------------------------------------
  free energy    TOTEN  =      -411.26181357 eV

  energy without entropy =     -411.26181357  energy(sigma->0) =     -411.26181357


--------------------------------------------------------------------------------------------------------




--------------------------------------- Iteration      1(  10)  ---------------------------------------


    POTLOK:  cpu time    6.0613: real time    6.1058
    SETDIJ:  cpu time    0.0221: real time    0.0222
    TRIAL :  cpu time    5.3640: real time    5.4077
    CORREC:  cpu time    7.2649: real time    7.3238
    CHARGE:  cpu time    0.6030: real time    0.6083
    --------------------------------------------
      LOOP:  cpu time   19.3576: real time   19.5374

 eigenvalue-minimisations  :     0
 total energy-change (2. order) :-0.2139979E+00  (-0.9460965E-01)
 number of electron     216.0000000 magnetization 
 augmentation part       -0.3972501 magnetization 

 Free energy of the ion-electron system (eV)
  ---------------------------------------------------
  alpha Z        PSCENC =        59.93625244
  Ewald energy   TEWEN  =     29907.56189182
  -Hartree energ DENC   =    -36989.97054213
  -exchange      EXHF   =         0.00000000
  -V(xc)+E(xc)   XCENC  =       429.49887895
  PAW double counting   =     94847.46879259   -94547.70538718
  entropy T*S    EENTRO =        -0.00000000
  eigenvalues    EBANDS =     -2579.34962970
  atomic energy  EATOM  =      8461.08393172
  ---------------------------------------------------
  free energy    TOTEN  =      -411.47581149 eV

  energy without entropy =     -411.47581149  energy(sigma->0) =     -411.47581149


--------------------------------------------------------------------------------------------------------




--------------------------------------- Iteration      1(  11)  ---------------------------------------


    POTLOK:  cpu time    6.0626: real time    6.1097
    SETDIJ:  cpu time    0.0501: real time    0.0503
    TRIAL :  cpu time    5.3595: real time    5.4064
    CORREC:  cpu time    7.2535: real time    7.3201
    CHARGE:  cpu time    0.6039: real time    0.6087
    --------------------------------------------
      LOOP:  cpu time   19.3767: real time   19.5523

 eigenvalue-minimisations  :     0
 total energy-change (2. order) :-0.9415922E-01  (-0.3574192E-01)
 number of electron     216.0000000 magnetization 
 augmentation part       -0.3946444 magnetization 

 Free energy of the ion-electron system (eV)
  ---------------------------------------------------
  alpha Z        PSCENC =        59.93625244
  Ewald energy   TEWEN  =     29907.56189182
  -Hartree energ DENC   =    -36981.95779449
  -exchange      EXHF   =         0.00000000
  -V(xc)+E(xc)   XCENC  =       429.37482254
  PAW double counting   =     94454.39252359   -94154.63105886
  entropy T*S    EENTRO =        -0.00000000
  eigenvalues    EBANDS =     -2587.33053947
  atomic energy  EATOM  =      8461.08393172
  ---------------------------------------------------
  free energy    TOTEN  =      -411.56997071 eV

  energy without entropy =     -411.56997071  energy(sigma->0) =     -411.56997071


--------------------------------------------------------------------------------------------------------




--------------------------------------- Iteration      1(  12)  ---------------------------------------


    POTLOK:  cpu time    6.0673: real time    6.1211
    SETDIJ:  cpu time    0.0755: real time    0.0759
    TRIAL :  cpu time    5.3532: real time    5.4058
    CORREC:  cpu time    7.2607: real time    7.3215
    CHARGE:  cpu time    0.6023: real time    0.6064
    --------------------------------------------
      LOOP:  cpu time   19.4303: real time   19.6046

 eigenvalue-minimisations  :     0
 total energy-change (2. order) :-0.3572474E-01  (-0.1067585E-01)
 number of electron     216.0000000 magnetization 
 augmentation part       -0.3942336 magnetization 

 Free energy of the ion-electron system (eV)
  ---------------------------------------------------
  alpha Z        PSCENC =        59.93625244
  Ewald energy   TEWEN  =     29907.56189182
  -Hartree energ DENC   =    -36977.98253770
  -exchange      EXHF   =         0.00000000
  -V(xc)+E(xc)   XCENC  =       429.29797120
  PAW double counting   =     94010.83461217   -93711.10363406
  entropy T*S    EENTRO =        -0.00000000
  eigenvalues    EBANDS =     -2591.23418304
  atomic energy  EATOM  =      8461.08393172
  ---------------------------------------------------
  free energy    TOTEN  =      -411.60569545 eV

  energy without entropy =     -411.60569545  energy(sigma->0) =     -411.60569545


--------------------------------------------------------------------------------------------------------




--------------------------------------- Iteration      1(  13)  ---------------------------------------


    POTLOK:  cpu time    6.0442: real time    6.0872
    SETDIJ:  cpu time    0.0539: real time    0.0541
    TRIAL :  cpu time    5.3676: real time    5.4101
    CORREC:  cpu time    7.2792: real time    7.3333
    CHARGE:  cpu time    0.6037: real time    0.6078
    --------------------------------------------
      LOOP:  cpu time   19.4501: real time   19.5955

 eigenvalue-minimisations  :     0
 total energy-change (2. order) :-0.1070104E-01  (-0.2759688E-02)
 number of electron     216.0000000 magnetization 
 augmentation part       -0.3940088 magnetization 

 Free energy of the ion-electron system (eV)
  ---------------------------------------------------
  alpha Z        PSCENC =        59.93625244
  Ewald energy   TEWEN  =     29907.56189182
  -Hartree energ DENC   =    -36977.18253115
  -exchange      EXHF   =         0.00000000
  -V(xc)+E(xc)   XCENC  =       429.26581288
  PAW double counting   =     93786.57043261   -93486.85395713
  entropy T*S    EENTRO =        -0.00000000
  eigenvalues    EBANDS =     -2591.99822968
  atomic energy  EATOM  =      8461.08393172
  ---------------------------------------------------
  free energy    TOTEN  =      -411.61639649 eV

  energy without entropy =     -411.61639649  energy(sigma->0) =     -411.61639649


--------------------------------------------------------------------------------------------------------




--------------------------------------- Iteration      1(  14)  ---------------------------------------


    POTLOK:  cpu time    6.0525: real time    6.0969
    SETDIJ:  cpu time    0.0614: real time    0.0616
    TRIAL :  cpu time    5.3681: real time    5.4126
    CORREC:  cpu time    7.2470: real time    7.3008
    CHARGE:  cpu time    0.6083: real time    0.6126
    --------------------------------------------
      LOOP:  cpu time   19.3661: real time   19.5141

 eigenvalue-minimisations  :     0
 total energy-change (2. order) :-0.2772645E-02  (-0.7079206E-03)
 number of electron     216.0000000 magnetization 
 augmentation part       -0.3939471 magnetization 

 Free energy of the ion-electron system (eV)
  ---------------------------------------------------
  alpha Z        PSCENC =        59.93625244
  Ewald energy   TEWEN  =     29907.56189182
  -Hartree energ DENC   =    -36977.02304544
  -exchange      EXHF   =         0.00000000
  -V(xc)+E(xc)   XCENC  =       429.25741297
  PAW double counting   =     93742.30395188   -93442.59337866
  entropy T*S    EENTRO =        -0.00000000
  eigenvalues    EBANDS =     -2592.14618587
  atomic energy  EATOM  =      8461.08393172
  ---------------------------------------------------
  free energy    TOTEN  =      -411.61916913 eV

  energy without entropy =     -411.61916913  energy(sigma->0) =     -411.61916913


--------------------------------------------------------------------------------------------------------




--------------------------------------- Iteration      1(  15)  ---------------------------------------


    POTLOK:  cpu time    6.0660: real time    6.1108
    SETDIJ:  cpu time    0.0298: real time    0.0299
    TRIAL :  cpu time    5.3648: real time    5.4116
    CORREC:  cpu time    7.2755: real time    7.3309
    CHARGE:  cpu time    0.6038: real time    0.6080
    --------------------------------------------
      LOOP:  cpu time   19.3878: real time   19.5546

 eigenvalue-minimisations  :     0
 total energy-change (2. order) :-0.7137206E-03  (-0.2107388E-03)
 number of electron     216.0000000 magnetization 
 augmentation part       -0.3938820 magnetization 

 Free energy of the ion-electron system (eV)
  ---------------------------------------------------
  alpha Z        PSCENC =        59.93625244
  Ewald energy   TEWEN  =     29907.56189182
  -Hartree energ DENC   =    -36976.82938779
  -exchange      EXHF   =         0.00000000
  -V(xc)+E(xc)   XCENC  =       429.24793850
  PAW double counting   =     93740.27023334   -93440.56015519
  entropy T*S    EENTRO =        -0.00000000
  eigenvalues    EBANDS =     -2592.33058770
  atomic energy  EATOM  =      8461.08393172
  ---------------------------------------------------
  free energy    TOTEN  =      -411.61988285 eV

  energy without entropy =     -411.61988285  energy(sigma->0) =     -411.61988285


--------------------------------------------------------------------------------------------------------




--------------------------------------- Iteration      1(  16)  ---------------------------------------


    POTLOK:  cpu time    6.0387: real time    6.0954
    SETDIJ:  cpu time    0.0414: real time    0.0415
    TRIAL :  cpu time    5.3601: real time    5.4057
    CORREC:  cpu time    7.2738: real time    7.3280
    CHARGE:  cpu time    0.6040: real time    0.6081
    --------------------------------------------
      LOOP:  cpu time   19.3481: real time   19.5559

 eigenvalue-minimisations  :     0
 total energy-change (2. order) :-0.2144260E-03  (-0.7180052E-04)
 number of electron     216.0000000 magnetization 
 augmentation part       -0.3938098 magnetization 

 Free energy of the ion-electron system (eV)
  ---------------------------------------------------
  alpha Z        PSCENC =        59.93625244
  Ewald energy   TEWEN  =     29907.56189182
  -Hartree energ DENC   =    -36976.92156458
  -exchange      EXHF   =         0.00000000
  -V(xc)+E(xc)   XCENC  =       429.24961552
  PAW double counting   =     93721.78226705   -93422.07257845
  entropy T*S    EENTRO =        -0.00000000
  eigenvalues    EBANDS =     -2592.23991280
  atomic energy  EATOM  =      8461.08393172
  ---------------------------------------------------
  free energy    TOTEN  =      -411.62009728 eV

  energy without entropy =     -411.62009728  energy(sigma->0) =     -411.62009728


--------------------------------------------------------------------------------------------------------




--------------------------------------- Iteration      1(  17)  ---------------------------------------


    POTLOK:  cpu time    6.0581: real time    6.1009
    SETDIJ:  cpu time    0.1001: real time    0.1004
    TRIAL :  cpu time    5.3653: real time    5.4086
    CORREC:  cpu time    7.2924: real time    7.3454
    CHARGE:  cpu time    0.6032: real time    0.6073
    --------------------------------------------
      LOOP:  cpu time   19.4455: real time   19.5912

 eigenvalue-minimisations  :     0
 total energy-change (2. order) :-0.7401127E-04  (-0.2654283E-04)
 number of electron     216.0000000 magnetization 
 augmentation part       -0.3938204 magnetization 

 Free energy of the ion-electron system (eV)
  ---------------------------------------------------
  alpha Z        PSCENC =        59.93625244
  Ewald energy   TEWEN  =     29907.56189182
  -Hartree energ DENC   =    -36977.06518629
  -exchange      EXHF   =         0.00000000
  -V(xc)+E(xc)   XCENC  =       429.25450632
  PAW double counting   =     93704.83501650   -93405.12570647
  entropy T*S    EENTRO =        -0.00000000
  eigenvalues    EBANDS =     -2592.10087734
  atomic energy  EATOM  =      8461.08393172
  ---------------------------------------------------
  free energy    TOTEN  =      -411.62017129 eV

  energy without entropy =     -411.62017129  energy(sigma->0) =     -411.62017129


--------------------------------------------------------------------------------------------------------




--------------------------------------- Iteration      1(  18)  ---------------------------------------


    POTLOK:  cpu time    6.0607: real time    6.1056
    SETDIJ:  cpu time    0.0472: real time    0.0473
    TRIAL :  cpu time    5.3755: real time    5.4207
    CORREC:  cpu time    7.2516: real time    7.3118
    CHARGE:  cpu time    0.6017: real time    0.6060
    --------------------------------------------
      LOOP:  cpu time   19.4228: real time   19.5935

 eigenvalue-minimisations  :     0
 total energy-change (2. order) :-0.2807903E-04  (-0.9985559E-05)
 number of electron     216.0000000 magnetization 
 augmentation part       -0.3938405 magnetization 

 Free energy of the ion-electron system (eV)
  ---------------------------------------------------
  alpha Z        PSCENC =        59.93625244
  Ewald energy   TEWEN  =     29907.56189182
  -Hartree energ DENC   =    -36977.08081241
  -exchange      EXHF   =         0.00000000
  -V(xc)+E(xc)   XCENC  =       429.25452569
  PAW double counting   =     93701.78722494   -93402.07735122
  entropy T*S    EENTRO =        -0.00000000
  eigenvalues    EBANDS =     -2592.08586235
  atomic energy  EATOM  =      8461.08393172
  ---------------------------------------------------
  free energy    TOTEN  =      -411.62019937 eV

  energy without entropy =     -411.62019937  energy(sigma->0) =     -411.62019937


--------------------------------------------------------------------------------------------------------




--------------------------------------- Iteration      1(  19)  ---------------------------------------


    POTLOK:  cpu time    6.0451: real time    6.0962
    SETDIJ:  cpu time    0.0375: real time    0.0376
    TRIAL :  cpu time    5.3647: real time    5.4156
    CORREC:  cpu time    7.2443: real time    7.3038
    CHARGE:  cpu time    0.6032: real time    0.6074
    --------------------------------------------
      LOOP:  cpu time   19.2976: real time   19.5118

 eigenvalue-minimisations  :     0
 total energy-change (2. order) :-0.1059007E-04  (-0.4379777E-05)
 number of electron     216.0000000 magnetization 
 augmentation part       -0.3938654 magnetization 

 Free energy of the ion-electron system (eV)
  ---------------------------------------------------
  alpha Z        PSCENC =        59.93625244
  Ewald energy   TEWEN  =     29907.56189182
  -Hartree energ DENC   =    -36977.10973226
  -exchange      EXHF   =         0.00000000
  -V(xc)+E(xc)   XCENC  =       429.25558886
  PAW double counting   =     93706.63506735   -93406.92495702
  entropy T*S    EENTRO =        -0.00000000
  eigenvalues    EBANDS =     -2592.05825288
  atomic energy  EATOM  =      8461.08393172
  ---------------------------------------------------
  free energy    TOTEN  =      -411.62020996 eV

  energy without entropy =     -411.62020996  energy(sigma->0) =     -411.62020996


--------------------------------------------------------------------------------------------------------




--------------------------------------- Iteration      1(  20)  ---------------------------------------


    POTLOK:  cpu time    6.0814: real time    6.1263
    SETDIJ:  cpu time    0.0061: real time    0.0061
    TRIAL :  cpu time    5.3632: real time    5.4084
    CORREC:  cpu time    7.2819: real time    7.3362
    CHARGE:  cpu time    0.6035: real time    0.6076
    --------------------------------------------
      LOOP:  cpu time   19.4073: real time   19.5610

 eigenvalue-minimisations  :     0
 total energy-change (2. order) :-0.4597328E-05  (-0.1518918E-05)
 number of electron     216.0000000 magnetization 
 augmentation part       -0.3938774 magnetization 

 Free energy of the ion-electron system (eV)
  ---------------------------------------------------
  alpha Z        PSCENC =        59.93625244
  Ewald energy   TEWEN  =     29907.56189182
  -Hartree energ DENC   =    -36977.13363297
  -exchange      EXHF   =         0.00000000
  -V(xc)+E(xc)   XCENC  =       429.25630243
  PAW double counting   =     93712.61536065   -93412.90510056
  entropy T*S    EENTRO =        -0.00000000
  eigenvalues    EBANDS =     -2592.03522010
  atomic energy  EATOM  =      8461.08393172
  ---------------------------------------------------
  free energy    TOTEN  =      -411.62021456 eV

  energy without entropy =     -411.62021456  energy(sigma->0) =     -411.62021456


--------------------------------------------------------------------------------------------------------




--------------------------------------- Iteration      1(  21)  ---------------------------------------


    POTLOK:  cpu time    6.0578: real time    6.1022
    SETDIJ:  cpu time    0.0442: real time    0.0444
    TRIAL :  cpu time    5.3427: real time    5.4062
    CORREC:  cpu time    7.2858: real time    7.3432
    CHARGE:  cpu time    0.6033: real time    0.6076
    --------------------------------------------
      LOOP:  cpu time   19.3782: real time   19.5508

 eigenvalue-minimisations  :     0
 total energy-change (2. order) :-0.1569410E-05  (-0.7718709E-06)
 number of electron     216.0000000 magnetization 
 augmentation part       -0.3938720 magnetization 

 Free energy of the ion-electron system (eV)
  ---------------------------------------------------
  alpha Z        PSCENC =        59.93625244
  Ewald energy   TEWEN  =     29907.56189182
  -Hartree energ DENC   =    -36977.13287751
  -exchange      EXHF   =         0.00000000
  -V(xc)+E(xc)   XCENC  =       429.25609253
  PAW double counting   =     93715.19784306   -93415.48749704
  entropy T*S    EENTRO =        -0.00000000
  eigenvalues    EBANDS =     -2592.03585316
  atomic energy  EATOM  =      8461.08393172
  ---------------------------------------------------
  free energy    TOTEN  =      -411.62021613 eV

  energy without entropy =     -411.62021613  energy(sigma->0) =     -411.62021613


--------------------------------------------------------------------------------------------------------




--------------------------------------- Iteration      1(  22)  ---------------------------------------


    POTLOK:  cpu time    6.0353: real time    6.0802
    SETDIJ:  cpu time    0.0731: real time    0.0734
    TRIAL :  cpu time    5.3648: real time    5.4113
    CORREC:  cpu time    7.2757: real time    7.3391
    CHARGE:  cpu time    0.6030: real time    0.6072
    --------------------------------------------
      LOOP:  cpu time   19.4318: real time   19.6079

 eigenvalue-minimisations  :     0
 total energy-change (2. order) :-0.7202907E-06  (-0.6282262E-06)
 number of electron     216.0000000 magnetization 
 augmentation part       -0.3938665 magnetization 

 Free energy of the ion-electron system (eV)
  ---------------------------------------------------
  alpha Z        PSCENC =        59.93625244
  Ewald energy   TEWEN  =     29907.56189182
  -Hartree energ DENC   =    -36977.13481439
  -exchange      EXHF   =         0.00000000
  -V(xc)+E(xc)   XCENC  =       429.25611389
  PAW double counting   =     93715.30184497   -93415.59157235
  entropy T*S    EENTRO =        -0.00000000
  eigenvalues    EBANDS =     -2592.03386496
  atomic energy  EATOM  =      8461.08393172
  ---------------------------------------------------
  free energy    TOTEN  =      -411.62021685 eV

  energy without entropy =     -411.62021685  energy(sigma->0) =     -411.62021685


--------------------------------------------------------------------------------------------------------




--------------------------------------- Iteration      1(  23)  ---------------------------------------


    POTLOK:  cpu time    6.0493: real time    6.1019
    SETDIJ:  cpu time    0.0496: real time    0.0498
    TRIAL :  cpu time    5.3626: real time    5.4091
    CORREC:  cpu time    7.2475: real time    7.3047
    CHARGE:  cpu time    0.6032: real time    0.6076
    --------------------------------------------
      LOOP:  cpu time   19.3560: real time   19.5242

 eigenvalue-minimisations  :     0
 total energy-change (2. order) :-0.1512526E-06  (-0.3475282E-06)
 number of electron     216.0000000 magnetization 
 augmentation part       -0.3938689 magnetization 

 Free energy of the ion-electron system (eV)
  ---------------------------------------------------
  alpha Z        PSCENC =        59.93625244
  Ewald energy   TEWEN  =     29907.56189182
  -Hartree energ DENC   =    -36977.12902811
  -exchange      EXHF   =         0.00000000
  -V(xc)+E(xc)   XCENC  =       429.25580591
  PAW double counting   =     93713.57017449   -93413.85997208
  entropy T*S    EENTRO =        -0.00000000
  eigenvalues    EBANDS =     -2592.03927320
  atomic energy  EATOM  =      8461.08393172
  ---------------------------------------------------
  free energy    TOTEN  =      -411.62021700 eV

  energy without entropy =     -411.62021700  energy(sigma->0) =     -411.62021700


--------------------------------------------------------------------------------------------------------




--------------------------------------- Iteration      1(  24)  ---------------------------------------


    POTLOK:  cpu time    6.0496: real time    6.1062
    SETDIJ:  cpu time    0.0258: real time    0.0259
    TRIAL :  cpu time    5.3586: real time    5.4096
    CORREC:  cpu time    7.2461: real time    7.2990
    CHARGE:  cpu time    0.6027: real time    0.6068
    --------------------------------------------
      LOOP:  cpu time   19.2857: real time   19.5490

 eigenvalue-minimisations  :     0
 total energy-change (2. order) :-0.3253517E-06  (-0.7617153E-07)
 number of electron     216.0000000 magnetization 
 augmentation part       -0.3938729 magnetization 

 Free energy of the ion-electron system (eV)
  ---------------------------------------------------
  alpha Z        PSCENC =        59.93625244
  Ewald energy   TEWEN  =     29907.56189182
  -Hartree energ DENC   =    -36977.12867313
  -exchange      EXHF   =         0.00000000
  -V(xc)+E(xc)   XCENC  =       429.25592667
  PAW double counting   =     93713.81753733   -93414.10733340
  entropy T*S    EENTRO =        -0.00000000
  eigenvalues    EBANDS =     -2592.03975077
  atomic energy  EATOM  =      8461.08393172
  ---------------------------------------------------
  free energy    TOTEN  =      -411.62021732 eV

  energy without entropy =     -411.62021732  energy(sigma->0) =     -411.62021732


--------------------------------------------------------------------------------------------------------




--------------------------------------- Iteration      1(  25)  ---------------------------------------


    POTLOK:  cpu time    6.0472: real time    6.0908
    SETDIJ:  cpu time    0.0327: real time    0.0328
    TRIAL :  cpu time    5.3584: real time    5.4033
    CORREC:  cpu time   29.1104: real time   29.3302
    CHARGE:  cpu time    0.6037: real time    0.6079
    --------------------------------------------
      LOOP:  cpu time   41.2641: real time   41.5798

 eigenvalue-minimisations  :     0
 total energy-change (2. order) :-0.6833579E-07  (-0.2413766E-06)
 number of electron     216.0000000 magnetization 
 augmentation part       -0.3938871 magnetization 

 Free energy of the ion-electron system (eV)
  ---------------------------------------------------
  alpha Z        PSCENC =        59.93625244
  Ewald energy   TEWEN  =     29907.56189182
  -Hartree energ DENC   =    -36977.12713904
  -exchange      EXHF   =         0.00000000
  -V(xc)+E(xc)   XCENC  =       429.25587247
  PAW double counting   =     93713.87072672   -93414.16048685
  entropy T*S    EENTRO =        -0.00000000
  eigenvalues    EBANDS =     -2592.04126668
  atomic energy  EATOM  =      8461.08393172
  ---------------------------------------------------
  free energy    TOTEN  =      -411.62021739 eV

  energy without entropy =     -411.62021739  energy(sigma->0) =     -411.62021739


--------------------------------------------------------------------------------------------------------




--------------------------------------- Iteration      1(  26)  ---------------------------------------


    POTLOK:  cpu time    6.0604: real time    6.1079
    SETDIJ:  cpu time    0.0323: real time    0.0324
    TRIAL :  cpu time    5.3469: real time    5.4067
    CORREC:  cpu time    7.2151: real time    7.3070
    CHARGE:  cpu time    0.6029: real time    0.6070
    --------------------------------------------
      LOOP:  cpu time   19.3040: real time   19.5194

 eigenvalue-minimisations  :     0
 total energy-change (2. order) : 0.5360198E-06  (-0.5572169E-06)
 number of electron     216.0000000 magnetization 
 augmentation part       -0.3938810 magnetization 

 Free energy of the ion-electron system (eV)
  ---------------------------------------------------
  alpha Z        PSCENC =        59.93625244
  Ewald energy   TEWEN  =     29907.56189182
  -Hartree energ DENC   =    -36977.12553737
  -exchange      EXHF   =         0.00000000
  -V(xc)+E(xc)   XCENC  =       429.25589881
  PAW double counting   =     93713.43857394   -93413.72821796
  entropy T*S    EENTRO =        -0.00000000
  eigenvalues    EBANDS =     -2592.04301025
  atomic energy  EATOM  =      8461.08393172
  ---------------------------------------------------
  free energy    TOTEN  =      -411.62021686 eV

  energy without entropy =     -411.62021686  energy(sigma->0) =     -411.62021686


--------------------------------------------------------------------------------------------------------




--------------------------------------- Iteration      1(  27)  ---------------------------------------


    POTLOK:  cpu time    6.0587: real time    6.1020
    SETDIJ:  cpu time    0.0626: real time    0.0628
    TRIAL :  cpu time    5.3685: real time    5.4115
    CORREC:  cpu time    7.2911: real time    7.3440
    CHARGE:  cpu time    0.6030: real time    0.6073
    --------------------------------------------
      LOOP:  cpu time   19.4287: real time   19.5727

 eigenvalue-minimisations  :     0
 total energy-change (2. order) :-0.4989124E-06  (-0.1274661E-06)
 number of electron     216.0000000 magnetization 
 augmentation part       -0.3938782 magnetization 

 Free energy of the ion-electron system (eV)
[...]
      9     -21.1888      2.00000
     10     -19.3588      2.00000
     11     -19.3587      2.00000
     12     -19.3585      2.00000
     13     -19.3578      2.00000
     14     -19.3574      2.00000
     15     -19.3572      2.00000
     16     -18.4680      2.00000
     17     -18.4678      2.00000
     18     -18.4674      2.00000
     19     -18.4671      2.00000
     20     -18.4664      2.00000
     21     -18.4662      2.00000
     22     -16.3250      2.00000
     23     -16.3247      2.00000
     24     -16.3239      2.00000
     25     -16.3237      2.00000
     26     -16.3233      2.00000
     27     -16.3232      2.00000
     28     -15.3314      2.00000
     29     -15.3314      2.00000
     30     -15.3304      2.00000
     31     -15.3303      2.00000
     32     -15.3299      2.00000
     33     -15.3298      2.00000
     34     -13.9931      2.00000
     35     -13.9929      2.00000
     36     -13.9923      2.00000
     37     -13.9922      2.00000
     38     -13.9921      2.00000
     39     -13.9918      2.00000
     40     -12.2671      2.00000
     41     -11.6399      2.00000
     42     -11.6397      2.00000
     43     -11.6392      2.00000
     44     -11.6392      2.00000
     45     -11.6381      2.00000
     46     -11.6378      2.00000
     47     -11.5288      2.00000
     48     -11.5287      2.00000
     49     -11.5280      2.00000
     50     -11.5280      2.00000
     51     -11.5278      2.00000
     52     -11.5277      2.00000
     53     -11.1248      2.00000
     54     -11.0320      2.00000
     55     -11.0318      2.00000
     56     -10.2872      2.00000
     57     -10.1650      2.00000
     58     -10.1648      2.00000
     59     -10.1632      2.00000
     60     -10.1629      2.00000
     61     -10.1627      2.00000
     62     -10.1626      2.00000
     63      -9.1728      2.00000
     64      -9.1720      2.00000
     65      -9.1719      2.00000
     66      -9.1712      2.00000
     67      -9.1711      2.00000
     68      -9.1710      2.00000
     69      -8.9244      2.00000
     70      -8.9235      2.00000
     71      -8.9230      2.00000
     72      -8.9230      2.00000
     73      -8.9226      2.00000
     74      -8.9224      2.00000
     75      -8.8649      2.00000
     76      -8.8647      2.00000
     77      -8.8640      2.00000
     78      -8.8639      2.00000
     79      -8.8637      2.00000
     80      -8.8629      2.00000
     81      -7.5080      2.00000
     82      -7.5078      2.00000
     83      -7.2879      2.00000
     84      -7.2862      2.00000
     85      -7.2861      2.00000
     86      -7.2857      2.00000
     87      -7.2848      2.00000
     88      -7.2847      2.00000
     89      -7.0464      2.00000
     90      -7.0461      2.00000
     91      -7.0460      2.00000
     92      -7.0456      2.00000
     93      -7.0453      2.00000
     94      -7.0450      2.00000
     95      -6.1518      2.00000
     96      -6.1516      2.00000
     97      -6.1513      2.00000
     98      -6.1511      2.00000
     99      -6.1506      2.00000
    100      -6.1504      2.00000
    101      -5.8260      2.00000
    102      -5.8238      2.00000
    103      -4.1738      2.00000
    104      -4.1734      2.00000
    105      -4.1729      2.00000
    106      -4.1729      2.00000
    107      -4.1723      2.00000
    108      -4.1721      2.00000
    109      -1.3780      0.00000
    110      -1.3777      0.00000
    111      -1.3774      0.00000
    112      -1.3772      0.00000
    113      -1.3766      0.00000
    114      -1.3763      0.00000
    115      -0.2807      0.00000
    116       0.3110      0.00000
    117       0.4794      0.00000
    118       0.4797      0.00000
    119       0.4801      0.00000
    120       0.4802      0.00000
    121       0.4804      0.00000
    122       0.4818      0.00000
    123       0.5006      0.00000
    124       0.7668      0.00000
    125       0.8895      0.00000
    126       0.9391      0.00000
    127       0.9400      0.00000
    128       1.0496      0.00000
    129       1.2280      0.00000
    130       1.3366      0.00000
    131       1.4211      0.00000
    132       1.5220      0.00000
    133       1.5985      0.00000
    134       1.6273      0.00000
    135       1.6414      0.00000
    136       1.6650      0.00000
    137       1.7437      0.00000
    138       1.7961      0.00000
    139       1.9042      0.00000
    140       2.1880      0.00000
    141       2.1984      0.00000
    142       2.2100      0.00000
    143       2.2102      0.00000
    144       2.2105      0.00000
    145       2.2109      0.00000
    146       2.2110      0.00000
    147       2.2115      0.00000
    148       2.2217      0.00000
    149       2.2451      0.00000
    150       2.2783      0.00000
    151       2.2972      0.00000
    152       2.8231      0.00000
    153       2.9919      0.00000
    154       3.0944      0.00000
    155       3.1880      0.00000
    156       3.2973      0.00000
    157       3.3923      0.00000
    158       3.6137      0.00000
    159       3.6451      0.00000
    160       3.7079      0.00000
    161       3.8953      0.00000
    162       4.0667      0.00000
    163       4.7058      0.00000
    164       4.8793      0.00000
    165       4.9040      0.00000
    166       4.9059      0.00000
    167       4.9075      0.00000
    168       4.9114      0.00000


--------------------------------------------------------------------------------------------------------


 soft charge-density along one line, spin component           1
         0         1         2         3         4         5         6         7         8         9
 total charge-density along one line
 
 pseudopotential strength for first ion, spin component:           1
 12.674  21.329   0.000   0.000   0.000   0.000   0.000   0.000
 21.329  35.891   0.000   0.000   0.000   0.000   0.000   0.000
  0.000   0.000  -3.238  -0.000   0.000  -5.804  -0.000   0.000
  0.000   0.000  -0.000  -3.246  -0.000  -0.000  -5.818  -0.000
  0.000   0.000   0.000  -0.000  -3.238   0.000  -0.000  -5.804
  0.000   0.000  -5.804  -0.000   0.000 -10.380  -0.000   0.000
  0.000   0.000  -0.000  -5.818  -0.000  -0.000 -10.405  -0.000
  0.000   0.000   0.000  -0.000  -5.804   0.000  -0.000 -10.380
 total augmentation occupancy for first ion, spin component:           1
  6.917  -2.317  -0.000  -0.002  -0.000   0.000   0.001   0.000
 -2.317   0.818   0.000   0.001   0.000  -0.000  -0.000  -0.000
 -0.000   0.000   6.628  -0.007   0.000  -2.167   0.003  -0.000
 -0.002   0.001  -0.007   2.819  -0.000   0.003  -0.689   0.000
 -0.000   0.000   0.000  -0.000   6.627  -0.000   0.000  -2.167
  0.000  -0.000  -2.167   0.003  -0.000   0.725  -0.001   0.000
  0.001  -0.000   0.003  -0.689   0.000  -0.001   0.176  -0.000
  0.000  -0.000  -0.000   0.000  -2.167   0.000  -0.000   0.724


------------------------ aborting loop because EDIFF is reached ----------------------------------------


    FORLOC:  cpu time    0.1053: real time    0.1061
    FORNL :  cpu time    2.9177: real time    2.9425
    FORCOR:  cpu time    6.1619: real time    6.2051
    OFIELD:  cpu time    0.0023: real time    0.0023

 VOLUME and BASIS-vectors are now :
 -----------------------------------------------------------------------------
  energy-cutoff  :     1000.00
  volume of cell :     2631.08
      direct lattice vectors                 reciprocal lattice vectors
    12.325000000  0.000000000  0.000000000     0.081135903  0.046843835  0.000000000
    -6.162500000 10.673763102  0.000000000     0.000000000  0.093687670  0.000000000
     0.000000000  0.000000000 20.000000000     0.000000000  0.000000000  0.050000000

  length of vectors
    12.325000000 12.325000000 20.000000000     0.093687670  0.093687670  0.050000000


 FORCES acting on ions:
    Electron-Ion                     Ewald-Force                    Non-Local-Force
 -----------------------------------------------------------------------------------------------
   0.114E+01 0.995E+00 0.101E+02   -.114E+01 -.996E+00 -.102E+02   0.488E-02 -.698E-03 0.625E-02
   0.157E+01 0.815E+00 0.114E+02   -.157E+01 -.812E+00 -.114E+02   0.355E-02 -.314E-02 -.562E-02
   0.635E+00 0.173E+01 0.116E+02   -.636E+00 -.173E+01 -.116E+02   -.272E-03 0.119E-01 -.730E-03
   0.797E+00 0.116E+01 0.143E+02   -.796E+00 -.115E+01 -.143E+02   0.120E-01 0.867E-03 -.148E-01
   0.124E+01 0.311E+00 0.106E+02   -.124E+01 -.312E+00 -.106E+02   -.180E-03 -.549E-02 0.358E-02
   0.126E+01 -.277E+00 0.107E+02   -.127E+01 0.278E+00 -.107E+02   -.618E-02 0.323E-02 -.266E-02
   0.154E+01 0.614E+00 0.141E+02   -.154E+01 -.614E+00 -.141E+02   0.123E-01 -.192E-01 -.622E-02
   0.154E+01 -.518E+00 0.153E+02   -.154E+01 0.521E+00 -.153E+02   -.634E-02 -.566E-02 -.572E-02
   -.767E+00 0.163E+01 0.120E+02   0.771E+00 -.164E+01 -.120E+02   -.485E-03 -.123E-01 -.484E-02
   -.103E+01 0.886E+00 0.145E+02   0.103E+01 -.888E+00 -.145E+02   -.261E-01 0.151E-01 0.250E-02
   0.326E+00 -.342E+00 0.967E+01   -.323E+00 0.342E+00 -.967E+01   0.362E-02 -.272E-02 0.252E-03
   0.311E+00 -.261E+00 0.940E+01   -.310E+00 0.261E+00 -.941E+01   -.686E-02 0.337E-02 0.627E-02
   0.515E+00 -.123E+01 0.162E+02   -.516E+00 0.123E+01 -.162E+02   0.268E-01 -.797E-02 -.228E-02
   0.320E+00 -.180E+01 0.131E+02   -.325E+00 0.181E+01 -.131E+02   0.405E-02 0.621E-02 -.161E-01
   -.115E+01 0.694E+00 0.101E+02   0.115E+01 -.695E+00 -.101E+02   0.719E-02 -.377E-02 0.769E-02
   -.148E+01 0.425E+00 0.105E+02   0.148E+01 -.426E+00 -.105E+02   -.196E-02 0.534E-02 -.471E-02
   -.212E+00 -.849E-01 0.898E+01   0.216E+00 0.830E-01 -.898E+01   -.460E-03 0.441E-03 0.209E-02
   0.942E-01 0.725E+00 0.913E+01   -.934E-01 -.726E+00 -.914E+01   -.306E-02 0.171E-02 0.940E-02
   -.296E+00 -.174E+01 0.115E+02   0.295E+00 0.174E+01 -.115E+02   0.620E-02 -.193E-02 0.451E-03
   -.174E+00 -.106E+01 0.988E+01   0.171E+00 0.106E+01 -.988E+01   0.177E-03 -.120E-02 -.635E-03
   0.161E+01 -.697E+00 0.123E+02   -.161E+01 0.698E+00 -.123E+02   -.135E-02 -.243E-02 -.166E-01
   0.114E+01 -.920E+00 0.112E+02   -.115E+01 0.921E+00 -.112E+02   -.659E-02 0.517E-02 -.189E-02
   -.277E+00 0.495E+00 0.163E+02   0.274E+00 -.494E+00 -.163E+02   -.104E-01 0.105E-01 0.101E-02
   -.386E+00 -.784E+00 0.163E+02   0.388E+00 0.783E+00 -.162E+02   0.122E-01 -.149E-01 -.107E-01
   0.625E+00 -.228E+00 0.975E+01   -.623E+00 0.227E+00 -.975E+01   0.351E-02 -.258E-02 -.300E-02
   0.173E+00 0.538E+00 0.962E+01   -.173E+00 -.538E+00 -.963E+01   -.523E-02 0.348E-02 0.590E-02
   -.178E+01 0.204E+00 0.125E+02   0.178E+01 -.207E+00 -.125E+02   0.112E-01 0.796E-02 -.218E-02
   -.167E+01 -.679E+00 0.119E+02   0.168E+01 0.679E+00 -.119E+02   -.898E-02 0.910E-02 0.949E-03
   0.638E+00 -.131E+01 0.114E+02   -.638E+00 0.131E+01 -.114E+02   0.459E-02 0.202E-02 -.658E-02
   0.558E-01 -.577E+00 0.101E+02   -.582E-01 0.579E+00 -.101E+02   -.462E-02 0.229E-02 -.201E-02
   -.119E+01 -.121E+01 0.131E+02   0.119E+01 0.121E+01 -.131E+02   -.120E-01 -.800E-02 -.128E-01
   -.873E+00 -.165E+01 0.114E+02   0.874E+00 0.165E+01 -.114E+02   0.669E-03 -.141E-02 0.215E-02
   0.730E-01 0.353E+00 0.929E+01   -.732E-01 -.353E+00 -.929E+01   0.513E-02 -.463E-02 0.738E-02
   0.207E+00 0.321E+00 0.954E+01   -.210E+00 -.320E+00 -.954E+01   -.220E-02 0.452E-02 -.895E-03
   -.783E+00 0.144E+00 0.979E+01   0.786E+00 -.145E+00 -.979E+01   0.396E-02 -.235E-02 0.631E-02
   -.694E+00 -.317E+00 0.970E+01   0.694E+00 0.317E+00 -.970E+01   -.412E-02 0.237E-02 0.407E-02
   -.131E+01 -.706E+00 0.101E+02   0.132E+01 0.704E+00 -.101E+02   -.125E-02 0.972E-03 0.353E-02
   -.873E+00 -.698E+00 0.951E+01   0.874E+00 0.699E+00 -.952E+01   -.407E-02 0.127E-02 0.912E-02
   -.792E+00 -.100E+01 0.978E+01   0.793E+00 0.101E+01 -.978E+01   -.308E-02 0.180E-03 0.478E-02
   -.118E+00 -.278E+00 0.926E+01   0.119E+00 0.278E+00 -.926E+01   0.192E-02 0.521E-03 0.737E-02
   0.300E+00 0.752E+00 0.926E+01   -.301E+00 -.753E+00 -.927E+01   -.399E-02 0.181E-02 0.693E-02
   0.904E+00 0.138E+01 0.102E+02   -.903E+00 -.138E+01 -.102E+02   -.451E-03 -.751E-03 0.772E-02
   0.994E-01 0.124E+01 0.957E+01   -.959E-01 -.124E+01 -.958E+01   -.372E-03 0.952E-03 0.238E-02
   -.898E-02 0.180E+01 0.111E+02   0.102E-01 -.180E+01 -.111E+02   -.821E-02 0.206E-02 0.541E-02
   -.239E+00 0.444E+00 0.985E+01   0.241E+00 -.446E+00 -.985E+01   0.396E-02 -.289E-02 0.176E-02
   -.865E+00 0.108E+01 0.105E+02   0.866E+00 -.108E+01 -.105E+02   -.621E-02 0.396E-03 -.111E-02
   -.242E+00 -.547E+00 0.974E+01   0.242E+00 0.547E+00 -.974E+01   0.627E-02 -.137E-02 0.619E-02
   -.495E+00 0.175E+00 0.930E+01   0.494E+00 -.174E+00 -.930E+01   -.351E-02 0.320E-02 -.281E-02
   0.501E-01 -.336E+00 0.930E+01   -.506E-01 0.337E+00 -.930E+01   0.430E-02 -.316E-02 0.580E-02
   0.536E+00 0.383E+00 0.928E+01   -.539E+00 -.381E+00 -.928E+01   -.241E-04 0.162E-02 0.335E-02
   0.888E-04 0.246E-01 -.138E+03   -.413E-02 -.210E-01 0.138E+03   -.284E-02 0.193E-02 -.705E-03
   -.229E+03 0.156E+03 -.218E+03   0.279E+03 -.190E+03 0.221E+03   -.513E+02 0.349E+02 -.345E+01
   0.229E+03 -.156E+03 -.198E+03   -.279E+03 0.190E+03 0.195E+03   0.513E+02 -.349E+02 0.310E+01
 -----------------------------------------------------------------------------------------------
   -.735E-02 0.138E-01 0.345E+00   0.568E-13 0.284E-13 0.853E-13   0.729E-02 -.138E-01 -.344E+00
 
 
 POSITION                                       TOTAL-FORCE (eV/Angst)
 -----------------------------------------------------------------------------------
     11.98348      0.00342      0.01417         0.003158     -0.001694     -0.000985
     -0.34154      1.42665      0.01100        -0.000836      0.000053     -0.003364
      2.12355      0.00315      0.01249        -0.001847      0.010728     -0.006376
      2.12326      1.42653      0.00641         0.013516      0.001239     -0.008254
     10.75099      2.13819      0.01213         0.000411     -0.005627      0.000024
     -1.57382      3.56123      0.01110        -0.008949      0.004687     -0.001347
      0.89078      2.13854      0.00548         0.009557     -0.019068      0.002380
      0.89099      3.56147      0.00181        -0.011852     -0.002353      0.011887
      4.58864      0.00346      0.01135         0.003710     -0.015774     -0.003617
      4.58894      1.42623      0.00646        -0.023402      0.013215      0.013712
      9.51854      4.27281      0.01369         0.006561     -0.003049      0.000078
     -2.80632      5.69591      0.01434        -0.006491      0.003347      0.000668
      2.12300      4.27302      0.00000         0.024985     -0.004970      0.020486
      2.12335      5.69594      0.00581        -0.000689      0.009132     -0.002672
      7.05344      0.00333      0.01399         0.009282     -0.005255     -0.000330
      7.05353      1.42635      0.01368        -0.001604      0.004858     -0.003617
      8.28610      6.40752      0.01601         0.002966     -0.001496     -0.000718
     -4.03885      7.83070      0.01636        -0.002205      0.000857      0.000015
      3.35586      6.40753      0.01007         0.005515      0.000588     -0.001182
      3.35599      7.83072      0.01320        -0.003235      0.000072     -0.000724
     -0.34146      4.27290      0.00723        -0.001898     -0.001367     -0.004542
     -0.34138      5.69591      0.00946        -0.009080      0.006497     -0.000965
      3.35624      2.13791      0.00222        -0.013768      0.011993      0.015994
      3.35573      3.56155      0.00139         0.013720     -0.015957      0.008571
     -1.57395      6.40758      0.01311         0.005369     -0.003957     -0.000650
     -1.57385      7.83068      0.01438        -0.004753      0.003749     -0.000009
      5.82093      2.13784      0.01033         0.016043      0.005083     -0.003024
      5.82114      3.56097      0.01156        -0.006293      0.008598     -0.003776
      0.89092      6.40755      0.00907         0.004514      0.002269     -0.002224
      0.89106      7.83068      0.01235        -0.006792      0.003897      0.000344
      4.58871      4.27293      0.00850        -0.013004     -0.006329     -0.010846
      4.58852      5.69606      0.01149         0.002030     -0.001240     -0.003780
      9.51845      0.00337      0.01490         0.004704     -0.004607      0.000198
      9.51855      1.42644      0.01438        -0.005165      0.005395     -0.000376
      8.28593      2.13803      0.01453         0.006723     -0.003351      0.000528
      8.28613      3.56115      0.01464        -0.004324      0.002185     -0.000086
      7.05356      4.27269      0.01457         0.002747     -0.001143     -0.000525
      7.05362      5.69588      0.01553        -0.002457      0.001553     -0.000040
      5.82112      6.40755      0.01489        -0.002986      0.001608     -0.000047
      5.82102      7.83073      0.01579         0.002732      0.000228     -0.000182
      7.05363      8.54227      0.01631        -0.004655      0.001252      0.001165
     -5.27149      9.96549      0.01495         0.000219     -0.002049     -0.002038
     -2.80638      8.54234      0.01558         0.003233     -0.001458     -0.001091
     -2.80627      9.96553      0.01362        -0.006781     -0.000138     -0.003789
     -0.34149      8.54239      0.01378         0.005760     -0.004919      0.000119
     -0.34138      9.96550      0.01354        -0.005759     -0.000105     -0.001113
      2.12343      8.54232      0.01336         0.005819     -0.001526      0.000693
      2.12354      9.96544      0.01469        -0.005152      0.003801     -0.001860
      4.58846      8.54235      0.01505         0.003657     -0.002778      0.001068
      4.58853      9.96550      0.01517        -0.002829      0.003334      0.000217
      3.04930      2.68154      7.49154        -0.006857      0.005515      0.032444
      4.02070      2.02068      7.55596        -0.660842      0.449227     -0.060228
      2.07767      3.34267      7.43208         0.667574     -0.454750      0.023783
 -----------------------------------------------------------------------------------
    total drift:                               -0.000061     -0.000023      0.001267


--------------------------------------------------------------------------------------------------------



  FREE ENERGIE OF THE ION-ELECTRON SYSTEM (eV)
  ---------------------------------------------------
  free  energy   TOTEN  =      -411.62021754 eV

  energy  without entropy=     -411.62021754  energy(sigma->0) =     -411.62021754
 


--------------------------------------------------------------------------------------------------------


    POTLOK:  cpu time    6.1182: real time    6.1630


--------------------------------------------------------------------------------------------------------


 writing wavefunctions
     LOOP+:  cpu time  607.5426: real time  613.5364
    4ORBIT:  cpu time    0.0000: real time    0.0000

 total amount of memory used by VASP MPI-rank0   441788. kBytes
=======================================================================

   base      :      30000. kBytes
   nonl-proj :     184518. kBytes
   fftplans  :      31725. kBytes
   grid      :     168095. kBytes
   one-center:        162. kBytes
   wavefun   :      27288. kBytes
 
  
  
 General timing and accounting informations for this job:
 ========================================================
  
                  Total CPU time used (sec):      641.417
                            User time (sec):      607.436
                          System time (sec):       33.982
                         Elapsed time (sec):      648.990
  
                   Maximum memory used (kb):     1112588.
                   Average memory used (kb):          N/A
  
                          Minor page faults:       568336
                          Major page faults:           92
                 Voluntary context switches:         3504
