 vasp.6.2.1 16May21 (build Nov 06 2021 14:46:37) complex                        
  
 executed on             LinuxIFC date 2025.04.16  21:31:50
 running on  112 total cores
 distrk:  each k-point on   56 cores,    2 groups
 distr:  one band on NCORE=   1 cores,   56 groups


--------------------------------------------------------------------------------------------------------


 INCAR:
   ALGO = Conjugate
   KPAR = 2
   NCORE = 32
   ISMEAR = 0
   SIGMA = 0.01
   PREC = Accurate
   EDIFF = 1E-7
   ENCUT = 1000
   ISIF = 0
   GGA = BO
   PARAM1 = 0.1833333333
   PARAM2 = 0.2200000000
   LUSE_VDW = .TRUE.
   AGGAC = 0.0000
   LASPH = .TRUE.
   SYMPREC = 1E-7

 POTCAR:    PAW_PBE C_h 06Feb2004                 
 POTCAR:    PAW_PBE O_h 06Feb2004                 
 -----------------------------------------------------------------------------
|                                                                             |
|           W    W    AA    RRRRR   N    N  II  N    N   GGGG   !!!           |
|           W    W   A  A   R    R  NN   N  II  NN   N  G    G  !!!           |
|           W    W  A    A  R    R  N N  N  II  N N  N  G       !!!           |
|           W WW W  AAAAAA  RRRRR   N  N N  II  N  N N  G  GGG   !            |
|           WW  WW  A    A  R   R   N   NN  II  N   NN  G    G                |
|           W    W  A    A  R    R  N    N  II  N    N   GGGG   !!!           |
|                                                                             |
|     The value NCORE = 32 specified in the INCAR file was overwritten,       |
|     because it was not compatible with the 56 processes available:          |
|     NCORE = 1                                                               |
|     was used instead, please check that this makes sense for your           |
|     machine.                                                                |
|                                                                             |
 -----------------------------------------------------------------------------

 -----------------------------------------------------------------------------
|                                                                             |
|           W    W    AA    RRRRR   N    N  II  N    N   GGGG   !!!           |
|           W    W   A  A   R    R  NN   N  II  NN   N  G    G  !!!           |
|           W    W  A    A  R    R  N N  N  II  N N  N  G       !!!           |
|           W WW W  AAAAAA  RRRRR   N  N N  II  N  N N  G  GGG   !            |
|           WW  WW  A    A  R   R   N   NN  II  N   NN  G    G                |
|           W    W  A    A  R    R  N    N  II  N    N   GGGG   !!!           |
|                                                                             |
|     For optimal performance we recommend to set                             |
|       NCORE = 2 up to number-of-cores-per-socket                            |
|     NCORE specifies how many cores store one orbital (NPAR=cpu/NCORE).      |
|     This setting can greatly improve the performance of VASP for DFT.       |
|     The default, NCORE=1 might be grossly inefficient on modern             |
|     multi-core architectures or massively parallel machines. Do your        |
|     own testing! More info at https://www.vasp.at/wiki/index.php/NCORE      |
|     Unfortunately you need to use the default for GW and RPA                |
|     calculations (for HF NCORE is supported but not extensively tested      |
|     yet).                                                                   |
|                                                                             |
 -----------------------------------------------------------------------------

 -----------------------------------------------------------------------------
|                                                                             |
|               ----> ADVICE to this user running VASP <----                  |
|                                                                             |
|     You have switched on vdW-DFT.                                           |
|     This routine was written and supplied by Jiri Klimes. We recommend      |
|     that you carefully read and cite the following publications:            |
|       J. Klimes, D.R. Bowler, A. Michelides                                 |
|          J. Phys.: Cond Matt. 22 022201 (2010)                              |
|       J. Klimes, D.R. Bowler, A. Michelides                                 |
|          Phys. Rev. B. 83, 195131 (2011)                                    |
|     and references therein.                                                 |
|                                                                             |
 -----------------------------------------------------------------------------

 POTCAR:    PAW_PBE C_h 06Feb2004                 
   VRHFIN =C: s2p2                                                                                  
   LEXCH  = PE                                                                                      
   EATOM  =   147.1560 eV,   10.8157 Ry                                                             
                                                                                                    
   TITEL  = PAW_PBE C_h 06Feb2004                                                                   
   LULTRA =        F    use ultrasoft PP ?                                                          
   IUNSCR =        1    unscreen: 0-lin 1-nonlin 2-no                                               
   RPACOR =    0.800    partial core radius                                                         
   POMASS =   12.011; ZVAL   =    4.000    mass and valenz                                          
   RCORE  =    1.100    outmost cutoff radius                                                       
   RWIGS  =    1.630; RWIGS  =    0.863    wigner-seitz radius (au A)                               
   ENMAX  =  700.000; ENMIN  =  500.000 eV                                                          
   ICORE  =        2    local potential                                                             
   LCOR   =        T    correct aug charges                                                         
   LPAW   =        T    paw PP                                                                      
   EAUG   =  946.768                                                                                
   DEXC   =    0.000                                                                                
   RMAX   =    1.128    core radius for proj-oper                                                   
   RAUG   =    1.300    factor for augmentation sphere                                              
   RDEP   =    1.162    radius for radial grids                                                     
   RDEPT  =    1.088    core radius for aug-charge                                                  
                                                                                                    
   Atomic configuration                                                                             
    4 entries                                                                                       
     n  l   j            E        occ.                                                              
     1  0  0.50      -273.3789   2.0000                                                             
     2  0  0.50       -13.7508   2.0000                                                             
     2  1  0.50        -5.2854   2.0000                                                             
     3  2  1.50        -5.4423   0.0000                                                             
   Description                                                                                      
     l       E           TYP  RCUT    TYP  RCUT                                                     
     0    -13.7508458     23  1.100                                                                 
     0     -8.2022199     23  1.100                                                                 
     1     -5.2854383     23  1.100                                                                 
     1      1.1560700     23  1.100                                                                 
     2     -5.4423304      7  1.100                                                                 
  local pseudopotential read in
  partial core-charges read in
  partial kinetic energy density read in
  atomic valenz-charges read in
  non local Contribution for L=           0  read in
    real space projection operators read in
  non local Contribution for L=           0  read in
    real space projection operators read in
  non local Contribution for L=           1  read in
    real space projection operators read in
  non local Contribution for L=           1  read in
    real space projection operators read in
    PAW grid and wavefunctions read in
 
   number of l-projection  operators is LMAX  =           4
   number of lm-projection operators is LMMAX =           8
 
 POTCAR:    PAW_PBE O_h 06Feb2004                 
   VRHFIN =O: s2p4                                                                                  
   LEXCH  = PE                                                                                      
   EATOM  =   432.3788 eV,   31.7789 Ry                                                             
                                                                                                    
   TITEL  = PAW_PBE O_h 06Feb2004                                                                   
   LULTRA =        F    use ultrasoft PP ?                                                          
   IUNSCR =        1    unscreen: 0-lin 1-nonlin 2-no                                               
   RPACOR =    0.800    partial core radius                                                         
   POMASS =   16.000; ZVAL   =    6.000    mass and valenz                                          
   RCORE  =    1.100    outmost cutoff radius                                                       
   RWIGS  =    1.400; RWIGS  =    0.741    wigner-seitz radius (au A)                               
   ENMAX  =  700.000; ENMIN  =  500.000 eV                                                          
   ICORE  =        2    local potential                                                             
   LCOR   =        T    correct aug charges                                                         
   LPAW   =        T    paw PP                                                                      
   EAUG   =  888.804                                                                                
   DEXC   =    0.000                                                                                
   RMAX   =    1.128    core radius for proj-oper                                                   
   RAUG   =    1.300    factor for augmentation sphere                                              
   RDEP   =    1.125    radius for radial grids                                                     
   RDEPT  =    1.088    core radius for aug-charge                                                  
                                                                                                    
   Atomic configuration                                                                             
    4 entries                                                                                       
     n  l   j            E        occ.                                                              
     1  0  0.50      -514.6923   2.0000                                                             
     2  0  0.50       -23.9615   2.0000                                                             
     2  1  0.50        -9.0305   4.0000                                                             
     3  2  1.50        -9.5241   0.0000                                                             
   Description                                                                                      
     l       E           TYP  RCUT    TYP  RCUT                                                     
     0    -23.9615319     23  1.100                                                                 
     0    -25.3221145     23  1.100                                                                 
     1     -9.0304911     23  1.100                                                                 
     1     -5.4802209     23  1.100                                                                 
     2     -9.5240782      7  1.100                                                                 
  local pseudopotential read in
  partial core-charges read in
  partial kinetic energy density read in
  atomic valenz-charges read in
  non local Contribution for L=           0  read in
    real space projection operators read in
  non local Contribution for L=           0  read in
    real space projection operators read in
  non local Contribution for L=           1  read in
    real space projection operators read in
  non local Contribution for L=           1  read in
    real space projection operators read in
    PAW grid and wavefunctions read in
 
   number of l-projection  operators is LMAX  =           4
   number of lm-projection operators is LMMAX =           8
 
 -----------------------------------------------------------------------------
|                                                                             |
|               ----> ADVICE to this user running VASP <----                  |
|                                                                             |
|     You have a (more or less) 'large supercell' and for larger cells it     |
|     might be more efficient to use real-space projection operators.         |
|     Therefore, try LREAL= Auto in the INCAR file.                           |
|     Mind: For very accurate calculation, you might also keep the            |
|     reciprocal projection scheme (i.e. LREAL=.FALSE.).                      |
|                                                                             |
 -----------------------------------------------------------------------------

 -----------------------------------------------------------------------------
|                                                                             |
|               ----> ADVICE to this user running VASP <----                  |
|                                                                             |
|     You enforced a specific xc type in the INCAR file but a different       |
|     type was found in the POTCAR file.                                      |
|     I HOPE YOU KNOW WHAT YOU ARE DOING!                                     |
|                                                                             |
 -----------------------------------------------------------------------------

  PAW_PBE C_h 06Feb2004                 :
 energy of atom  1       EATOM= -147.1560
 kinetic energy error for atom=    0.0031 (will be added to EATOM!!)
  PAW_PBE O_h 06Feb2004                 :
 energy of atom  2       EATOM= -432.3788
 kinetic energy error for atom=    0.0171 (will be added to EATOM!!)
 
 
 POSCAR:  C  O
  positions in cartesian coordinates
  No initial velocities read in
 exchange correlation table for  LEXCH =       42
   RHO(1)=    0.500       N(1)  =     2000
   RHO(2)=  100.500       N(2)  =     4000
 


--------------------------------------------------------------------------------------------------------


 ion  position               nearest neighbor table
   1  0.972  0.000  0.001-  50 1.42   2 1.42  42 1.42
   2  0.039  0.134  0.000-   5 1.42   7 1.42   1 1.42
   3  0.172  0.000  0.000-  42 1.42  44 1.42   4 1.42
   4  0.239  0.134  0.000-   7 1.42   3 1.42  23 1.42
   5  0.972  0.200  0.000-   6 1.42   2 1.42  34 1.42
   6  0.039  0.334  0.000-   5 1.42  21 1.42  11 1.42
   7  0.172  0.200  0.000-   8 1.42   2 1.42   4 1.42
   8  0.239  0.334  0.000-  13 1.42   7 1.42  21 1.42
   9  0.372  0.000  0.000-  10 1.42  44 1.42  46 1.42
  10  0.439  0.134  0.000-  27 1.42   9 1.42  23 1.42
  11  0.972  0.400  0.001-  12 1.42  36 1.42   6 1.42
  12  0.039  0.534  0.001-  25 1.42  11 1.42  17 1.42
  13  0.372  0.400  0.000-   8 1.42  14 1.42  24 1.42
  14  0.439  0.534  0.000-  13 1.42  29 1.42  19 1.42
  15  0.572  0.000  0.001-  46 1.42  16 1.42  48 1.42
  16  0.639  0.134  0.001-  15 1.42  35 1.42  27 1.42
  17  0.972  0.600  0.001-  38 1.42  18 1.42  12 1.42
  18  0.039  0.734  0.001-  43 1.42  41 1.42  17 1.42
  19  0.572  0.600  0.000-  14 1.42  20 1.42  32 1.42
  20  0.639  0.734  0.001-  49 1.42  19 1.42  47 1.42
  21  0.172  0.400  0.000-  22 1.42   8 1.42   6 1.42
  22  0.239  0.534  0.000-  21 1.42  29 1.42  25 1.42
  23  0.372  0.200  0.000-  10 1.42   4 1.42  24 1.42
  24  0.439  0.334  0.000-  13 1.42  31 1.42  23 1.42
  25  0.172  0.600  0.001-  26 1.42  12 1.42  22 1.42
  26  0.239  0.734  0.001-  25 1.42  45 1.42  43 1.42
  27  0.572  0.200  0.000-  10 1.42  28 1.42  16 1.42
  28  0.639  0.334  0.000-  27 1.42  37 1.42  31 1.42
  29  0.372  0.600  0.000-  22 1.42  14 1.42  30 1.42
  30  0.439  0.734  0.000-  47 1.42  29 1.42  45 1.42
  31  0.572  0.400  0.000-  32 1.42  28 1.42  24 1.42
  32  0.639  0.534  0.000-  31 1.42  39 1.42  19 1.42
  33  0.772  0.000  0.001-  34 1.42  48 1.42  50 1.42
  34  0.839  0.134  0.001-  33 1.42   5 1.42  35 1.42
  35  0.772  0.200  0.001-  36 1.42  16 1.42  34 1.42
  36  0.839  0.334  0.001-  35 1.42  11 1.42  37 1.42
  37  0.772  0.400  0.001-  28 1.42  38 1.42  36 1.42
  38  0.839  0.534  0.001-  17 1.42  37 1.42  39 1.42
  39  0.772  0.600  0.001-  40 1.42  38 1.42  32 1.42
  40  0.839  0.734  0.001-  39 1.42  49 1.42  41 1.42
  41  0.972  0.800  0.001-  18 1.42  42 1.42  40 1.42
  42  0.039  0.934  0.001-   3 1.42  41 1.42   1 1.42
  43  0.172  0.800  0.001-  18 1.42  44 1.42  26 1.42
  44  0.239  0.934  0.001-   9 1.42  43 1.42   3 1.42
  45  0.372  0.800  0.001-  26 1.42  46 1.42  30 1.42
  46  0.439  0.934  0.001-  15 1.42  45 1.42   9 1.42
  47  0.572  0.800  0.001-  30 1.42  48 1.42  20 1.42
  48  0.639  0.934  0.001-  47 1.42  33 1.42  15 1.42
  49  0.772  0.800  0.001-  50 1.42  20 1.42  40 1.42
  50  0.839  0.934  0.001-  49 1.42   1 1.42  33 1.42
  51  0.373  0.251  0.356-  52 1.18  53 1.18
  52  0.421  0.189  0.359-  51 1.18
  53  0.325  0.313  0.354-  51 1.18
 
  LATTYP: Found a hexagonal cell.
 ALAT       =    12.3250000000
 C/A-ratio  =     2.0283975659
  
  Lattice vectors:
  
 A1 = (  12.3250000000,   0.0000000000,   0.0000000000)
 A2 = (  -6.1625000000,  10.6737631016,   0.0000000000)
 A3 = (   0.0000000000,   0.0000000000,  25.0000000000)


Analysis of symmetry for initial positions (statically):
=====================================================================
 Subroutine PRICEL returns:
 Original cell was already a primitive cell.
 

 Routine SETGRP: Setting up the symmetry group for a 
 hexagonal supercell.


 Subroutine GETGRP returns: Found  1 space group operations
 (whereof  1 operations were pure point group operations)
 out of a pool of 24 trial point group operations.


The static configuration has the point symmetry C_1 .


Analysis of symmetry for dynamics (positions and initial velocities):
=====================================================================
 Subroutine PRICEL returns:
 Original cell was already a primitive cell.
 

 Routine SETGRP: Setting up the symmetry group for a 
 hexagonal supercell.


 Subroutine GETGRP returns: Found  1 space group operations
 (whereof  1 operations were pure point group operations)
 out of a pool of 24 trial point group operations.


The dynamic configuration has the point symmetry C_1 .


 Subroutine INISYM returns: Found  1 space group operations
 (whereof  1 operations are pure point group operations),
 and found     1 'primitive' translations


----------------------------------------------------------------------------------------

                                     Primitive cell                                     

  volume of cell :    3288.8533

  direct lattice vectors                    reciprocal lattice vectors
    12.325000000  0.000000000  0.000000000     0.081135903  0.046843835  0.000000000
    -6.162500000 10.673763102  0.000000000     0.000000000  0.093687670  0.000000000
     0.000000000  0.000000000 25.000000000     0.000000000  0.000000000  0.040000000

  length of vectors
    12.325000000 12.325000000 25.000000000     0.093687670  0.093687670  0.040000000

  position of ions in fractional coordinates (direct lattice)
     0.972450841  0.000320818  0.000566711
     0.039118382  0.133659505  0.000440173
     0.172443627  0.000295449  0.000499628
     0.239096278  0.133647917  0.000256468
     0.972452058  0.200322012  0.000485219
     0.039128360  0.333643771  0.000444150
     0.172451764  0.200354552  0.000219167
     0.239124359  0.333665720  0.000072260
     0.372465565  0.000324403  0.000453913
     0.439137473  0.133619939  0.000258338
     0.972449824  0.400309362  0.000547611
     0.039124981  0.533636789  0.000573410
     0.372416176  0.400329481  0.000000000
     0.439099602  0.533638981  0.000232414
     0.572443676  0.000312125  0.000559580
     0.639110207  0.133631751  0.000547275
     0.972452703  0.600305653  0.000640289
     0.039124495  0.733640359  0.000654513
     0.572433471  0.600306242  0.000402895
     0.639111888  0.733641879  0.000527905
     0.172454630  0.400318228  0.000289045
     0.239120185  0.533636548  0.000378509
     0.372459750  0.200295993  0.000088997
     0.439107096  0.333673419  0.000055762
     0.172452155  0.600311506  0.000524340
     0.239123371  0.733638574  0.000575129
     0.572431082  0.200289171  0.000413296
     0.639112773  0.333618630  0.000462376
     0.372439808  0.600308022  0.000362844
     0.439116090  0.733637858  0.000494190
     0.572469358  0.400320504  0.000339918
     0.639119408  0.533650873  0.000459610
     0.772445723  0.000315427  0.000596161
     0.839116277  0.133640203  0.000575306
     0.772440513  0.200307432  0.000581033
     0.839120241  0.333635728  0.000585467
     0.772446320  0.400298367  0.000582978
     0.839118980  0.533633964  0.000621100
     0.772456143  0.600308173  0.000595712
     0.839115033  0.733643180  0.000631512
     0.972455313  0.800305582  0.000652233
     0.039114714  0.933643289  0.000598051
     0.172457971  0.800312211  0.000623372
     0.239134551  0.933647193  0.000544850
     0.372451396  0.800316674  0.000551399
     0.439124489  0.933644769  0.000541430
     0.572441101  0.800310054  0.000534535
     0.639115067  0.933638985  0.000587644
     0.772445098  0.800313187  0.000602062
     0.839116614  0.933644338  0.000606830
     0.373021009  0.251226878  0.356359487
     0.420879805  0.189313152  0.358936362
     0.325156981  0.313167186  0.353981292

  ion indices of the primitive-cell ions
   primitive index   ion index
                 1           1
                 2           2
                 3           3
                 4           4
                 5           5
                 6           6
                 7           7
                 8           8
                 9           9
                10          10
                11          11
                12          12
                13          13
                14          14
                15          15
                16          16
                17          17
                18          18
                19          19
                20          20
                21          21
                22          22
                23          23
                24          24
                25          25
                26          26
                27          27
                28          28
                29          29
                30          30
                31          31
                32          32
                33          33
                34          34
                35          35
                36          36
                37          37
                38          38
                39          39
                40          40
                41          41
                42          42
                43          43
                44          44
                45          45
                46          46
                47          47
                48          48
                49          49
                50          50
                51          51
                52          52
                53          53

----------------------------------------------------------------------------------------

 
 
 KPOINTS: auto                                    

Automatic generation of k-mesh.
 Grid dimensions read from file:
 generate k-points for:    1    1    1

 Generating k-lattice:

  Cartesian coordinates                     Fractional coordinates (reciprocal lattice)
     0.081135903  0.046843835  0.000000000     1.000000000 -0.000000000  0.000000000
     0.000000000  0.093687670  0.000000000     0.000000000  1.000000000  0.000000000
     0.000000000  0.000000000  0.040000000     0.000000000  0.000000000  1.000000000

  Length of vectors
     0.093687670  0.093687670  0.040000000

  Shift w.r.t. Gamma in fractional coordinates (k-lattice)
     0.000000000  0.000000000  0.000000000

 
 Subroutine IBZKPT returns following result:
 ===========================================
 
 Found      1 irreducible k-points:
 
 Following reciprocal coordinates:
            Coordinates               Weight
  0.000000  0.000000  0.000000      1.000000
 
 Following cartesian coordinates:
            Coordinates               Weight
  0.000000  0.000000  0.000000      1.000000
 


--------------------------------------------------------------------------------------------------------




 Dimension of arrays:
   k-points           NKPTS =      1   k-points in BZ     NKDIM =      1   number of bands    NBANDS=    168
   number of dos      NEDOS =    301   number of ions     NIONS =     53
   non local maximal  LDIM  =      4   non local SUM 2l+1 LMDIM =      8
   total plane-waves  NPLWV = ******
   max r-space proj   IRMAX =      1   max aug-charges    IRDMAX=  10008
   dimension x,y,z NGX =   128 NGY =  128 NGZ =  270
   dimension x,y,z NGXF=   256 NGYF=  256 NGZF=  540
   support grid    NGXF=   256 NGYF=  256 NGZF=  540
   ions per type =              51   2
   NGX,Y,Z   is equivalent  to a cutoff of  17.27, 17.27, 17.95 a.u.
   NGXF,Y,Z  is equivalent  to a cutoff of  34.53, 34.53, 35.91 a.u.

 SYSTEM =  unknown system                          
 POSCAR =   C  O                                   

 Startparameter for this run:
   NWRITE =      2    write-flag & timer
   PREC   = accura    normal or accurate (medium, high low for compatibility)
   ISTART =      0    job   : 0-new  1-cont  2-samecut
   ICHARG =      2    charge: 1-file 2-atom 10-const
   ISPIN  =      1    spin polarized calculation?
   LNONCOLLINEAR =      F non collinear calculations
   LSORBIT =      F    spin-orbit coupling
   INIWAV =      1    electr: 0-lowe 1-rand  2-diag
   LASPH  =      T    aspherical Exc in radial PAW
 Electronic Relaxation 1
   ENCUT  = 1000.0 eV  73.50 Ry    8.57 a.u.  31.78 31.78 64.46*2*pi/ulx,y,z
   ENINI  = 1000.0     initial cutoff
   ENAUG  =  946.8 eV  augmentation charge cutoff
   NELM   =     60;   NELMIN=  2; NELMDL= -5     # of ELM steps 
   EDIFF  = 0.1E-06   stopping-criterion for ELM
   LREAL  =      F    real-space projection
   NLSPLINE    = F    spline interpolate recip. space projectors
   LCOMPAT=      F    compatible to vasp.4.4
   GGA_COMPAT  = T    GGA compatible to vasp.4.4-vasp.4.6
   LMAXPAW     = -100 max onsite density
   LMAXMIX     =    2 max onsite mixed and CHGCAR
   VOSKOWN=      0    Vosko Wilk Nusair interpolation
   ROPT   =    0.00000   0.00000
 Ionic relaxation
   EDIFFG = 0.1E-05   stopping-criterion for IOM
   NSW    =      0    number of steps for IOM
   NBLOCK =      1;   KBLOCK =      1    inner block; outer block 
   IBRION =     -1    ionic relax: 0-MD 1-quasi-New 2-CG
   NFREE  =      0    steps in history (QN), initial steepest desc. (CG)
   ISIF   =      0    stress and relaxation
   IWAVPR =     10    prediction:  0-non 1-charg 2-wave 3-comb
   ISYM   =      2    0-nonsym 1-usesym 2-fastsym
   LCORR  =      T    Harris-Foulkes like correction to forces

   POTIM  = 0.5000    time-step for ionic-motion
   TEIN   =    0.0    initial temperature
   TEBEG  =    0.0;   TEEND  =   0.0 temperature during run
   SMASS  =  -3.00    Nose mass-parameter (am)
   estimated Nose-frequenzy (Omega)   =  0.10E-29 period in steps = 0.13E+47 mass=  -0.347E-26a.u.
   SCALEE = 1.0000    scale energy and forces
   NPACO  =    256;   APACO  = 16.0  distance and # of slots for P.C.
   PSTRESS=    0.0 pullay stress

  Mass of Ions in am
   POMASS =  12.01 16.00
  Ionic Valenz
   ZVAL   =   4.00  6.00
  Atomic Wigner-Seitz radii
   RWIGS  =  -1.00 -1.00
  virtual crystal weights 
   VCA    =   1.00  1.00
   NELECT =     216.0000    total number of electrons
   NUPDOWN=      -1.0000    fix difference up-down

 DOS related values:
   EMIN   =  10.00;   EMAX   =-10.00  energy-range for DOS
   EFERMI =   0.00
   ISMEAR =     0;   SIGMA  =   0.01  broadening in eV -4-tet -1-fermi 0-gaus

 Electronic relaxation 2 (details)
   IALGO  =     58    algorithm
   LDIAG  =      T    sub-space diagonalisation (order eigenvalues)
   LSUBROT=      F    optimize rotation matrix (better conditioning)
   TURBO    =      0    0=normal 1=particle mesh
   IRESTART =      0    0=no restart 2=restart with 2 vectors
   NREBOOT  =      0    no. of reboots
   NMIN     =      0    reboot dimension
   EREF     =   0.00    reference energy to select bands
   IMIX   =      4    mixing-type and parameters
     AMIX     =   0.40;   BMIX     =  1.00
     AMIX_MAG =   1.60;   BMIX_MAG =  1.00
     AMIN     =   0.10
     WC   =   100.;   INIMIX=   1;  MIXPRE=   1;  MAXMIX= -45

 Intra band minimization:
   WEIMIN = 0.0000     energy-eigenvalue tresh-hold
   EBREAK =  0.15E-09  absolut break condition
   DEPER  =   0.30     relativ break condition  

   TIME   =   0.40     timestep for ELM

  volume/ion in A,a.u.               =      62.05       418.76
  Fermi-wavevector in a.u.,A,eV,Ry     =   0.660508  1.248179  5.935820  0.436270
  Thomas-Fermi vector in A             =   1.732977
 
 Write flags
   LWAVE        =      T    write WAVECAR
   LDOWNSAMPLE  =      F    k-point downsampling of WAVECAR
   LCHARG       =      T    write CHGCAR
   LVTOT        =      F    write LOCPOT, total local potential
   LVHAR        =      F    write LOCPOT, Hartree potential only
   LELF         =      F    write electronic localiz. function (ELF)
   LORBIT       =      0    0 simple, 1 ext, 2 COOP (PROOUT), +10 PAW based schemes


 Dipole corrections
   LMONO  =      F    monopole corrections only (constant potential shift)
   LDIPOL =      F    correct potential (dipole corrections)
   IDIPOL =      0    1-x, 2-y, 3-z, 4-all directions 
   EPSILON=  1.0000000 bulk dielectric constant

 Exchange correlation treatment:
   GGA     =    BO    GGA type
   LEXCH   =    42    internal setting for exchange type
   VOSKOWN=      0    Vosko Wilk Nusair interpolation
   LHFCALC =     F    Hartree Fock is set to
   LHFONE  =     F    Hartree Fock one center treatment
   AEXX    =    0.0000 exact exchange contribution

 vdW DFT:
   LUSE_VDW   =     T    switch on vdW DFT
   Zab_VDW    =-.8491    correlation parameter
   PARAM1     =0.1833
   PARAM2     =0.2200
   PARAM3     =0.0000
   -- rVV10 --
   BPARAM     = 6.3000
   CPARAM     = 0.0093

 Linear response parameters
   LEPSILON=     F    determine dielectric tensor
   LRPA    =     F    only Hartree local field effects (RPA)
   LNABLA  =     F    use nabla operator in PAW spheres
   LVEL    =     F    velocity operator in full k-point grid
   LINTERFAST=   F  fast interpolation
   KINTER  =     0    interpolate to denser k-point grid
   CSHIFT  =0.1000    complex shift for real part using Kramers Kronig
   OMEGAMAX=  -1.0    maximum frequency
   DEG_THRESHOLD= 0.2000000E-02 threshold for treating states as degnerate
   RTIME   =   -0.100 relaxation time in fs
  (WPLASMAI=    0.000 imaginary part of plasma frequency in eV, 0.658/RTIME)
   DFIELD  = 0.0000000 0.0000000 0.0000000 field for delta impulse in time
 
 Orbital magnetization related:
   ORBITALMAG=     F  switch on orbital magnetization
   LCHIMAG   =     F  perturbation theory with respect to B field
   DQ        =  0.001000  dq finite difference perturbation B field
   LLRAUG    =     F  two centre corrections for induced B field



--------------------------------------------------------------------------------------------------------


 Static calculation
 charge density and potential will be updated during run
 non-spin polarized calculation
 Conjugate gradient for all bands (Freysoldt, et al. PRB 79, 241103 (2009))
 preconditioned conjugated gradient                                        
 perform sub-space diagonalisation
    before iterative eigenvector-optimisation
 modified Broyden-mixing scheme, WC =      100.0
 initial mixing is a Kerker type mixing with AMIX =  0.4000 and BMIX =      1.0000
 Hartree-type preconditioning will be used
 using additional bands           60
 reciprocal scheme for non local part
 use partial core corrections
 no Harris-corrections to forces 
 use gradient corrections 
 use of overlap-Matrix (Vanderbilt PP)
 Gauss-broadening in eV      SIGMA  =   0.01


--------------------------------------------------------------------------------------------------------


  energy-cutoff  :     1000.00
  volume of cell :     3288.85
      direct lattice vectors                 reciprocal lattice vectors
    12.325000000  0.000000000  0.000000000     0.081135903  0.046843835  0.000000000
    -6.162500000 10.673763102  0.000000000     0.000000000  0.093687670  0.000000000
     0.000000000  0.000000000 25.000000000     0.000000000  0.000000000  0.040000000

  length of vectors
    12.325000000 12.325000000 25.000000000     0.093687670  0.093687670  0.040000000


 
 k-points in units of 2pi/SCALE and weight: auto                                    
   0.00000000  0.00000000  0.00000000       1.000
 
 k-points in reciprocal lattice and weights: auto                                    
   0.00000000  0.00000000  0.00000000       1.000
 
 position of ions in fractional coordinates (direct lattice) 
   0.97245084  0.00032082  0.00056671
   0.03911838  0.13365950  0.00044017
   0.17244363  0.00029545  0.00049963
   0.23909628  0.13364792  0.00025647
   0.97245206  0.20032201  0.00048522
   0.03912836  0.33364377  0.00044415
   0.17245176  0.20035455  0.00021917
   0.23912436  0.33366572  0.00007226
   0.37246557  0.00032440  0.00045391
   0.43913747  0.13361994  0.00025834
   0.97244982  0.40030936  0.00054761
   0.03912498  0.53363679  0.00057341
   0.37241618  0.40032948  0.00000000
   0.43909960  0.53363898  0.00023241
   0.57244368  0.00031213  0.00055958
   0.63911021  0.13363175  0.00054727
   0.97245270  0.60030565  0.00064029
   0.03912449  0.73364036  0.00065451
   0.57243347  0.60030624  0.00040289
   0.63911189  0.73364188  0.00052791
   0.17245463  0.40031823  0.00028904
   0.23912018  0.53363655  0.00037851
   0.37245975  0.20029599  0.00008900
   0.43910710  0.33367342  0.00005576
   0.17245216  0.60031151  0.00052434
   0.23912337  0.73363857  0.00057513
   0.57243108  0.20028917  0.00041330
   0.63911277  0.33361863  0.00046238
   0.37243981  0.60030802  0.00036284
   0.43911609  0.73363786  0.00049419
   0.57246936  0.40032050  0.00033992
   0.63911941  0.53365087  0.00045961
   0.77244572  0.00031543  0.00059616
   0.83911628  0.13364020  0.00057531
   0.77244051  0.20030743  0.00058103
   0.83912024  0.33363573  0.00058547
   0.77244632  0.40029837  0.00058298
   0.83911898  0.53363396  0.00062110
   0.77245614  0.60030817  0.00059571
   0.83911503  0.73364318  0.00063151
   0.97245531  0.80030558  0.00065223
   0.03911471  0.93364329  0.00059805
   0.17245797  0.80031221  0.00062337
   0.23913455  0.93364719  0.00054485
   0.37245140  0.80031667  0.00055140
   0.43912449  0.93364477  0.00054143
   0.57244110  0.80031005  0.00053453
   0.63911507  0.93363899  0.00058764
   0.77244510  0.80031319  0.00060206
   0.83911661  0.93364434  0.00060683
   0.37302101  0.25122688  0.35635949
   0.42087980  0.18931315  0.35893636
   0.32515698  0.31316719  0.35398129
 
 position of ions in cartesian coordinates  (Angst):
  11.98347958  0.00342433  0.01416777
  -0.34154264  1.42664989  0.01100432
   2.12354700  0.00315355  0.01249070
   2.12325634  1.42652621  0.00641170
  10.75098721  2.13818970  0.01213047
  -1.57382270  3.56123457  0.01110375
   0.89078307  2.13853702  0.00547917
   0.89099273  3.56146885  0.00180651
   4.58863896  0.00346260  0.01134782
   4.58893648  1.42622757  0.00645846
   9.51853763  4.27280730  0.01369027
  -2.80632132  5.69591267  0.01433526
   2.12299894  4.27302204  0.00000000
   2.12335237  5.69593607  0.00581036
   7.05344483  0.00333155  0.01398950
   7.05352764  1.42635365  0.01368187
   8.28609598  6.40752033  0.01600723
  -4.03884931  7.83070339  0.01636283
   3.35585531  6.40752662  0.01007237
   3.35598594  7.83071962  0.01319763
  -0.34145776  4.27290193  0.00722612
  -0.34137895  5.69591010  0.00946273
   3.35624236  2.13791198  0.00222492
   3.35573251  3.56155103  0.00139405
  -1.57394684  6.40758280  0.01310850
  -1.57385216  7.83068434  0.01437823
   5.82093107  2.13783916  0.01033241
   5.82114012  3.56096622  0.01155939
   0.89092245  6.40754561  0.00907111
   0.89106251  7.83067670  0.01235474
   4.58870974  4.27292622  0.00849795
   4.58852320  5.69606300  0.01149026
   9.51844972  0.00336679  0.01490402
   9.51855036  1.42644387  0.01438264
   8.28593477  2.13803408  0.01452582
   8.28612680  3.56114872  0.01463668
   7.05356221  4.27268994  0.01457444
   7.05362213  5.69588251  0.01552751
   5.82112285  6.40754723  0.01489279
   5.82101669  7.83073350  0.01578780
   7.05362858  8.54227219  0.01630582
  -5.27148792  9.96548729  0.01495127
  -2.80637951  8.54234295  0.01558431
  -2.80626749  9.96552896  0.01362126
  -0.34148805  8.54239058  0.01378498
  -0.34137657  9.96550309  0.01353576
   2.12342586  8.54231992  0.01336337
   2.12354296  9.96544135  0.01469111
   4.58845581  8.54235337  0.01505154
   4.58852904  9.96549848  0.01517076
   3.04929830  2.68153618  8.90898718
   4.02070129  2.02068374  8.97340904
   2.07766701  3.34267235  8.84953231
 


--------------------------------------------------------------------------------------------------------


 k-point   1 :   0.0000 0.0000 0.0000  plane waves:  236157

 maximum and minimum number of plane-waves per node :    236157   236157

 maximum number of plane-waves:    236157
 maximum index in each direction: 
   IXMAX=   31   IYMAX=   31   IZMAX=   64
   IXMIN=  -31   IYMIN=  -31   IZMIN=  -64


 serial   3D FFT for wavefunctions
 parallel 3D FFT for charge:
    minimum data exchange during FFTs selected (reduces bandwidth)


 total amount of memory used by VASP MPI-rank0   551512. kBytes
=======================================================================

   base      :      30000. kBytes
   nonl-proj :     230539. kBytes
   fftplans  :      40716. kBytes
   grid      :     216018. kBytes
   one-center:        162. kBytes
   wavefun   :      34077. kBytes
 
     INWAV:  cpu time    0.0000: real time    0.0000
 Broyden mixing: mesh for mixing (old mesh)
   NGX = 63   NGY = 63   NGZ =129
  (NGX  =256   NGY  =256   NGZ  =540)
  gives a total of 512001 points

 initial charge density was supplied:
 charge density of overlapping atoms calculated
 number of electron     216.0000000 magnetization 
 keeping initial charge density in first step


--------------------------------------------------------------------------------------------------------


 Maximum index for augmentation-charges          471 (set IRDMAX)


--------------------------------------------------------------------------------------------------------


 First call to EWALD:  gamma=   0.119
 Maximum number of real-space cells 4x 4x 2
 Maximum number of reciprocal cells 2x 2x 4

    FEWALD:  cpu time    0.0028: real time    0.0028


--------------------------------------- Iteration      1(   1)  ---------------------------------------


vdW kernel read from vdw_kernel.bindat
  0.0000  0.2424  0.5071  0.7962  1.1119  1.4567  1.8333  2.2446  2.6937  3.1842
  3.7199  4.3049  4.9438  5.6415  6.4036  7.2358  8.1446  9.1372 10.2212 11.4050
 12.6979 14.1099 15.6519 17.3360 19.1751 21.1837 23.3773 25.7729 28.3892 31.2465
 34.3669 37.7748 41.4965 45.5611 50.0000
 
    POTLOK:  cpu time    8.2769: real time    8.3493
    SETDIJ:  cpu time    0.3230: real time    0.3243
    TRIAL :  cpu time   15.4098: real time   15.5264
    CORREC:  cpu time    0.0006: real time    0.0007
    --------------------------------------------
      LOOP:  cpu time   24.0233: real time   24.2197

 eigenvalue-minimisations  :   336
 total energy-change (2. order) : 0.2640787E+04  (-0.1071916E+05)
 number of electron     216.0000000 magnetization 
 augmentation part      216.0000000 magnetization 

 Free energy of the ion-electron system (eV)
  ---------------------------------------------------
  alpha Z        PSCENC =        47.94900195
  Ewald energy   TEWEN  =     40970.05347293
  -Hartree energ DENC   =    -47039.28430944
  -exchange      EXHF   =         0.00000000
  -V(xc)+E(xc)   XCENC  =       398.24289150
  PAW double counting   =      6564.79108649    -6260.84737255
  entropy T*S    EENTRO =        -0.00000000
  eigenvalues    EBANDS =      -501.20189229
  atomic energy  EATOM  =      8461.08393172
  ---------------------------------------------------
  free energy    TOTEN  =      2640.78681030 eV

  energy without entropy =     2640.78681030  energy(sigma->0) =     2640.78681030


--------------------------------------------------------------------------------------------------------




--------------------------------------- Iteration      1(   2)  ---------------------------------------


    TRIAL :  cpu time   23.1208: real time   23.3182
    CORREC:  cpu time    0.0001: real time    0.0001
    --------------------------------------------
      LOOP:  cpu time   23.1667: real time   23.3823

 eigenvalue-minimisations  :   560
 total energy-change (2. order) :-0.2388286E+04  (-0.2224371E+04)
 number of electron     216.0000000 magnetization 
 augmentation part      216.0000000 magnetization 

 Free energy of the ion-electron system (eV)
  ---------------------------------------------------
  alpha Z        PSCENC =        47.94900195
  Ewald energy   TEWEN  =     40970.05347293
  -Hartree energ DENC   =    -47039.28430944
  -exchange      EXHF   =         0.00000000
  -V(xc)+E(xc)   XCENC  =       398.24289150
  PAW double counting   =      6564.79108649    -6260.84737255
  entropy T*S    EENTRO =        -0.00000000
  eigenvalues    EBANDS =     -2889.48786731
  atomic energy  EATOM  =      8461.08393172
  ---------------------------------------------------
  free energy    TOTEN  =       252.50083528 eV

  energy without entropy =      252.50083528  energy(sigma->0) =      252.50083528


--------------------------------------------------------------------------------------------------------




--------------------------------------- Iteration      1(   3)  ---------------------------------------


    TRIAL :  cpu time   19.2191: real time   19.3655
    CORREC:  cpu time    0.0001: real time    0.0001
    --------------------------------------------
      LOOP:  cpu time   19.2964: real time   19.4444

 eigenvalue-minimisations  :   448
 total energy-change (2. order) :-0.6727879E+03  (-0.6700817E+03)
 number of electron     216.0000000 magnetization 
 augmentation part      216.0000000 magnetization 

 Free energy of the ion-electron system (eV)
  ---------------------------------------------------
  alpha Z        PSCENC =        47.94900195
  Ewald energy   TEWEN  =     40970.05347293
  -Hartree energ DENC   =    -47039.28430944
  -exchange      EXHF   =         0.00000000
  -V(xc)+E(xc)   XCENC  =       398.24289150
  PAW double counting   =      6564.79108649    -6260.84737255
  entropy T*S    EENTRO =        -0.00000000
  eigenvalues    EBANDS =     -3562.27572564
  atomic energy  EATOM  =      8461.08393172
  ---------------------------------------------------
  free energy    TOTEN  =      -420.28702305 eV

  energy without entropy =     -420.28702305  energy(sigma->0) =     -420.28702305


--------------------------------------------------------------------------------------------------------




--------------------------------------- Iteration      1(   4)  ---------------------------------------


    TRIAL :  cpu time   19.1948: real time   19.3970
    CORREC:  cpu time    0.0001: real time    0.0001
    --------------------------------------------
      LOOP:  cpu time   19.2611: real time   19.4696

 eigenvalue-minimisations  :   448
 total energy-change (2. order) :-0.2505251E+02  (-0.2491934E+02)
 number of electron     216.0000000 magnetization 
 augmentation part      216.0000000 magnetization 

 Free energy of the ion-electron system (eV)
  ---------------------------------------------------
  alpha Z        PSCENC =        47.94900195
  Ewald energy   TEWEN  =     40970.05347293
  -Hartree energ DENC   =    -47039.28430944
  -exchange      EXHF   =         0.00000000
  -V(xc)+E(xc)   XCENC  =       398.24289150
  PAW double counting   =      6564.79108649    -6260.84737255
  entropy T*S    EENTRO =        -0.00000000
  eigenvalues    EBANDS =     -3587.32824007
  atomic energy  EATOM  =      8461.08393172
  ---------------------------------------------------
  free energy    TOTEN  =      -445.33953748 eV

  energy without entropy =     -445.33953748  energy(sigma->0) =     -445.33953748


--------------------------------------------------------------------------------------------------------




--------------------------------------- Iteration      1(   5)  ---------------------------------------


    TRIAL :  cpu time   17.3156: real time   17.4481
    CORREC:  cpu time    0.0001: real time    0.0001
    CHARGE:  cpu time    0.8092: real time    0.8152
    --------------------------------------------
      LOOP:  cpu time   18.1552: real time   18.2958

 eigenvalue-minimisations  :   392
 total energy-change (2. order) :-0.8394738E+00  (-0.8381266E+00)
 number of electron     216.0000000 magnetization 
 augmentation part       -0.2186677 magnetization 

 Free energy of the ion-electron system (eV)
  ---------------------------------------------------
  alpha Z        PSCENC =        47.94900195
  Ewald energy   TEWEN  =     40970.05347293
  -Hartree energ DENC   =    -47039.28430944
  -exchange      EXHF   =         0.00000000
  -V(xc)+E(xc)   XCENC  =       398.24289150
  PAW double counting   =      6564.79108649    -6260.84737255
  entropy T*S    EENTRO =        -0.00000000
  eigenvalues    EBANDS =     -3588.16771388
  atomic energy  EATOM  =      8461.08393172
  ---------------------------------------------------
  free energy    TOTEN  =      -446.17901129 eV

  energy without entropy =     -446.17901129  energy(sigma->0) =     -446.17901129


--------------------------------------------------------------------------------------------------------




--------------------------------------- Iteration      1(   6)  ---------------------------------------


    POTLOK:  cpu time    7.8780: real time    7.9437
    SETDIJ:  cpu time    0.3335: real time    0.3346
    TRIAL :  cpu time    6.8946: real time    6.9451
    CORREC:  cpu time    9.7213: real time    9.7852
    CHARGE:  cpu time    0.7965: real time    0.8017
    --------------------------------------------
      LOOP:  cpu time   25.6567: real time   25.8471

 eigenvalue-minimisations  :     0
 total energy-change (2. order) : 0.5519631E+02  (-0.1762208E+02)
 number of electron     216.0000000 magnetization 
 augmentation part       -0.3304795 magnetization 

 Free energy of the ion-electron system (eV)
  ---------------------------------------------------
  alpha Z        PSCENC =        47.94900195
  Ewald energy   TEWEN  =     40970.05347293
  -Hartree energ DENC   =    -48518.23164276
  -exchange      EXHF   =         0.00000000
  -V(xc)+E(xc)   XCENC  =       448.13428477
  PAW double counting   =     71551.49323900   -71255.72528465
  entropy T*S    EENTRO =        -0.00000000
  eigenvalues    EBANDS =     -2095.73970728
  atomic energy  EATOM  =      8461.08393172
  ---------------------------------------------------
  free energy    TOTEN  =      -390.98270433 eV

  energy without entropy =     -390.98270433  energy(sigma->0) =     -390.98270433


--------------------------------------------------------------------------------------------------------




--------------------------------------- Iteration      1(   7)  ---------------------------------------


    POTLOK:  cpu time    7.8638: real time    7.9147
    SETDIJ:  cpu time    0.4178: real time    0.4202
    TRIAL :  cpu time    6.8820: real time    6.9354
    CORREC:  cpu time    9.7137: real time    9.7832
    CHARGE:  cpu time    0.7998: real time    0.8049
    --------------------------------------------
      LOOP:  cpu time   25.6949: real time   25.9094

 eigenvalue-minimisations  :     0
 total energy-change (2. order) :-0.1767007E+02  (-0.2010962E+01)
 number of electron     216.0000000 magnetization 
 augmentation part       -0.3795782 magnetization 

 Free energy of the ion-electron system (eV)
  ---------------------------------------------------
  alpha Z        PSCENC =        47.94900195
  Ewald energy   TEWEN  =     40970.05347293
  -Hartree energ DENC   =    -47986.66289629
  -exchange      EXHF   =         0.00000000
  -V(xc)+E(xc)   XCENC  =       430.21529681
  PAW double counting   =     86531.11264374   -86232.10496222
  entropy T*S    EENTRO =        -0.00000000
  eigenvalues    EBANDS =     -2630.29926497
  atomic energy  EATOM  =      8461.08393172
  ---------------------------------------------------
  free energy    TOTEN  =      -408.65277634 eV

  energy without entropy =     -408.65277634  energy(sigma->0) =     -408.65277634


--------------------------------------------------------------------------------------------------------




--------------------------------------- Iteration      1(   8)  ---------------------------------------


    POTLOK:  cpu time    7.8870: real time    7.9399
    SETDIJ:  cpu time    0.3368: real time    0.3380
    TRIAL :  cpu time    6.8902: real time    6.9477
    CORREC:  cpu time    9.7240: real time    9.7908
    CHARGE:  cpu time    0.7982: real time    0.8034
    --------------------------------------------
      LOOP:  cpu time   25.6623: real time   25.8525

 eigenvalue-minimisations  :     0
 total energy-change (2. order) :-0.2010016E+01  (-0.5810454E+00)
 number of electron     216.0000000 magnetization 
 augmentation part       -0.3948984 magnetization 

 Free energy of the ion-electron system (eV)
  ---------------------------------------------------
  alpha Z        PSCENC =        47.94900195
  Ewald energy   TEWEN  =     40970.05347293
  -Hartree energ DENC   =    -47956.74562398
  -exchange      EXHF   =         0.00000000
  -V(xc)+E(xc)   XCENC  =       429.57453109
  PAW double counting   =     90887.00175340   -90587.55054503
  entropy T*S    EENTRO =        -0.00000000
  eigenvalues    EBANDS =     -2662.02931403
  atomic energy  EATOM  =      8461.08393172
  ---------------------------------------------------
  free energy    TOTEN  =      -410.66279195 eV

  energy without entropy =     -410.66279195  energy(sigma->0) =     -410.66279195


--------------------------------------------------------------------------------------------------------




--------------------------------------- Iteration      1(   9)  ---------------------------------------


    POTLOK:  cpu time    7.8758: real time    7.9278
    SETDIJ:  cpu time    0.3561: real time    0.3575
    TRIAL :  cpu time    6.8909: real time    6.9445
    CORREC:  cpu time    9.7048: real time    9.8077
    CHARGE:  cpu time    0.7991: real time    0.8049
    --------------------------------------------
      LOOP:  cpu time   25.7293: real time   25.9482

 eigenvalue-minimisations  :     0
 total energy-change (2. order) :-0.5809281E+00  (-0.2235796E+00)
 number of electron     216.0000000 magnetization 
 augmentation part       -0.4000585 magnetization 

 Free energy of the ion-electron system (eV)
  ---------------------------------------------------
  alpha Z        PSCENC =        47.94900195
  Ewald energy   TEWEN  =     40970.05347293
  -Hartree energ DENC   =    -47969.56060228
  -exchange      EXHF   =         0.00000000
  -V(xc)+E(xc)   XCENC  =       429.67216696
  PAW double counting   =     94090.20573715   -93790.55839147
  entropy T*S    EENTRO =        -0.00000000
  eigenvalues    EBANDS =     -2650.08903705
  atomic energy  EATOM  =      8461.08393172
  ---------------------------------------------------
  free energy    TOTEN  =      -411.24372009 eV

  energy without entropy =     -411.24372009  energy(sigma->0) =     -411.24372009


--------------------------------------------------------------------------------------------------------




--------------------------------------- Iteration      1(  10)  ---------------------------------------


    POTLOK:  cpu time    7.9337: real time    7.9848
    SETDIJ:  cpu time    0.2924: real time    0.2935
    TRIAL :  cpu time    6.8858: real time    6.9369
    CORREC:  cpu time    9.7036: real time    9.7691
    CHARGE:  cpu time    0.7999: real time    0.8050
    --------------------------------------------
      LOOP:  cpu time   25.6531: real time   25.8471

 eigenvalue-minimisations  :     0
 total energy-change (2. order) :-0.2229004E+00  (-0.9875296E-01)
 number of electron     216.0000000 magnetization 
 augmentation part       -0.3973596 magnetization 

 Free energy of the ion-electron system (eV)
  ---------------------------------------------------
  alpha Z        PSCENC =        47.94900195
  Ewald energy   TEWEN  =     40970.05347293
  -Hartree energ DENC   =    -47966.79715900
  -exchange      EXHF   =         0.00000000
  -V(xc)+E(xc)   XCENC  =       429.51584476
  PAW double counting   =     94931.22145457   -94631.45564227
  entropy T*S    EENTRO =        -0.00000000
  eigenvalues    EBANDS =     -2653.03752516
  atomic energy  EATOM  =      8461.08393172
  ---------------------------------------------------
  free energy    TOTEN  =      -411.46662050 eV

  energy without entropy =     -411.46662050  energy(sigma->0) =     -411.46662050


--------------------------------------------------------------------------------------------------------




--------------------------------------- Iteration      1(  11)  ---------------------------------------


    POTLOK:  cpu time    7.9465: real time    7.9986
    SETDIJ:  cpu time    0.2697: real time    0.2707
    TRIAL :  cpu time    6.8888: real time    6.9396
    CORREC:  cpu time    9.7669: real time    9.8315
    CHARGE:  cpu time    0.7980: real time    0.8032
    --------------------------------------------
      LOOP:  cpu time   25.7393: real time   25.9324

 eigenvalue-minimisations  :     0
 total energy-change (2. order) :-0.9829885E-01  (-0.3660891E-01)
 number of electron     216.0000000 magnetization 
 augmentation part       -0.3948102 magnetization 

 Free energy of the ion-electron system (eV)
  ---------------------------------------------------
  alpha Z        PSCENC =        47.94900195
  Ewald energy   TEWEN  =     40970.05347293
  -Hartree energ DENC   =    -47958.03828703
  -exchange      EXHF   =         0.00000000
  -V(xc)+E(xc)   XCENC  =       429.38257506
  PAW double counting   =     94493.67842504   -94193.91445848
  entropy T*S    EENTRO =        -0.00000000
  eigenvalues    EBANDS =     -2661.75958052
  atomic energy  EATOM  =      8461.08393172
  ---------------------------------------------------
  free energy    TOTEN  =      -411.56491934 eV

  energy without entropy =     -411.56491934  energy(sigma->0) =     -411.56491934


--------------------------------------------------------------------------------------------------------




--------------------------------------- Iteration      1(  12)  ---------------------------------------


    POTLOK:  cpu time    7.8933: real time    7.9443
    SETDIJ:  cpu time    0.3080: real time    0.3090
    TRIAL :  cpu time    6.8924: real time    6.9442
    CORREC:  cpu time    9.7350: real time    9.7995
    CHARGE:  cpu time    0.7971: real time    0.8023
    --------------------------------------------
      LOOP:  cpu time   25.6427: real time   25.8236

 eigenvalue-minimisations  :     0
 total energy-change (2. order) :-0.3659099E-01  (-0.1075690E-01)
 number of electron     216.0000000 magnetization 
 augmentation part       -0.3943204 magnetization 

 Free energy of the ion-electron system (eV)
  ---------------------------------------------------
  alpha Z        PSCENC =        47.94900195
  Ewald energy   TEWEN  =     40970.05347293
  -Hartree energ DENC   =    -47953.78385310
  -exchange      EXHF   =         0.00000000
  -V(xc)+E(xc)   XCENC  =       429.30265283
  PAW double counting   =     94023.66866464   -93723.93701011
  entropy T*S    EENTRO =        -0.00000000
  eigenvalues    EBANDS =     -2665.93837119
  atomic energy  EATOM  =      8461.08393172
  ---------------------------------------------------
  free energy    TOTEN  =      -411.60151033 eV

  energy without entropy =     -411.60151033  energy(sigma->0) =     -411.60151033


--------------------------------------------------------------------------------------------------------




--------------------------------------- Iteration      1(  13)  ---------------------------------------


    POTLOK:  cpu time    7.8812: real time    7.9350
    SETDIJ:  cpu time    0.3853: real time    0.3867
    TRIAL :  cpu time    6.8941: real time    6.9457
    CORREC:  cpu time    9.7184: real time    9.7830
    CHARGE:  cpu time    0.7985: real time    0.8036
    --------------------------------------------
      LOOP:  cpu time   25.7339: real time   25.9149

 eigenvalue-minimisations  :     0
 total energy-change (2. order) :-0.1079141E-01  (-0.2806713E-02)
 number of electron     216.0000000 magnetization 
 augmentation part       -0.3940508 magnetization 

 Free energy of the ion-electron system (eV)
  ---------------------------------------------------
  alpha Z        PSCENC =        47.94900195
  Ewald energy   TEWEN  =     40970.05347293
  -Hartree energ DENC   =    -47952.92718800
  -exchange      EXHF   =         0.00000000
  -V(xc)+E(xc)   XCENC  =       429.27088651
  PAW double counting   =     93789.09708700   -93489.38095040
  entropy T*S    EENTRO =        -0.00000000
  eigenvalues    EBANDS =     -2666.75854344
  atomic energy  EATOM  =      8461.08393172
  ---------------------------------------------------
  free energy    TOTEN  =      -411.61230174 eV

  energy without entropy =     -411.61230174  energy(sigma->0) =     -411.61230174


--------------------------------------------------------------------------------------------------------




--------------------------------------- Iteration      1(  14)  ---------------------------------------


    POTLOK:  cpu time    7.8691: real time    7.9289
    SETDIJ:  cpu time    0.3319: real time    0.3332
    TRIAL :  cpu time    6.8871: real time    6.9400
    CORREC:  cpu time    9.7342: real time    9.8064
    CHARGE:  cpu time    0.7994: real time    0.8046
    --------------------------------------------
      LOOP:  cpu time   25.6558: real time   25.8517

 eigenvalue-minimisations  :     0
 total energy-change (2. order) :-0.2827340E-02  (-0.7238165E-03)
 number of electron     216.0000000 magnetization 
 augmentation part       -0.3939653 magnetization 

 Free energy of the ion-electron system (eV)
  ---------------------------------------------------
  alpha Z        PSCENC =        47.94900195
  Ewald energy   TEWEN  =     40970.05347293
  -Hartree energ DENC   =    -47952.72242377
  -exchange      EXHF   =         0.00000000
  -V(xc)+E(xc)   XCENC  =       429.25989798
  PAW double counting   =     93742.87850195   -93443.16798917
  entropy T*S    EENTRO =        -0.00000000
  eigenvalues    EBANDS =     -2666.94952267
  atomic energy  EATOM  =      8461.08393172
  ---------------------------------------------------
  free energy    TOTEN  =      -411.61512908 eV

  energy without entropy =     -411.61512908  energy(sigma->0) =     -411.61512908


--------------------------------------------------------------------------------------------------------




--------------------------------------- Iteration      1(  15)  ---------------------------------------


    POTLOK:  cpu time    7.8932: real time    7.9476
    SETDIJ:  cpu time    0.3282: real time    0.3296
    TRIAL :  cpu time    6.8647: real time    6.9314
    CORREC:  cpu time    9.7487: real time    9.8116
    CHARGE:  cpu time    0.7996: real time    0.8046
    --------------------------------------------
      LOOP:  cpu time   25.6676: real time   25.8872

 eigenvalue-minimisations  :     0
 total energy-change (2. order) :-0.7335272E-03  (-0.2118440E-03)
 number of electron     216.0000000 magnetization 
 augmentation part       -0.3938952 magnetization 

 Free energy of the ion-electron system (eV)
  ---------------------------------------------------
  alpha Z        PSCENC =        47.94900195
  Ewald energy   TEWEN  =     40970.05347293
  -Hartree energ DENC   =    -47952.55108365
  -exchange      EXHF   =         0.00000000
  -V(xc)+E(xc)   XCENC  =       429.25143334
  PAW double counting   =     93740.35132887   -93440.64146555
  entropy T*S    EENTRO =        -0.00000000
  eigenvalues    EBANDS =     -2667.11248222
  atomic energy  EATOM  =      8461.08393172
  ---------------------------------------------------
  free energy    TOTEN  =      -411.61586261 eV

  energy without entropy =     -411.61586261  energy(sigma->0) =     -411.61586261


--------------------------------------------------------------------------------------------------------




--------------------------------------- Iteration      1(  16)  ---------------------------------------


    POTLOK:  cpu time    7.8797: real time    7.9323
    SETDIJ:  cpu time    0.3345: real time    0.3356
    TRIAL :  cpu time    6.8964: real time    6.9507
    CORREC:  cpu time    9.8007: real time    9.8664
    CHARGE:  cpu time    0.7987: real time    0.8048
    --------------------------------------------
      LOOP:  cpu time   25.7164: real time   25.9231

 eigenvalue-minimisations  :     0
 total energy-change (2. order) :-0.2172159E-03  (-0.7725364E-04)
 number of electron     216.0000000 magnetization 
 augmentation part       -0.3938059 magnetization 

 Free energy of the ion-electron system (eV)
  ---------------------------------------------------
  alpha Z        PSCENC =        47.94900195
  Ewald energy   TEWEN  =     40970.05347293
  -Hartree energ DENC   =    -47952.63587779
  -exchange      EXHF   =         0.00000000
  -V(xc)+E(xc)   XCENC  =       429.25268019
  PAW double counting   =     93722.80985647   -93423.10027558
  entropy T*S    EENTRO =        -0.00000000
  eigenvalues    EBANDS =     -2667.02886971
  atomic energy  EATOM  =      8461.08393172
  ---------------------------------------------------
  free energy    TOTEN  =      -411.61607982 eV

  energy without entropy =     -411.61607982  energy(sigma->0) =     -411.61607982


--------------------------------------------------------------------------------------------------------




--------------------------------------- Iteration      1(  17)  ---------------------------------------


    POTLOK:  cpu time    7.8820: real time    7.9568
    SETDIJ:  cpu time    0.3497: real time    0.3511
    TRIAL :  cpu time    6.8677: real time    6.9397
    CORREC:  cpu time    9.6869: real time    9.7770
    CHARGE:  cpu time    0.7965: real time    0.8032
    --------------------------------------------
      LOOP:  cpu time   25.6232: real time   25.8827

 eigenvalue-minimisations  :     0
 total energy-change (2. order) :-0.8017936E-04  (-0.2947347E-04)
 number of electron     216.0000000 magnetization 
 augmentation part       -0.3938089 magnetization 

 Free energy of the ion-electron system (eV)
  ---------------------------------------------------
  alpha Z        PSCENC =        47.94900195
  Ewald energy   TEWEN  =     40970.05347293
  -Hartree energ DENC   =    -47952.79194396
  -exchange      EXHF   =         0.00000000
  -V(xc)+E(xc)   XCENC  =       429.25772383
  PAW double counting   =     93705.58707574   -93405.87785372
  entropy T*S    EENTRO =        -0.00000000
  eigenvalues    EBANDS =     -2666.87756849
  atomic energy  EATOM  =      8461.08393172
  ---------------------------------------------------
  free energy    TOTEN  =      -411.61616000 eV

  energy without entropy =     -411.61616000  energy(sigma->0) =     -411.61616000


--------------------------------------------------------------------------------------------------------




--------------------------------------- Iteration      1(  18)  ---------------------------------------


    POTLOK:  cpu time    7.8957: real time    7.9463
    SETDIJ:  cpu time    0.3172: real time    0.3182
    TRIAL :  cpu time    6.8898: real time    6.9392
    CORREC:  cpu time    9.7256: real time    9.7893
    CHARGE:  cpu time    0.8000: real time    0.8050
    --------------------------------------------
      LOOP:  cpu time   25.6884: real time   25.8732

 eigenvalue-minimisations  :     0
 total energy-change (2. order) :-0.3111217E-04  (-0.1233241E-04)
 number of electron     216.0000000 magnetization 
 augmentation part       -0.3938322 magnetization 

 Free energy of the ion-electron system (eV)
  ---------------------------------------------------
  alpha Z        PSCENC =        47.94900195
  Ewald energy   TEWEN  =     40970.05347293
  -Hartree energ DENC   =    -47952.81813245
  -exchange      EXHF   =         0.00000000
  -V(xc)+E(xc)   XCENC  =       429.25800905
  PAW double counting   =     93702.42185238   -93402.71206118
  entropy T*S    EENTRO =        -0.00000000
  eigenvalues    EBANDS =     -2666.85226551
  atomic energy  EATOM  =      8461.08393172
  ---------------------------------------------------
  free energy    TOTEN  =      -411.61619112 eV

  energy without entropy =     -411.61619112  energy(sigma->0) =     -411.61619112


--------------------------------------------------------------------------------------------------------




--------------------------------------- Iteration      1(  19)  ---------------------------------------


    POTLOK:  cpu time    7.9008: real time    7.9513
    SETDIJ:  cpu time    0.3039: real time    0.3049
    TRIAL :  cpu time    6.8918: real time    6.9450
    CORREC:  cpu time    9.7922: real time    9.8589
    CHARGE:  cpu time    0.7976: real time    0.8035
    --------------------------------------------
      LOOP:  cpu time   25.7266: real time   25.9072

 eigenvalue-minimisations  :     0
 total energy-change (2. order) :-0.1312369E-04  (-0.5342817E-05)
 number of electron     216.0000000 magnetization 
 augmentation part       -0.3938603 magnetization 

 Free energy of the ion-electron system (eV)
  ---------------------------------------------------
  alpha Z        PSCENC =        47.94900195
  Ewald energy   TEWEN  =     40970.05347293
  -Hartree energ DENC   =    -47952.85413468
  -exchange      EXHF   =         0.00000000
  -V(xc)+E(xc)   XCENC  =       429.25919054
  PAW double counting   =     93707.69617131   -93407.98610087
  entropy T*S    EENTRO =        -0.00000000
  eigenvalues    EBANDS =     -2666.81773714
  atomic energy  EATOM  =      8461.08393172
  ---------------------------------------------------
  free energy    TOTEN  =      -411.61620424 eV

  energy without entropy =     -411.61620424  energy(sigma->0) =     -411.61620424


--------------------------------------------------------------------------------------------------------




--------------------------------------- Iteration      1(  20)  ---------------------------------------


    POTLOK:  cpu time    7.8809: real time    7.9390
    SETDIJ:  cpu time    0.3515: real time    0.3528
    TRIAL :  cpu time    6.8832: real time    6.9348
    CORREC:  cpu time    9.7157: real time    9.7891
    CHARGE:  cpu time    0.7987: real time    0.8045
    --------------------------------------------
      LOOP:  cpu time   25.6782: real time   25.8755

 eigenvalue-minimisations  :     0
 total energy-change (2. order) :-0.5588474E-05  (-0.2293834E-05)
 number of electron     216.0000000 magnetization 
 augmentation part       -0.3938732 magnetization 

 Free energy of the ion-electron system (eV)
  ---------------------------------------------------
  alpha Z        PSCENC =        47.94900195
  Ewald energy   TEWEN  =     40970.05347293
  -Hartree energ DENC   =    -47952.87852710
  -exchange      EXHF   =         0.00000000
  -V(xc)+E(xc)   XCENC  =       429.25985091
  PAW double counting   =     93714.05092897   -93414.34070926
  entropy T*S    EENTRO =        -0.00000000
  eigenvalues    EBANDS =     -2666.79415995
  atomic energy  EATOM  =      8461.08393172
  ---------------------------------------------------
  free energy    TOTEN  =      -411.61620983 eV

  energy without entropy =     -411.61620983  energy(sigma->0) =     -411.61620983


--------------------------------------------------------------------------------------------------------




--------------------------------------- Iteration      1(  21)  ---------------------------------------


    POTLOK:  cpu time    7.9435: real time    8.0004
    SETDIJ:  cpu time    0.2665: real time    0.2741
    TRIAL :  cpu time    6.8823: real time    6.9408
    CORREC:  cpu time    9.6939: real time    9.7643
    CHARGE:  cpu time    0.7978: real time    0.8030
    --------------------------------------------
      LOOP:  cpu time   25.6305: real time   25.8294

 eigenvalue-minimisations  :     0
 total energy-change (2. order) :-0.2293003E-05  (-0.9018916E-06)
 number of electron     216.0000000 magnetization 
 augmentation part       -0.3938642 magnetization 

 Free energy of the ion-electron system (eV)
  ---------------------------------------------------
  alpha Z        PSCENC =        47.94900195
  Ewald energy   TEWEN  =     40970.05347293
  -Hartree energ DENC   =    -47952.87517840
  -exchange      EXHF   =         0.00000000
  -V(xc)+E(xc)   XCENC  =       429.25954856
  PAW double counting   =     93717.08539982   -93417.37511584
  entropy T*S    EENTRO =        -0.00000000
  eigenvalues    EBANDS =     -2666.79727286
  atomic energy  EATOM  =      8461.08393172
  ---------------------------------------------------
  free energy    TOTEN  =      -411.61621212 eV

  energy without entropy =     -411.61621212  energy(sigma->0) =     -411.61621212


--------------------------------------------------------------------------------------------------------




--------------------------------------- Iteration      1(  22)  ---------------------------------------


    POTLOK:  cpu time    7.9003: real time    7.9530
    SETDIJ:  cpu time    0.2975: real time    0.2984
    TRIAL :  cpu time    6.8842: real time    6.9421
    CORREC:  cpu time    9.7355: real time    9.7998
    CHARGE:  cpu time    0.8004: real time    0.8056
    --------------------------------------------
      LOOP:  cpu time   25.6779: real time   25.8594

 eigenvalue-minimisations  :     0
 total energy-change (2. order) :-0.8698116E-06  (-0.3805127E-06)
 number of electron     216.0000000 magnetization 
 augmentation part       -0.3938633 magnetization 

 Free energy of the ion-electron system (eV)
  ---------------------------------------------------
  alpha Z        PSCENC =        47.94900195
  Ewald energy   TEWEN  =     40970.05347293
  -Hartree energ DENC   =    -47952.87718552
  -exchange      EXHF   =         0.00000000
  -V(xc)+E(xc)   XCENC  =       429.25960299
  PAW double counting   =     93716.46907057   -93416.75889940
  entropy T*S    EENTRO =        -0.00000000
  eigenvalues    EBANDS =     -2666.79520822
  atomic energy  EATOM  =      8461.08393172
  ---------------------------------------------------
  free energy    TOTEN  =      -411.61621299 eV

  energy without entropy =     -411.61621299  energy(sigma->0) =     -411.61621299


--------------------------------------------------------------------------------------------------------




--------------------------------------- Iteration      1(  23)  ---------------------------------------


    POTLOK:  cpu time    7.9019: real time    7.9538
    SETDIJ:  cpu time    0.3427: real time    0.3440
    TRIAL :  cpu time    6.8791: real time    6.9411
    CORREC:  cpu time   38.9459: real time   39.2441
    CHARGE:  cpu time    0.7992: real time    0.8050
    --------------------------------------------
      LOOP:  cpu time   54.9059: real time   55.3422

 eigenvalue-minimisations  :     0
 total energy-change (2. order) :-0.3303721E-06  (-0.8621525E-06)
 number of electron     216.0000000 magnetization 
 augmentation part       -0.3938571 magnetization 

 Free energy of the ion-electron system (eV)
  ---------------------------------------------------
  alpha Z        PSCENC =        47.94900195
  Ewald energy   TEWEN  =     40970.05347293
  -Hartree energ DENC   =    -47952.86569250
  -exchange      EXHF   =         0.00000000
  -V(xc)+E(xc)   XCENC  =       429.25920779
  PAW double counting   =     93714.97595541   -93415.26579276
  entropy T*S    EENTRO =        -0.00000000
  eigenvalues    EBANDS =     -2666.80629786
  atomic energy  EATOM  =      8461.08393172
  ---------------------------------------------------
  free energy    TOTEN  =      -411.61621332 eV

  energy without entropy =     -411.61621332  energy(sigma->0) =     -411.61621332


--------------------------------------------------------------------------------------------------------




--------------------------------------- Iteration      1(  24)  ---------------------------------------


    POTLOK:  cpu time    7.9119: real time    7.9701
    SETDIJ:  cpu time    0.2897: real time    0.2908
    TRIAL :  cpu time    6.8882: real time    6.9411
    CORREC:  cpu time    9.7274: real time    9.7960
    CHARGE:  cpu time    0.7986: real time    0.8037
    --------------------------------------------
      LOOP:  cpu time   25.6512: real time   25.8549

 eigenvalue-minimisations  :     0
 total energy-change (2. order) : 0.1660635E-05  (-0.1703052E-05)
 number of electron     216.0000000 magnetization 
 augmentation part       -0.3938722 magnetization 

 Free energy of the ion-electron system (eV)
  ---------------------------------------------------
  alpha Z        PSCENC =        47.94900195
  Ewald energy   TEWEN  =     40970.05347293
  -Hartree energ DENC   =    -47952.85872701
  -exchange      EXHF   =         0.00000000
  -V(xc)+E(xc)   XCENC  =       429.25965912
  PAW double counting   =     93711.40872926   -93411.69877150
  entropy T*S    EENTRO =        -0.00000000
  eigenvalues    EBANDS =     -2666.81350813
  atomic energy  EATOM  =      8461.08393172
  ---------------------------------------------------
  free energy    TOTEN  =      -411.61621166 eV

  energy without entropy =     -411.61621166  energy(sigma->0) =     -411.61621166


--------------------------------------------------------------------------------------------------------




--------------------------------------- Iteration      1(  25)  ---------------------------------------


    POTLOK:  cpu time    7.9219: real time    7.9729
    SETDIJ:  cpu time    0.3333: real time    0.3346
    TRIAL :  cpu time    6.8821: real time    6.9333
    CORREC:  cpu time    9.7035: real time    9.7782
    CHARGE:  cpu time    0.7990: real time    0.8041
    --------------------------------------------
      LOOP:  cpu time   25.6879: real time   25.8721

 eigenvalue-minimisations  :     0
 total energy-change (2. order) :-0.1453009E-05  (-0.3783410E-06)
 number of electron     216.0000000 magnetization 
 augmentation part       -0.3938688 magnetization 

 Free energy of the ion-electron system (eV)
  ---------------------------------------------------
  alpha Z        PSCENC =        47.94900195
  Ewald energy   TEWEN  =     40970.05347293
  -Hartree energ DENC   =    -47952.84511355
  -exchange      EXHF   =         0.00000000
  -V(xc)+E(xc)   XCENC  =       429.25871091
  PAW double counting   =     93712.04221635   -93412.33204170
  entropy T*S    EENTRO =        -0.00000000
  eigenvalues    EBANDS =     -2666.82639171
  atomic energy  EATOM  =      8461.08393172
  ---------------------------------------------------
  free energy    TOTEN  =      -411.61621311 eV

  energy without entropy =     -411.61621311  energy(sigma->0) =     -411.61621311


--------------------------------------------------------------------------------------------------------




--------------------------------------- Iteration      1(  26)  ---------------------------------------


    POTLOK:  cpu time    7.8683: real time    7.9301
    SETDIJ:  cpu time    0.3398: real time    0.3411
    TRIAL :  cpu time    6.8840: real time    6.9428
    CORREC:  cpu time    9.7269: real time    9.7965
    CHARGE:  cpu time    0.7995: real time    0.8047
    --------------------------------------------
      LOOP:  cpu time   25.6852: real time   25.8912

 eigenvalue-minimisations  :     0
 total energy-change (2. order) :-0.3647438E-06  (-0.1487394E-06)
 number of electron     216.0000000 magnetization 
 augmentation part       -0.3938695 magnetization 

 Free energy of the ion-electron system (eV)
  ---------------------------------------------------
  alpha Z        PSCENC =        47.94900195
  Ewald energy   TEWEN  =     40970.05347293
  -Hartree energ DENC   =    -47952.85554554
  -exchange      EXHF   =         0.00000000
  -V(xc)+E(xc)   XCENC  =       429.25910144
  PAW double counting   =     93712.97241082   -93413.26227952
  entropy T*S    EENTRO =        -0.00000000
  eigenvalues    EBANDS =     -2666.81630728
  atomic energy  EATOM  =      8461.08393172
  ---------------------------------------------------
  free energy    TOTEN  =      -411.61621348 eV

  energy without entropy =     -411.61621348  energy(sigma->0) =     -411.61621348


--------------------------------------------------------------------------------------------------------




--------------------------------------- Iteration      1(  27)  ---------------------------------------


    POTLOK:  cpu time    7.9248: real time    7.9910
    SETDIJ:  cpu time    0.2613: real time    0.2649
    TRIAL :  cpu time    6.8876: real time    6.9381
    CORREC:  cpu time    9.7244: real time    9.7903
    CHARGE:  cpu time    0.7992: real time    0.8042
    --------------------------------------------
      LOOP:  cpu time   25.6164: real time   25.8463

 eigenvalue-minimisations  :     0
 total energy-change (2. order) :-0.1475128E-06  (-0.5103413E-07)
 number of electron     216.0000000 magnetization 
 augmentation part       -0.3938712 magnetization 

 Free energy of the ion-electron system (eV)
[...]
      9     -21.5348      2.00000
     10     -19.7051      2.00000
     11     -19.7050      2.00000
     12     -19.7047      2.00000
     13     -19.7040      2.00000
     14     -19.7035      2.00000
     15     -19.7033      2.00000
     16     -18.8142      2.00000
     17     -18.8140      2.00000
     18     -18.8136      2.00000
     19     -18.8134      2.00000
     20     -18.8126      2.00000
     21     -18.8124      2.00000
     22     -16.6712      2.00000
     23     -16.6708      2.00000
     24     -16.6702      2.00000
     25     -16.6700      2.00000
     26     -16.6695      2.00000
     27     -16.6693      2.00000
     28     -15.6777      2.00000
     29     -15.6776      2.00000
     30     -15.6766      2.00000
     31     -15.6764      2.00000
     32     -15.6761      2.00000
     33     -15.6760      2.00000
     34     -14.3393      2.00000
     35     -14.3392      2.00000
     36     -14.3385      2.00000
     37     -14.3384      2.00000
     38     -14.3383      2.00000
     39     -14.3380      2.00000
     40     -12.6125      2.00000
     41     -11.9862      2.00000
     42     -11.9859      2.00000
     43     -11.9854      2.00000
     44     -11.9854      2.00000
     45     -11.9843      2.00000
     46     -11.9840      2.00000
     47     -11.8750      2.00000
     48     -11.8749      2.00000
     49     -11.8742      2.00000
     50     -11.8741      2.00000
     51     -11.8740      2.00000
     52     -11.8739      2.00000
     53     -11.4702      2.00000
     54     -11.3773      2.00000
     55     -11.3771      2.00000
     56     -10.6334      2.00000
     57     -10.5112      2.00000
     58     -10.5110      2.00000
     59     -10.5095      2.00000
     60     -10.5091      2.00000
     61     -10.5089      2.00000
     62     -10.5088      2.00000
     63      -9.5191      2.00000
     64      -9.5180      2.00000
     65      -9.5177      2.00000
     66      -9.5176      2.00000
     67      -9.5175      2.00000
     68      -9.5171      2.00000
     69      -9.2708      2.00000
     70      -9.2696      2.00000
     71      -9.2692      2.00000
     72      -9.2691      2.00000
     73      -9.2689      2.00000
     74      -9.2685      2.00000
     75      -9.2112      2.00000
     76      -9.2110      2.00000
     77      -9.2101      2.00000
     78      -9.2100      2.00000
     79      -9.2099      2.00000
     80      -9.2091      2.00000
     81      -7.8533      2.00000
     82      -7.8532      2.00000
     83      -7.6341      2.00000
     84      -7.6324      2.00000
     85      -7.6322      2.00000
     86      -7.6319      2.00000
     87      -7.6311      2.00000
     88      -7.6310      2.00000
     89      -7.3927      2.00000
     90      -7.3924      2.00000
     91      -7.3922      2.00000
     92      -7.3918      2.00000
     93      -7.3914      2.00000
     94      -7.3912      2.00000
     95      -6.4979      2.00000
     96      -6.4978      2.00000
     97      -6.4975      2.00000
     98      -6.4975      2.00000
     99      -6.4968      2.00000
    100      -6.4966      2.00000
    101      -6.1722      2.00000
    102      -6.1700      2.00000
    103      -4.5200      2.00000
    104      -4.5196      2.00000
    105      -4.5191      2.00000
    106      -4.5190      2.00000
    107      -4.5185      2.00000
    108      -4.5185      2.00000
    109      -1.7241      0.00000
    110      -1.7239      0.00000
    111      -1.7236      0.00000
    112      -1.7235      0.00000
    113      -1.7228      0.00000
    114      -1.7225      0.00000
    115      -0.8984      0.00000
    116      -0.0740      0.00000
    117       0.0821      0.00000
    118       0.1333      0.00000
    119       0.1335      0.00000
    120       0.1339      0.00000
    121       0.1339      0.00000
    122       0.1343      0.00000
    123       0.1354      0.00000
    124       0.1937      0.00000
    125       0.2558      0.00000
    126       0.2934      0.00000
    127       0.5641      0.00000
    128       0.5934      0.00000
    129       0.5948      0.00000
    130       0.6584      0.00000
    131       0.6963      0.00000
    132       0.8966      0.00000
    133       1.0418      0.00000
    134       1.1984      0.00000
    135       1.2144      0.00000
    136       1.2185      0.00000
    137       1.2304      0.00000
    138       1.2441      0.00000
    139       1.2636      0.00000
    140       1.2897      0.00000
    141       1.7036      0.00000
    142       1.7244      0.00000
    143       1.7382      0.00000
    144       1.7603      0.00000
    145       1.8284      0.00000
    146       1.8638      0.00000
    147       1.8640      0.00000
    148       1.8643      0.00000
    149       1.8646      0.00000
    150       1.8648      0.00000
    151       1.8652      0.00000
    152       2.0549      0.00000
    153       2.0605      0.00000
    154       2.1911      0.00000
    155       2.1918      0.00000
    156       2.2030      0.00000
    157       2.2181      0.00000
    158       2.2682      0.00000
    159       2.2763      0.00000
    160       2.3431      0.00000
    161       2.3721      0.00000
    162       2.4632      0.00000
    163       3.0067      0.00000
    164       3.5427      0.00000
    165       4.3716      0.00000
    166       4.5210      0.00000
    167       4.5437      0.00000
    168       4.5612      0.00000


--------------------------------------------------------------------------------------------------------


 soft charge-density along one line, spin component           1
         0         1         2         3         4         5         6         7         8         9
 total charge-density along one line
 
 pseudopotential strength for first ion, spin component:           1
 12.687  21.351   0.000   0.000   0.000   0.000   0.000   0.000
 21.351  35.929   0.000   0.000   0.000   0.000   0.000   0.000
  0.000   0.000  -3.244  -0.000   0.000  -5.814  -0.000   0.000
  0.000   0.000  -0.000  -3.251  -0.000  -0.000  -5.828  -0.000
  0.000   0.000   0.000  -0.000  -3.244   0.000  -0.000  -5.814
  0.000   0.000  -5.814  -0.000   0.000 -10.398  -0.000   0.000
  0.000   0.000  -0.000  -5.828  -0.000  -0.000 -10.422  -0.000
  0.000   0.000   0.000  -0.000  -5.814   0.000  -0.000 -10.398
 total augmentation occupancy for first ion, spin component:           1
  6.917  -2.317  -0.000  -0.002  -0.000   0.000   0.001   0.000
 -2.317   0.818   0.000   0.001   0.000  -0.000  -0.000  -0.000
 -0.000   0.000   6.628  -0.007   0.000  -2.167   0.003  -0.000
 -0.002   0.001  -0.007   2.819  -0.000   0.003  -0.689   0.000
 -0.000   0.000   0.000  -0.000   6.628  -0.000   0.000  -2.167
  0.000  -0.000  -2.167   0.003  -0.000   0.725  -0.001   0.000
  0.001  -0.000   0.003  -0.689   0.000  -0.001   0.176  -0.000
  0.000  -0.000  -0.000   0.000  -2.167   0.000  -0.000   0.724


------------------------ aborting loop because EDIFF is reached ----------------------------------------


    FORLOC:  cpu time    0.1330: real time    0.1339
    FORNL :  cpu time    3.5844: real time    3.6158
    FORCOR:  cpu time    7.8934: real time    7.9553
    OFIELD:  cpu time    0.0029: real time    0.0029

 VOLUME and BASIS-vectors are now :
 -----------------------------------------------------------------------------
  energy-cutoff  :     1000.00
  volume of cell :     3288.85
      direct lattice vectors                 reciprocal lattice vectors
    12.325000000  0.000000000  0.000000000     0.081135903  0.046843835  0.000000000
    -6.162500000 10.673763102  0.000000000     0.000000000  0.093687670  0.000000000
     0.000000000  0.000000000 25.000000000     0.000000000  0.000000000  0.040000000

  length of vectors
    12.325000000 12.325000000 25.000000000     0.093687670  0.093687670  0.040000000


 FORCES acting on ions:
    Electron-Ion                     Ewald-Force                    Non-Local-Force
 -----------------------------------------------------------------------------------------------
   0.466E+00 0.422E+00 0.119E+02   -.467E+00 -.423E+00 -.119E+02   0.408E-02 -.650E-03 0.585E-02
   0.636E+00 0.380E+00 0.128E+02   -.639E+00 -.378E+00 -.128E+02   0.236E-02 -.286E-02 -.582E-02
   0.251E+00 0.691E+00 0.127E+02   -.253E+00 -.691E+00 -.127E+02   -.157E-03 0.110E-01 -.199E-02
   0.316E+00 0.468E+00 0.147E+02   -.313E+00 -.468E+00 -.147E+02   0.113E-01 0.610E-03 -.167E-01
   0.543E+00 0.152E+00 0.124E+02   -.541E+00 -.153E+00 -.124E+02   -.961E-03 -.498E-02 0.413E-02
   0.555E+00 -.128E+00 0.126E+02   -.558E+00 0.129E+00 -.126E+02   -.644E-02 0.352E-02 -.176E-02
   0.592E+00 0.302E+00 0.148E+02   -.593E+00 -.303E+00 -.148E+02   0.111E-01 -.187E-01 -.720E-02
   0.630E+00 -.177E+00 0.160E+02   -.635E+00 0.179E+00 -.160E+02   -.769E-02 -.484E-02 -.594E-02
   -.290E+00 0.714E+00 0.131E+02   0.293E+00 -.716E+00 -.131E+02   0.588E-03 -.133E-01 -.503E-02
   -.340E+00 0.313E+00 0.151E+02   0.340E+00 -.314E+00 -.151E+02   -.249E-01 0.142E-01 0.142E-02
   0.144E+00 -.143E+00 0.118E+02   -.141E+00 0.143E+00 -.118E+02   0.392E-02 -.270E-02 0.103E-02
   0.152E+00 -.122E+00 0.116E+02   -.153E+00 0.123E+00 -.116E+02   -.622E-02 0.317E-02 0.694E-02
   0.127E+00 -.471E+00 0.168E+02   -.126E+00 0.473E+00 -.168E+02   0.257E-01 -.703E-02 -.318E-02
   0.877E-01 -.777E+00 0.143E+02   -.911E-01 0.779E+00 -.143E+02   0.303E-02 0.720E-02 -.161E-01
   -.520E+00 0.308E+00 0.120E+02   0.522E+00 -.309E+00 -.120E+02   0.743E-02 -.408E-02 0.853E-02
   -.636E+00 0.158E+00 0.121E+02   0.635E+00 -.158E+00 -.121E+02   -.106E-02 0.477E-02 -.414E-02
   -.862E-01 -.396E-01 0.112E+02   0.887E-01 0.380E-01 -.112E+02   0.348E-03 0.138E-03 0.227E-02
   0.461E-01 0.310E+00 0.113E+02   -.459E-01 -.311E+00 -.113E+02   -.251E-02 0.127E-02 0.935E-02
   -.144E+00 -.723E+00 0.130E+02   0.144E+00 0.724E+00 -.130E+02   0.552E-02 -.119E-02 0.117E-03
   -.883E-01 -.454E+00 0.119E+02   0.857E-01 0.454E+00 -.119E+02   -.549E-03 -.562E-03 -.511E-03
   0.701E+00 -.285E+00 0.138E+02   -.701E+00 0.285E+00 -.137E+02   -.230E-02 -.174E-02 -.157E-01
   0.516E+00 -.408E+00 0.130E+02   -.518E+00 0.409E+00 -.130E+02   -.691E-02 0.545E-02 -.804E-03
   -.109E+00 0.180E+00 0.165E+02   0.105E+00 -.178E+00 -.165E+02   -.999E-02 0.101E-01 -.124E-02
   -.178E+00 -.287E+00 0.165E+02   0.181E+00 0.285E+00 -.165E+02   0.118E-01 -.143E-01 -.128E-01
   0.272E+00 -.990E-01 0.119E+02   -.271E+00 0.977E-01 -.119E+02   0.378E-02 -.267E-02 -.207E-02
   0.921E-01 0.226E+00 0.117E+02   -.925E-01 -.225E+00 -.117E+02   -.459E-02 0.304E-02 0.659E-02
   -.751E+00 0.389E-01 0.135E+02   0.755E+00 -.408E-01 -.135E+02   0.125E-01 0.735E-02 -.254E-02
   -.668E+00 -.295E+00 0.129E+02   0.669E+00 0.295E+00 -.129E+02   -.784E-02 0.880E-02 0.100E-03
   0.262E+00 -.578E+00 0.131E+02   -.261E+00 0.578E+00 -.131E+02   0.371E-02 0.254E-02 -.572E-02
   0.299E-01 -.252E+00 0.121E+02   -.319E-01 0.253E+00 -.121E+02   -.491E-02 0.242E-02 -.110E-02
   -.479E+00 -.460E+00 0.138E+02   0.477E+00 0.461E+00 -.138E+02   -.113E-01 -.763E-02 -.144E-01
   -.361E+00 -.698E+00 0.127E+02   0.362E+00 0.697E+00 -.127E+02   0.618E-03 -.593E-03 0.119E-02
   0.196E-01 0.166E+00 0.115E+02   -.191E-01 -.167E+00 -.115E+02   0.450E-02 -.441E-02 0.789E-02
   0.869E-01 0.133E+00 0.116E+02   -.896E-01 -.132E+00 -.116E+02   -.249E-02 0.463E-02 -.223E-03
   -.337E+00 0.662E-01 0.117E+02   0.340E+00 -.672E-01 -.118E+02   0.423E-02 -.247E-02 0.701E-02
   -.292E+00 -.145E+00 0.117E+02   0.291E+00 0.146E+00 -.117E+02   -.333E-02 0.205E-02 0.458E-02
   -.542E+00 -.311E+00 0.118E+02   0.545E+00 0.309E+00 -.118E+02   -.125E-03 0.801E-03 0.339E-02
   -.365E+00 -.299E+00 0.115E+02   0.366E+00 0.300E+00 -.115E+02   -.331E-02 0.122E-02 0.891E-02
   -.341E+00 -.424E+00 0.117E+02   0.340E+00 0.425E+00 -.117E+02   -.258E-02 0.430E-03 0.424E-02
   -.486E-01 -.127E+00 0.114E+02   0.496E-01 0.126E+00 -.114E+02   0.175E-02 0.733E-03 0.703E-02
   0.133E+00 0.322E+00 0.113E+02   -.134E+00 -.322E+00 -.113E+02   -.379E-02 0.135E-02 0.654E-02
   0.397E+00 0.578E+00 0.118E+02   -.395E+00 -.579E+00 -.118E+02   -.956E-03 -.116E-02 0.696E-02
   0.540E-01 0.523E+00 0.115E+02   -.513E-01 -.525E+00 -.115E+02   0.368E-03 0.137E-03 0.250E-02
   0.143E-01 0.742E+00 0.123E+02   -.140E-01 -.743E+00 -.124E+02   -.743E-02 0.115E-02 0.488E-02
   -.106E+00 0.189E+00 0.118E+02   0.108E+00 -.191E+00 -.118E+02   0.418E-02 -.313E-02 0.263E-02
   -.349E+00 0.471E+00 0.121E+02   0.349E+00 -.471E+00 -.121E+02   -.538E-02 -.234E-03 -.409E-03
   -.123E+00 -.238E+00 0.119E+02   0.124E+00 0.237E+00 -.119E+02   0.559E-02 -.107E-02 0.683E-02
   -.217E+00 0.714E-01 0.115E+02   0.215E+00 -.707E-01 -.115E+02   -.378E-02 0.321E-02 -.206E-02
   0.112E-01 -.139E+00 0.115E+02   -.111E-01 0.139E+00 -.115E+02   0.382E-02 -.290E-02 0.572E-02
   0.225E+00 0.165E+00 0.114E+02   -.227E+00 -.164E+00 -.114E+02   -.869E-03 0.181E-02 0.338E-02
   -.387E-02 0.291E-01 -.157E+03   -.336E-03 -.254E-01 0.158E+03   -.284E-02 0.194E-02 -.322E-04
   -.229E+03 0.156E+03 -.249E+03   0.279E+03 -.190E+03 0.252E+03   -.513E+02 0.349E+02 -.344E+01
   0.229E+03 -.156E+03 -.227E+03   -.279E+03 0.190E+03 0.224E+03   0.513E+02 -.349E+02 0.310E+01
 -----------------------------------------------------------------------------------------------
   -.748E-02 0.141E-01 0.343E+00   0.114E-12 -.853E-13 0.284E-13   0.739E-02 -.141E-01 -.343E+00
 
 
 POSITION                                       TOTAL-FORCE (eV/Angst)
 -----------------------------------------------------------------------------------
     11.98348      0.00342      0.01417         0.003253     -0.001755     -0.000930
     -0.34154      1.42665      0.01100        -0.000605      0.000028     -0.003611
      2.12355      0.00315      0.01249        -0.001915      0.010922     -0.006517
      2.12326      1.42653      0.00641         0.013699      0.001287     -0.008443
     10.75099      2.13819      0.01213         0.000560     -0.005749     -0.000098
     -1.57382      3.56123      0.01110        -0.008962      0.004640     -0.001519
      0.89078      2.13854      0.00548         0.009766     -0.019214      0.002248
      0.89099      3.56147      0.00181        -0.011619     -0.002526      0.011728
      4.58864      0.00346      0.01135         0.003557     -0.015592     -0.003769
      4.58894      1.42623      0.00646        -0.023696      0.013395      0.013538
      9.51854      4.27281      0.01369         0.006532     -0.003044      0.000191
     -2.80632      5.69591      0.01434        -0.006601      0.003416      0.000778
      2.12300      4.27302      0.00000         0.025225     -0.005146      0.020298
      2.12335      5.69594      0.00581        -0.000516      0.008953     -0.002739
      7.05344      0.00333      0.01399         0.009273     -0.005272     -0.000231
      7.05353      1.42635      0.01368        -0.001768      0.004978     -0.003661
      8.28610      6.40752      0.01601         0.002840     -0.001440     -0.000727
     -4.03885      7.83070      0.01636        -0.002276      0.000914     -0.000014
      3.35586      6.40753      0.01007         0.005642      0.000508     -0.001350
      3.35599      7.83072      0.01320        -0.003120     -0.000043     -0.000710
     -0.34146      4.27290      0.00723        -0.001718     -0.001515     -0.004568
     -0.34138      5.69591      0.00946        -0.009103      0.006523     -0.001081
      3.35624      2.13791      0.00222        -0.013904      0.012080      0.015743
      3.35573      3.56155      0.00139         0.013832     -0.016139      0.008347
     -1.57395      6.40758      0.01311         0.005324     -0.003909     -0.000632
     -1.57385      7.83068      0.01438        -0.004887      0.003806      0.000093
      5.82093      2.13784      0.01033         0.015791      0.005180     -0.003153
      5.82114      3.56097      0.01156        -0.006538      0.008698     -0.003951
      0.89092      6.40755      0.00907         0.004665      0.002238     -0.002313
      0.89106      7.83068      0.01235        -0.006756      0.003913      0.000278
      4.58871      4.27293      0.00850        -0.013188     -0.006389     -0.010950
      4.58852      5.69606      0.01149         0.002088     -0.001402     -0.004079
      9.51845      0.00337      0.01490         0.004847     -0.004667      0.000243
      9.51855      1.42644      0.01438        -0.005130      0.005368     -0.000295
      8.28593      2.13803      0.01453         0.006775     -0.003340      0.000636
      8.28613      3.56115      0.01464        -0.004437      0.002240      0.000011
      7.05356      4.27269      0.01457         0.002530     -0.001128     -0.000504
      7.05362      5.69588      0.01553        -0.002555      0.001615     -0.000008
      5.82112      6.40755      0.01489        -0.003086      0.001609     -0.000024
      5.82102      7.83073      0.01579         0.002773      0.000187     -0.000205
      7.05363      8.54227      0.01631        -0.004707      0.001351      0.001115
     -5.27149      9.96549      0.01495         0.000359     -0.001988     -0.002046
     -2.80638      8.54234      0.01558         0.003097     -0.001303     -0.001081
     -2.80627      9.96553      0.01362        -0.006982     -0.000034     -0.003749
     -0.34149      8.54239      0.01378         0.005736     -0.004925      0.000221
     -0.34138      9.96550      0.01354        -0.005916     -0.000010     -0.001142
      2.12343      8.54232      0.01336         0.005948     -0.001572      0.000739
      2.12354      9.96544      0.01469        -0.005089      0.003765     -0.001800
      4.58846      8.54235      0.01505         0.003756     -0.002780      0.001065
      4.58853      9.96550      0.01517        -0.002673      0.003312      0.000219
      3.04930      2.68154      8.90899        -0.006985      0.005588      0.033648
      4.02070      2.02068      8.97341        -0.661739      0.449860     -0.059623
      2.07767      3.34267      8.84953         0.668600     -0.455492      0.024381
 -----------------------------------------------------------------------------------
    total drift:                               -0.000093     -0.000015      0.000247


--------------------------------------------------------------------------------------------------------



  FREE ENERGIE OF THE ION-ELECTRON SYSTEM (eV)
  ---------------------------------------------------
  free  energy   TOTEN  =      -411.61621366 eV

  energy  without entropy=     -411.61621366  energy(sigma->0) =     -411.61621366
 


--------------------------------------------------------------------------------------------------------


    POTLOK:  cpu time    8.5049: real time    8.5576


--------------------------------------------------------------------------------------------------------


 writing wavefunctions
     LOOP+:  cpu time  774.9847: real time  781.3466
    4ORBIT:  cpu time    0.0000: real time    0.0000

 total amount of memory used by VASP MPI-rank0   551512. kBytes
=======================================================================

   base      :      30000. kBytes
   nonl-proj :     230539. kBytes
   fftplans  :      40716. kBytes
   grid      :     216018. kBytes
   one-center:        162. kBytes
   wavefun   :      34077. kBytes
 
  
  
 General timing and accounting informations for this job:
 ========================================================
  
                  Total CPU time used (sec):      819.628
                            User time (sec):      775.236
                          System time (sec):       44.392
                         Elapsed time (sec):      827.222
  
                   Maximum memory used (kb):     1359996.
                   Average memory used (kb):          N/A
  
                          Minor page faults:       468868
                          Major page faults:           84
                 Voluntary context switches:         3962
