 vasp.6.2.1 16May21 (build Nov 06 2021 14:46:37) complex                        
  
 executed on             LinuxIFC date 2025.05.13  19:41:12
 running on  112 total cores
 distrk:  each k-point on   56 cores,    2 groups
 distr:  one band on NCORE=   1 cores,   56 groups


--------------------------------------------------------------------------------------------------------


 INCAR:
   ALGO = Conjugate
   KPAR = 2
   NCORE = 32
   ISMEAR = 0
   SIGMA = 0.01
   PREC = Accurate
   EDIFF = 1E-7
   ENCUT = 1000
   ISIF = 0
   GGA = BO
   PARAM1 = 0.1833333333
   PARAM2 = 0.2200000000
   LUSE_VDW = .TRUE.
   AGGAC = 0.0000
   LASPH = .TRUE.
   SYMPREC = 1E-7

 POTCAR:    PAW_PBE C_h 06Feb2004                 
 POTCAR:    PAW_PBE O_h 06Feb2004                 
 -----------------------------------------------------------------------------
|                                                                             |
|           W    W    AA    RRRRR   N    N  II  N    N   GGGG   !!!           |
|           W    W   A  A   R    R  NN   N  II  NN   N  G    G  !!!           |
|           W    W  A    A  R    R  N N  N  II  N N  N  G       !!!           |
|           W WW W  AAAAAA  RRRRR   N  N N  II  N  N N  G  GGG   !            |
|           WW  WW  A    A  R   R   N   NN  II  N   NN  G    G                |
|           W    W  A    A  R    R  N    N  II  N    N   GGGG   !!!           |
|                                                                             |
|     The value NCORE = 32 specified in the INCAR file was overwritten,       |
|     because it was not compatible with the 56 processes available:          |
|     NCORE = 1                                                               |
|     was used instead, please check that this makes sense for your           |
|     machine.                                                                |
|                                                                             |
 -----------------------------------------------------------------------------

 -----------------------------------------------------------------------------
|                                                                             |
|           W    W    AA    RRRRR   N    N  II  N    N   GGGG   !!!           |
|           W    W   A  A   R    R  NN   N  II  NN   N  G    G  !!!           |
|           W    W  A    A  R    R  N N  N  II  N N  N  G       !!!           |
|           W WW W  AAAAAA  RRRRR   N  N N  II  N  N N  G  GGG   !            |
|           WW  WW  A    A  R   R   N   NN  II  N   NN  G    G                |
|           W    W  A    A  R    R  N    N  II  N    N   GGGG   !!!           |
|                                                                             |
|     For optimal performance we recommend to set                             |
|       NCORE = 2 up to number-of-cores-per-socket                            |
|     NCORE specifies how many cores store one orbital (NPAR=cpu/NCORE).      |
|     This setting can greatly improve the performance of VASP for DFT.       |
|     The default, NCORE=1 might be grossly inefficient on modern             |
|     multi-core architectures or massively parallel machines. Do your        |
|     own testing! More info at https://www.vasp.at/wiki/index.php/NCORE      |
|     Unfortunately you need to use the default for GW and RPA                |
|     calculations (for HF NCORE is supported but not extensively tested      |
|     yet).                                                                   |
|                                                                             |
 -----------------------------------------------------------------------------

 -----------------------------------------------------------------------------
|                                                                             |
|               ----> ADVICE to this user running VASP <----                  |
|                                                                             |
|     You have switched on vdW-DFT.                                           |
|     This routine was written and supplied by Jiri Klimes. We recommend      |
|     that you carefully read and cite the following publications:            |
|       J. Klimes, D.R. Bowler, A. Michelides                                 |
|          J. Phys.: Cond Matt. 22 022201 (2010)                              |
|       J. Klimes, D.R. Bowler, A. Michelides                                 |
|          Phys. Rev. B. 83, 195131 (2011)                                    |
|     and references therein.                                                 |
|                                                                             |
 -----------------------------------------------------------------------------

 POTCAR:    PAW_PBE C_h 06Feb2004                 
   VRHFIN =C: s2p2                                                                                  
   LEXCH  = PE                                                                                      
   EATOM  =   147.1560 eV,   10.8157 Ry                                                             
                                                                                                    
   TITEL  = PAW_PBE C_h 06Feb2004                                                                   
   LULTRA =        F    use ultrasoft PP ?                                                          
   IUNSCR =        1    unscreen: 0-lin 1-nonlin 2-no                                               
   RPACOR =    0.800    partial core radius                                                         
   POMASS =   12.011; ZVAL   =    4.000    mass and valenz                                          
   RCORE  =    1.100    outmost cutoff radius                                                       
   RWIGS  =    1.630; RWIGS  =    0.863    wigner-seitz radius (au A)                               
   ENMAX  =  700.000; ENMIN  =  500.000 eV                                                          
   ICORE  =        2    local potential                                                             
   LCOR   =        T    correct aug charges                                                         
   LPAW   =        T    paw PP                                                                      
   EAUG   =  946.768                                                                                
   DEXC   =    0.000                                                                                
   RMAX   =    1.128    core radius for proj-oper                                                   
   RAUG   =    1.300    factor for augmentation sphere                                              
   RDEP   =    1.162    radius for radial grids                                                     
   RDEPT  =    1.088    core radius for aug-charge                                                  
                                                                                                    
   Atomic configuration                                                                             
    4 entries                                                                                       
     n  l   j            E        occ.                                                              
     1  0  0.50      -273.3789   2.0000                                                             
     2  0  0.50       -13.7508   2.0000                                                             
     2  1  0.50        -5.2854   2.0000                                                             
     3  2  1.50        -5.4423   0.0000                                                             
   Description                                                                                      
     l       E           TYP  RCUT    TYP  RCUT                                                     
     0    -13.7508458     23  1.100                                                                 
     0     -8.2022199     23  1.100                                                                 
     1     -5.2854383     23  1.100                                                                 
     1      1.1560700     23  1.100                                                                 
     2     -5.4423304      7  1.100                                                                 
  local pseudopotential read in
  partial core-charges read in
  partial kinetic energy density read in
  atomic valenz-charges read in
  non local Contribution for L=           0  read in
    real space projection operators read in
  non local Contribution for L=           0  read in
    real space projection operators read in
  non local Contribution for L=           1  read in
    real space projection operators read in
  non local Contribution for L=           1  read in
    real space projection operators read in
    PAW grid and wavefunctions read in
 
   number of l-projection  operators is LMAX  =           4
   number of lm-projection operators is LMMAX =           8
 
 POTCAR:    PAW_PBE O_h 06Feb2004                 
   VRHFIN =O: s2p4                                                                                  
   LEXCH  = PE                                                                                      
   EATOM  =   432.3788 eV,   31.7789 Ry                                                             
                                                                                                    
   TITEL  = PAW_PBE O_h 06Feb2004                                                                   
   LULTRA =        F    use ultrasoft PP ?                                                          
   IUNSCR =        1    unscreen: 0-lin 1-nonlin 2-no                                               
   RPACOR =    0.800    partial core radius                                                         
   POMASS =   16.000; ZVAL   =    6.000    mass and valenz                                          
   RCORE  =    1.100    outmost cutoff radius                                                       
   RWIGS  =    1.400; RWIGS  =    0.741    wigner-seitz radius (au A)                               
   ENMAX  =  700.000; ENMIN  =  500.000 eV                                                          
   ICORE  =        2    local potential                                                             
   LCOR   =        T    correct aug charges                                                         
   LPAW   =        T    paw PP                                                                      
   EAUG   =  888.804                                                                                
   DEXC   =    0.000                                                                                
   RMAX   =    1.128    core radius for proj-oper                                                   
   RAUG   =    1.300    factor for augmentation sphere                                              
   RDEP   =    1.125    radius for radial grids                                                     
   RDEPT  =    1.088    core radius for aug-charge                                                  
                                                                                                    
   Atomic configuration                                                                             
    4 entries                                                                                       
     n  l   j            E        occ.                                                              
     1  0  0.50      -514.6923   2.0000                                                             
     2  0  0.50       -23.9615   2.0000                                                             
     2  1  0.50        -9.0305   4.0000                                                             
     3  2  1.50        -9.5241   0.0000                                                             
   Description                                                                                      
     l       E           TYP  RCUT    TYP  RCUT                                                     
     0    -23.9615319     23  1.100                                                                 
     0    -25.3221145     23  1.100                                                                 
     1     -9.0304911     23  1.100                                                                 
     1     -5.4802209     23  1.100                                                                 
     2     -9.5240782      7  1.100                                                                 
  local pseudopotential read in
  partial core-charges read in
  partial kinetic energy density read in
  atomic valenz-charges read in
  non local Contribution for L=           0  read in
    real space projection operators read in
  non local Contribution for L=           0  read in
    real space projection operators read in
  non local Contribution for L=           1  read in
    real space projection operators read in
  non local Contribution for L=           1  read in
    real space projection operators read in
    PAW grid and wavefunctions read in
 
   number of l-projection  operators is LMAX  =           4
   number of lm-projection operators is LMMAX =           8
 
 -----------------------------------------------------------------------------
|                                                                             |
|               ----> ADVICE to this user running VASP <----                  |
|                                                                             |
|     You have a (more or less) 'large supercell' and for larger cells it     |
|     might be more efficient to use real-space projection operators.         |
|     Therefore, try LREAL= Auto in the INCAR file.                           |
|     Mind: For very accurate calculation, you might also keep the            |
|     reciprocal projection scheme (i.e. LREAL=.FALSE.).                      |
|                                                                             |
 -----------------------------------------------------------------------------

 -----------------------------------------------------------------------------
|                                                                             |
|               ----> ADVICE to this user running VASP <----                  |
|                                                                             |
|     You enforced a specific xc type in the INCAR file but a different       |
|     type was found in the POTCAR file.                                      |
|     I HOPE YOU KNOW WHAT YOU ARE DOING!                                     |
|                                                                             |
 -----------------------------------------------------------------------------

  PAW_PBE C_h 06Feb2004                 :
 energy of atom  1       EATOM= -147.1560
 kinetic energy error for atom=    0.0031 (will be added to EATOM!!)
  PAW_PBE O_h 06Feb2004                 :
 energy of atom  2       EATOM= -432.3788
 kinetic energy error for atom=    0.0171 (will be added to EATOM!!)
 
 
 POSCAR: C  O
  positions in cartesian coordinates
  No initial velocities read in
 exchange correlation table for  LEXCH =       42
   RHO(1)=    0.500       N(1)  =     2000
   RHO(2)=  100.500       N(2)  =     4000
 


--------------------------------------------------------------------------------------------------------


 ion  position               nearest neighbor table
   1  0.972  0.000  0.001-  50 1.42   2 1.42  42 1.42
   2  0.039  0.134  0.000-   5 1.42   7 1.42   1 1.42
   3  0.172  0.000  0.000-  42 1.42  44 1.42   4 1.42
   4  0.239  0.134  0.000-   7 1.42   3 1.42  23 1.42
   5  0.972  0.200  0.000-   6 1.42   2 1.42  34 1.42
   6  0.039  0.334  0.000-   5 1.42  21 1.42  11 1.42
   7  0.172  0.200  0.000-   8 1.42   2 1.42   4 1.42
   8  0.239  0.334  0.000-  13 1.42   7 1.42  21 1.42
   9  0.372  0.000  0.000-  10 1.42  44 1.42  46 1.42
  10  0.439  0.134  0.000-  27 1.42   9 1.42  23 1.42
  11  0.972  0.400  0.001-  12 1.42  36 1.42   6 1.42
  12  0.039  0.534  0.001-  25 1.42  11 1.42  17 1.42
  13  0.372  0.400  0.000-   8 1.42  14 1.42  24 1.42
  14  0.439  0.534  0.000-  13 1.42  29 1.42  19 1.42
  15  0.572  0.000  0.001-  46 1.42  16 1.42  48 1.42
  16  0.639  0.134  0.001-  15 1.42  35 1.42  27 1.42
  17  0.972  0.600  0.001-  38 1.42  18 1.42  12 1.42
  18  0.039  0.734  0.001-  43 1.42  41 1.42  17 1.42
  19  0.572  0.600  0.000-  14 1.42  20 1.42  32 1.42
  20  0.639  0.734  0.001-  49 1.42  19 1.42  47 1.42
  21  0.172  0.400  0.000-  22 1.42   8 1.42   6 1.42
  22  0.239  0.534  0.000-  21 1.42  29 1.42  25 1.42
  23  0.372  0.200  0.000-  10 1.42   4 1.42  24 1.42
  24  0.439  0.334  0.000-  13 1.42  31 1.42  23 1.42
  25  0.172  0.600  0.001-  26 1.42  12 1.42  22 1.42
  26  0.239  0.734  0.001-  25 1.42  45 1.42  43 1.42
  27  0.572  0.200  0.000-  10 1.42  28 1.42  16 1.42
  28  0.639  0.334  0.000-  27 1.42  37 1.42  31 1.42
  29  0.372  0.600  0.000-  22 1.42  14 1.42  30 1.42
  30  0.439  0.734  0.000-  47 1.42  29 1.42  45 1.42
  31  0.572  0.400  0.000-  32 1.42  28 1.42  24 1.42
  32  0.639  0.534  0.000-  31 1.42  39 1.42  19 1.42
  33  0.772  0.000  0.001-  34 1.42  48 1.42  50 1.42
  34  0.839  0.134  0.001-  33 1.42   5 1.42  35 1.42
  35  0.772  0.200  0.001-  36 1.42  16 1.42  34 1.42
  36  0.839  0.334  0.001-  35 1.42  11 1.42  37 1.42
  37  0.772  0.400  0.001-  28 1.42  38 1.42  36 1.42
  38  0.839  0.534  0.001-  17 1.42  37 1.42  39 1.42
  39  0.772  0.600  0.001-  40 1.42  38 1.42  32 1.42
  40  0.839  0.734  0.001-  39 1.42  49 1.42  41 1.42
  41  0.972  0.800  0.001-  18 1.42  42 1.42  40 1.42
  42  0.039  0.934  0.001-   3 1.42  41 1.42   1 1.42
  43  0.172  0.800  0.001-  18 1.42  44 1.42  26 1.42
  44  0.239  0.934  0.001-   9 1.42  43 1.42   3 1.42
  45  0.372  0.800  0.001-  26 1.42  46 1.42  30 1.42
  46  0.439  0.934  0.001-  15 1.42  45 1.42   9 1.42
  47  0.572  0.800  0.001-  30 1.42  48 1.42  20 1.42
  48  0.639  0.934  0.001-  47 1.42  33 1.42  15 1.42
  49  0.772  0.800  0.001-  50 1.42  20 1.42  40 1.42
  50  0.839  0.934  0.001-  49 1.42   1 1.42  33 1.42
  51  0.373  0.251  0.130-  52 1.18  53 1.18
  52  0.421  0.189  0.133-  51 1.18
  53  0.325  0.313  0.128-  51 1.18
 
  LATTYP: Found a hexagonal cell.
 ALAT       =    12.3250000000
 C/A-ratio  =     2.0283975659
  
  Lattice vectors:
  
 A1 = (  12.3250000000,   0.0000000000,   0.0000000000)
 A2 = (  -6.1625000000,  10.6737631016,   0.0000000000)
 A3 = (   0.0000000000,   0.0000000000,  25.0000000000)


Analysis of symmetry for initial positions (statically):
=====================================================================
 Subroutine PRICEL returns:
 Original cell was already a primitive cell.
 

 Routine SETGRP: Setting up the symmetry group for a 
 hexagonal supercell.


 Subroutine GETGRP returns: Found  1 space group operations
 (whereof  1 operations were pure point group operations)
 out of a pool of 24 trial point group operations.


The static configuration has the point symmetry C_1 .


Analysis of symmetry for dynamics (positions and initial velocities):
=====================================================================
 Subroutine PRICEL returns:
 Original cell was already a primitive cell.
 

 Routine SETGRP: Setting up the symmetry group for a 
 hexagonal supercell.


 Subroutine GETGRP returns: Found  1 space group operations
 (whereof  1 operations were pure point group operations)
 out of a pool of 24 trial point group operations.


The dynamic configuration has the point symmetry C_1 .


 Subroutine INISYM returns: Found  1 space group operations
 (whereof  1 operations are pure point group operations),
 and found     1 'primitive' translations


----------------------------------------------------------------------------------------

                                     Primitive cell                                     

  volume of cell :    3288.8533

  direct lattice vectors                    reciprocal lattice vectors
    12.325000000  0.000000000  0.000000000     0.081135903  0.046843835  0.000000000
    -6.162500000 10.673763102  0.000000000     0.000000000  0.093687670  0.000000000
     0.000000000  0.000000000 25.000000000     0.000000000  0.000000000  0.040000000

  length of vectors
    12.325000000 12.325000000 25.000000000     0.093687670  0.093687670  0.040000000

  position of ions in fractional coordinates (direct lattice)
     0.972450841  0.000320818  0.000566711
     0.039118382  0.133659505  0.000440173
     0.172443627  0.000295449  0.000499628
     0.239096278  0.133647917  0.000256468
     0.972452058  0.200322012  0.000485219
     0.039128360  0.333643771  0.000444150
     0.172451764  0.200354552  0.000219167
     0.239124359  0.333665720  0.000072260
     0.372465565  0.000324403  0.000453913
     0.439137473  0.133619939  0.000258338
     0.972449824  0.400309362  0.000547611
     0.039124981  0.533636789  0.000573410
     0.372416176  0.400329481  0.000000000
     0.439099602  0.533638981  0.000232414
     0.572443676  0.000312125  0.000559580
     0.639110207  0.133631751  0.000547275
     0.972452703  0.600305653  0.000640289
     0.039124495  0.733640359  0.000654513
     0.572433471  0.600306242  0.000402895
     0.639111888  0.733641879  0.000527905
     0.172454630  0.400318228  0.000289045
     0.239120185  0.533636548  0.000378509
     0.372459750  0.200295993  0.000088997
     0.439107096  0.333673419  0.000055762
     0.172452155  0.600311506  0.000524340
     0.239123371  0.733638574  0.000575129
     0.572431082  0.200289171  0.000413296
     0.639112773  0.333618630  0.000462376
     0.372439808  0.600308022  0.000362844
     0.439116090  0.733637858  0.000494190
     0.572469358  0.400320504  0.000339918
     0.639119408  0.533650873  0.000459610
     0.772445723  0.000315427  0.000596161
     0.839116277  0.133640203  0.000575306
     0.772440513  0.200307432  0.000581033
     0.839120241  0.333635728  0.000585467
     0.772446320  0.400298367  0.000582978
     0.839118980  0.533633964  0.000621100
     0.772456143  0.600308173  0.000595712
     0.839115033  0.733643180  0.000631512
     0.972455313  0.800305582  0.000652233
     0.039114714  0.933643289  0.000598051
     0.172457971  0.800312211  0.000623372
     0.239134551  0.933647193  0.000544850
     0.372451396  0.800316674  0.000551399
     0.439124489  0.933644769  0.000541430
     0.572441101  0.800310054  0.000534535
     0.639115067  0.933638985  0.000587644
     0.772445098  0.800313187  0.000602062
     0.839116614  0.933644338  0.000606830
     0.373021009  0.251226878  0.129992105
     0.420879805  0.189313152  0.132568979
     0.325156981  0.313167186  0.127613910

  ion indices of the primitive-cell ions
   primitive index   ion index
                 1           1
                 2           2
                 3           3
                 4           4
                 5           5
                 6           6
                 7           7
                 8           8
                 9           9
                10          10
                11          11
                12          12
                13          13
                14          14
                15          15
                16          16
                17          17
                18          18
                19          19
                20          20
                21          21
                22          22
                23          23
                24          24
                25          25
                26          26
                27          27
                28          28
                29          29
                30          30
                31          31
                32          32
                33          33
                34          34
                35          35
                36          36
                37          37
                38          38
                39          39
                40          40
                41          41
                42          42
                43          43
                44          44
                45          45
                46          46
                47          47
                48          48
                49          49
                50          50
                51          51
                52          52
                53          53

----------------------------------------------------------------------------------------

 
 
 KPOINTS: auto                                    

Automatic generation of k-mesh.
 Grid dimensions read from file:
 generate k-points for:    1    1    1

 Generating k-lattice:

  Cartesian coordinates                     Fractional coordinates (reciprocal lattice)
     0.081135903  0.046843835  0.000000000     1.000000000 -0.000000000  0.000000000
     0.000000000  0.093687670  0.000000000     0.000000000  1.000000000  0.000000000
     0.000000000  0.000000000  0.040000000     0.000000000  0.000000000  1.000000000

  Length of vectors
     0.093687670  0.093687670  0.040000000

  Shift w.r.t. Gamma in fractional coordinates (k-lattice)
     0.000000000  0.000000000  0.000000000

 
 Subroutine IBZKPT returns following result:
 ===========================================
 
 Found      1 irreducible k-points:
 
 Following reciprocal coordinates:
            Coordinates               Weight
  0.000000  0.000000  0.000000      1.000000
 
 Following cartesian coordinates:
            Coordinates               Weight
  0.000000  0.000000  0.000000      1.000000
 


--------------------------------------------------------------------------------------------------------




 Dimension of arrays:
   k-points           NKPTS =      1   k-points in BZ     NKDIM =      1   number of bands    NBANDS=    168
   number of dos      NEDOS =    301   number of ions     NIONS =     53
   non local maximal  LDIM  =      4   non local SUM 2l+1 LMDIM =      8
   total plane-waves  NPLWV = ******
   max r-space proj   IRMAX =      1   max aug-charges    IRDMAX=  10008
   dimension x,y,z NGX =   128 NGY =  128 NGZ =  270
   dimension x,y,z NGXF=   256 NGYF=  256 NGZF=  540
   support grid    NGXF=   256 NGYF=  256 NGZF=  540
   ions per type =              51   2
   NGX,Y,Z   is equivalent  to a cutoff of  17.27, 17.27, 17.95 a.u.
   NGXF,Y,Z  is equivalent  to a cutoff of  34.53, 34.53, 35.91 a.u.

 SYSTEM =  unknown system                          
 POSCAR =  C  O                                    

 Startparameter for this run:
   NWRITE =      2    write-flag & timer
   PREC   = accura    normal or accurate (medium, high low for compatibility)
   ISTART =      0    job   : 0-new  1-cont  2-samecut
   ICHARG =      2    charge: 1-file 2-atom 10-const
   ISPIN  =      1    spin polarized calculation?
   LNONCOLLINEAR =      F non collinear calculations
   LSORBIT =      F    spin-orbit coupling
   INIWAV =      1    electr: 0-lowe 1-rand  2-diag
   LASPH  =      T    aspherical Exc in radial PAW
 Electronic Relaxation 1
   ENCUT  = 1000.0 eV  73.50 Ry    8.57 a.u.  31.78 31.78 64.46*2*pi/ulx,y,z
   ENINI  = 1000.0     initial cutoff
   ENAUG  =  946.8 eV  augmentation charge cutoff
   NELM   =     60;   NELMIN=  2; NELMDL= -5     # of ELM steps 
   EDIFF  = 0.1E-06   stopping-criterion for ELM
   LREAL  =      F    real-space projection
   NLSPLINE    = F    spline interpolate recip. space projectors
   LCOMPAT=      F    compatible to vasp.4.4
   GGA_COMPAT  = T    GGA compatible to vasp.4.4-vasp.4.6
   LMAXPAW     = -100 max onsite density
   LMAXMIX     =    2 max onsite mixed and CHGCAR
   VOSKOWN=      0    Vosko Wilk Nusair interpolation
   ROPT   =    0.00000   0.00000
 Ionic relaxation
   EDIFFG = 0.1E-05   stopping-criterion for IOM
   NSW    =      0    number of steps for IOM
   NBLOCK =      1;   KBLOCK =      1    inner block; outer block 
   IBRION =     -1    ionic relax: 0-MD 1-quasi-New 2-CG
   NFREE  =      0    steps in history (QN), initial steepest desc. (CG)
   ISIF   =      0    stress and relaxation
   IWAVPR =     10    prediction:  0-non 1-charg 2-wave 3-comb
   ISYM   =      2    0-nonsym 1-usesym 2-fastsym
   LCORR  =      T    Harris-Foulkes like correction to forces

   POTIM  = 0.5000    time-step for ionic-motion
   TEIN   =    0.0    initial temperature
   TEBEG  =    0.0;   TEEND  =   0.0 temperature during run
   SMASS  =  -3.00    Nose mass-parameter (am)
   estimated Nose-frequenzy (Omega)   =  0.10E-29 period in steps = 0.13E+47 mass=  -0.347E-26a.u.
   SCALEE = 1.0000    scale energy and forces
   NPACO  =    256;   APACO  = 16.0  distance and # of slots for P.C.
   PSTRESS=    0.0 pullay stress

  Mass of Ions in am
   POMASS =  12.01 16.00
  Ionic Valenz
   ZVAL   =   4.00  6.00
  Atomic Wigner-Seitz radii
   RWIGS  =  -1.00 -1.00
  virtual crystal weights 
   VCA    =   1.00  1.00
   NELECT =     216.0000    total number of electrons
   NUPDOWN=      -1.0000    fix difference up-down

 DOS related values:
   EMIN   =  10.00;   EMAX   =-10.00  energy-range for DOS
   EFERMI =   0.00
   ISMEAR =     0;   SIGMA  =   0.01  broadening in eV -4-tet -1-fermi 0-gaus

 Electronic relaxation 2 (details)
   IALGO  =     58    algorithm
   LDIAG  =      T    sub-space diagonalisation (order eigenvalues)
   LSUBROT=      F    optimize rotation matrix (better conditioning)
   TURBO    =      0    0=normal 1=particle mesh
   IRESTART =      0    0=no restart 2=restart with 2 vectors
   NREBOOT  =      0    no. of reboots
   NMIN     =      0    reboot dimension
   EREF     =   0.00    reference energy to select bands
   IMIX   =      4    mixing-type and parameters
     AMIX     =   0.40;   BMIX     =  1.00
     AMIX_MAG =   1.60;   BMIX_MAG =  1.00
     AMIN     =   0.10
     WC   =   100.;   INIMIX=   1;  MIXPRE=   1;  MAXMIX= -45

 Intra band minimization:
   WEIMIN = 0.0000     energy-eigenvalue tresh-hold
   EBREAK =  0.15E-09  absolut break condition
   DEPER  =   0.30     relativ break condition  

   TIME   =   0.40     timestep for ELM

  volume/ion in A,a.u.               =      62.05       418.76
  Fermi-wavevector in a.u.,A,eV,Ry     =   0.660508  1.248179  5.935820  0.436270
  Thomas-Fermi vector in A             =   1.732977
 
 Write flags
   LWAVE        =      T    write WAVECAR
   LDOWNSAMPLE  =      F    k-point downsampling of WAVECAR
   LCHARG       =      T    write CHGCAR
   LVTOT        =      F    write LOCPOT, total local potential
   LVHAR        =      F    write LOCPOT, Hartree potential only
   LELF         =      F    write electronic localiz. function (ELF)
   LORBIT       =      0    0 simple, 1 ext, 2 COOP (PROOUT), +10 PAW based schemes


 Dipole corrections
   LMONO  =      F    monopole corrections only (constant potential shift)
   LDIPOL =      F    correct potential (dipole corrections)
   IDIPOL =      0    1-x, 2-y, 3-z, 4-all directions 
   EPSILON=  1.0000000 bulk dielectric constant

 Exchange correlation treatment:
   GGA     =    BO    GGA type
   LEXCH   =    42    internal setting for exchange type
   VOSKOWN=      0    Vosko Wilk Nusair interpolation
   LHFCALC =     F    Hartree Fock is set to
   LHFONE  =     F    Hartree Fock one center treatment
   AEXX    =    0.0000 exact exchange contribution

 vdW DFT:
   LUSE_VDW   =     T    switch on vdW DFT
   Zab_VDW    =-.8491    correlation parameter
   PARAM1     =0.1833
   PARAM2     =0.2200
   PARAM3     =0.0000
   -- rVV10 --
   BPARAM     = 6.3000
   CPARAM     = 0.0093

 Linear response parameters
   LEPSILON=     F    determine dielectric tensor
   LRPA    =     F    only Hartree local field effects (RPA)
   LNABLA  =     F    use nabla operator in PAW spheres
   LVEL    =     F    velocity operator in full k-point grid
   LINTERFAST=   F  fast interpolation
   KINTER  =     0    interpolate to denser k-point grid
   CSHIFT  =0.1000    complex shift for real part using Kramers Kronig
   OMEGAMAX=  -1.0    maximum frequency
   DEG_THRESHOLD= 0.2000000E-02 threshold for treating states as degnerate
   RTIME   =   -0.100 relaxation time in fs
  (WPLASMAI=    0.000 imaginary part of plasma frequency in eV, 0.658/RTIME)
   DFIELD  = 0.0000000 0.0000000 0.0000000 field for delta impulse in time
 
 Orbital magnetization related:
   ORBITALMAG=     F  switch on orbital magnetization
   LCHIMAG   =     F  perturbation theory with respect to B field
   DQ        =  0.001000  dq finite difference perturbation B field
   LLRAUG    =     F  two centre corrections for induced B field



--------------------------------------------------------------------------------------------------------


 Static calculation
 charge density and potential will be updated during run
 non-spin polarized calculation
 Conjugate gradient for all bands (Freysoldt, et al. PRB 79, 241103 (2009))
 preconditioned conjugated gradient                                        
 perform sub-space diagonalisation
    before iterative eigenvector-optimisation
 modified Broyden-mixing scheme, WC =      100.0
 initial mixing is a Kerker type mixing with AMIX =  0.4000 and BMIX =      1.0000
 Hartree-type preconditioning will be used
 using additional bands           60
 reciprocal scheme for non local part
 use partial core corrections
 no Harris-corrections to forces 
 use gradient corrections 
 use of overlap-Matrix (Vanderbilt PP)
 Gauss-broadening in eV      SIGMA  =   0.01


--------------------------------------------------------------------------------------------------------


  energy-cutoff  :     1000.00
  volume of cell :     3288.85
      direct lattice vectors                 reciprocal lattice vectors
    12.325000000  0.000000000  0.000000000     0.081135903  0.046843835  0.000000000
    -6.162500000 10.673763102  0.000000000     0.000000000  0.093687670  0.000000000
     0.000000000  0.000000000 25.000000000     0.000000000  0.000000000  0.040000000

  length of vectors
    12.325000000 12.325000000 25.000000000     0.093687670  0.093687670  0.040000000


 
 k-points in units of 2pi/SCALE and weight: auto                                    
   0.00000000  0.00000000  0.00000000       1.000
 
 k-points in reciprocal lattice and weights: auto                                    
   0.00000000  0.00000000  0.00000000       1.000
 
 position of ions in fractional coordinates (direct lattice) 
   0.97245084  0.00032082  0.00056671
   0.03911838  0.13365950  0.00044017
   0.17244363  0.00029545  0.00049963
   0.23909628  0.13364792  0.00025647
   0.97245206  0.20032201  0.00048522
   0.03912836  0.33364377  0.00044415
   0.17245176  0.20035455  0.00021917
   0.23912436  0.33366572  0.00007226
   0.37246557  0.00032440  0.00045391
   0.43913747  0.13361994  0.00025834
   0.97244982  0.40030936  0.00054761
   0.03912498  0.53363679  0.00057341
   0.37241618  0.40032948  0.00000000
   0.43909960  0.53363898  0.00023241
   0.57244368  0.00031213  0.00055958
   0.63911021  0.13363175  0.00054727
   0.97245270  0.60030565  0.00064029
   0.03912449  0.73364036  0.00065451
   0.57243347  0.60030624  0.00040289
   0.63911189  0.73364188  0.00052791
   0.17245463  0.40031823  0.00028904
   0.23912018  0.53363655  0.00037851
   0.37245975  0.20029599  0.00008900
   0.43910710  0.33367342  0.00005576
   0.17245216  0.60031151  0.00052434
   0.23912337  0.73363857  0.00057513
   0.57243108  0.20028917  0.00041330
   0.63911277  0.33361863  0.00046238
   0.37243981  0.60030802  0.00036284
   0.43911609  0.73363786  0.00049419
   0.57246936  0.40032050  0.00033992
   0.63911941  0.53365087  0.00045961
   0.77244572  0.00031543  0.00059616
   0.83911628  0.13364020  0.00057531
   0.77244051  0.20030743  0.00058103
   0.83912024  0.33363573  0.00058547
   0.77244632  0.40029837  0.00058298
   0.83911898  0.53363396  0.00062110
   0.77245614  0.60030817  0.00059571
   0.83911503  0.73364318  0.00063151
   0.97245531  0.80030558  0.00065223
   0.03911471  0.93364329  0.00059805
   0.17245797  0.80031221  0.00062337
   0.23913455  0.93364719  0.00054485
   0.37245140  0.80031667  0.00055140
   0.43912449  0.93364477  0.00054143
   0.57244110  0.80031005  0.00053453
   0.63911507  0.93363899  0.00058764
   0.77244510  0.80031319  0.00060206
   0.83911661  0.93364434  0.00060683
   0.37302101  0.25122688  0.12999210
   0.42087980  0.18931315  0.13256898
   0.32515698  0.31316719  0.12761391
 
 position of ions in cartesian coordinates  (Angst):
  11.98347958  0.00342433  0.01416777
  -0.34154264  1.42664989  0.01100432
   2.12354700  0.00315355  0.01249070
   2.12325634  1.42652621  0.00641170
  10.75098721  2.13818970  0.01213047
  -1.57382270  3.56123457  0.01110375
   0.89078307  2.13853702  0.00547917
   0.89099273  3.56146885  0.00180651
   4.58863896  0.00346260  0.01134782
   4.58893648  1.42622757  0.00645846
   9.51853763  4.27280730  0.01369027
  -2.80632132  5.69591267  0.01433526
   2.12299894  4.27302204  0.00000000
   2.12335237  5.69593607  0.00581036
   7.05344483  0.00333155  0.01398950
   7.05352764  1.42635365  0.01368187
   8.28609598  6.40752033  0.01600723
  -4.03884931  7.83070339  0.01636283
   3.35585531  6.40752662  0.01007237
   3.35598594  7.83071962  0.01319763
  -0.34145776  4.27290193  0.00722612
  -0.34137895  5.69591010  0.00946273
   3.35624236  2.13791198  0.00222492
   3.35573251  3.56155103  0.00139405
  -1.57394684  6.40758280  0.01310850
  -1.57385216  7.83068434  0.01437823
   5.82093107  2.13783916  0.01033241
   5.82114012  3.56096622  0.01155939
   0.89092245  6.40754561  0.00907111
   0.89106251  7.83067670  0.01235474
   4.58870974  4.27292622  0.00849795
   4.58852320  5.69606300  0.01149026
   9.51844972  0.00336679  0.01490402
   9.51855036  1.42644387  0.01438264
   8.28593477  2.13803408  0.01452582
   8.28612680  3.56114872  0.01463668
   7.05356221  4.27268994  0.01457444
   7.05362213  5.69588251  0.01552751
   5.82112285  6.40754723  0.01489279
   5.82101669  7.83073350  0.01578780
   7.05362858  8.54227219  0.01630582
  -5.27148792  9.96548729  0.01495127
  -2.80637951  8.54234295  0.01558431
  -2.80626749  9.96552896  0.01362126
  -0.34148805  8.54239058  0.01378498
  -0.34137657  9.96550309  0.01353576
   2.12342586  8.54231992  0.01336337
   2.12354296  9.96544135  0.01469111
   4.58845581  8.54235337  0.01505154
   4.58852904  9.96549848  0.01517076
   3.04929830  2.68153618  3.24980262
   4.02070129  2.02068374  3.31422448
   2.07766701  3.34267235  3.19034775
 


--------------------------------------------------------------------------------------------------------


 k-point   1 :   0.0000 0.0000 0.0000  plane waves:  236157

 maximum and minimum number of plane-waves per node :    236157   236157

 maximum number of plane-waves:    236157
 maximum index in each direction: 
   IXMAX=   31   IYMAX=   31   IZMAX=   64
   IXMIN=  -31   IYMIN=  -31   IZMIN=  -64


 serial   3D FFT for wavefunctions
 parallel 3D FFT for charge:
    minimum data exchange during FFTs selected (reduces bandwidth)


 total amount of memory used by VASP MPI-rank0   551512. kBytes
=======================================================================

   base      :      30000. kBytes
   nonl-proj :     230539. kBytes
   fftplans  :      40716. kBytes
   grid      :     216018. kBytes
   one-center:        162. kBytes
   wavefun   :      34077. kBytes
 
     INWAV:  cpu time    0.0000: real time    0.0000
 Broyden mixing: mesh for mixing (old mesh)
   NGX = 63   NGY = 63   NGZ =129
  (NGX  =256   NGY  =256   NGZ  =540)
  gives a total of 512001 points

 initial charge density was supplied:
 charge density of overlapping atoms calculated
 number of electron     216.0000000 magnetization 
 keeping initial charge density in first step


--------------------------------------------------------------------------------------------------------


 Maximum index for augmentation-charges          471 (set IRDMAX)


--------------------------------------------------------------------------------------------------------


 First call to EWALD:  gamma=   0.119
 Maximum number of real-space cells 4x 4x 2
 Maximum number of reciprocal cells 2x 2x 4

    FEWALD:  cpu time    0.0046: real time    0.0046


--------------------------------------- Iteration      1(   1)  ---------------------------------------


vdW kernel read from vdw_kernel.bindat
  0.0000  0.2424  0.5071  0.7962  1.1119  1.4567  1.8333  2.2446  2.6937  3.1842
  3.7199  4.3049  4.9438  5.6415  6.4036  7.2358  8.1446  9.1372 10.2212 11.4050
 12.6979 14.1099 15.6519 17.3360 19.1751 21.1837 23.3773 25.7729 28.3892 31.2465
 34.3669 37.7748 41.4965 45.5611 50.0000
 
    POTLOK:  cpu time    8.3176: real time    8.3925
    SETDIJ:  cpu time    0.0473: real time    0.0475
    TRIAL :  cpu time   15.2690: real time   15.3857
    CORREC:  cpu time    0.0007: real time    0.0009
    --------------------------------------------
      LOOP:  cpu time   23.6396: real time   23.9003

 eigenvalue-minimisations  :   336
 total energy-change (2. order) : 0.2652548E+04  (-0.1071954E+05)
 number of electron     216.0000000 magnetization 
 augmentation part      216.0000000 magnetization 

 Free energy of the ion-electron system (eV)
  ---------------------------------------------------
  alpha Z        PSCENC =        47.94900195
  Ewald energy   TEWEN  =     47374.49367880
  -Hartree energ DENC   =    -53443.19186423
  -exchange      EXHF   =         0.00000000
  -V(xc)+E(xc)   XCENC  =       398.37095775
  PAW double counting   =      6564.79108649    -6260.84737255
  entropy T*S    EENTRO =        -0.00000692
  eigenvalues    EBANDS =      -490.10144766
  atomic energy  EATOM  =      8461.08393172
  ---------------------------------------------------
  free energy    TOTEN  =      2652.54796536 eV

  energy without entropy =     2652.54797227  energy(sigma->0) =     2652.54796882


--------------------------------------------------------------------------------------------------------




--------------------------------------- Iteration      1(   2)  ---------------------------------------


    TRIAL :  cpu time   22.9244: real time   23.1353
    CORREC:  cpu time    0.0001: real time    0.0001
    --------------------------------------------
      LOOP:  cpu time   22.9710: real time   23.1861

 eigenvalue-minimisations  :   560
 total energy-change (2. order) :-0.2391003E+04  (-0.2221199E+04)
 number of electron     216.0000000 magnetization 
 augmentation part      216.0000000 magnetization 

 Free energy of the ion-electron system (eV)
  ---------------------------------------------------
  alpha Z        PSCENC =        47.94900195
  Ewald energy   TEWEN  =     47374.49367880
  -Hartree energ DENC   =    -53443.19186423
  -exchange      EXHF   =         0.00000000
  -V(xc)+E(xc)   XCENC  =       398.37095775
  PAW double counting   =      6564.79108649    -6260.84737255
  entropy T*S    EENTRO =        -0.00000000
  eigenvalues    EBANDS =     -2881.10488003
  atomic energy  EATOM  =      8461.08393172
  ---------------------------------------------------
  free energy    TOTEN  =       261.54453990 eV

  energy without entropy =      261.54453990  energy(sigma->0) =      261.54453990


--------------------------------------------------------------------------------------------------------




--------------------------------------- Iteration      1(   3)  ---------------------------------------


    TRIAL :  cpu time   19.0802: real time   19.2360
    CORREC:  cpu time    0.0001: real time    0.0001
    --------------------------------------------
      LOOP:  cpu time   19.1227: real time   19.2825

 eigenvalue-minimisations  :   448
 total energy-change (2. order) :-0.6809989E+03  (-0.6781632E+03)
 number of electron     216.0000000 magnetization 
 augmentation part      216.0000000 magnetization 

 Free energy of the ion-electron system (eV)
  ---------------------------------------------------
  alpha Z        PSCENC =        47.94900195
  Ewald energy   TEWEN  =     47374.49367880
  -Hartree energ DENC   =    -53443.19186423
  -exchange      EXHF   =         0.00000000
  -V(xc)+E(xc)   XCENC  =       398.37095775
  PAW double counting   =      6564.79108649    -6260.84737255
  entropy T*S    EENTRO =        -0.00000000
  eigenvalues    EBANDS =     -3562.10377384
  atomic energy  EATOM  =      8461.08393172
  ---------------------------------------------------
  free energy    TOTEN  =      -419.45435391 eV

  energy without entropy =     -419.45435391  energy(sigma->0) =     -419.45435391


--------------------------------------------------------------------------------------------------------




--------------------------------------- Iteration      1(   4)  ---------------------------------------


    TRIAL :  cpu time   19.0808: real time   19.2296
    CORREC:  cpu time    0.0001: real time    0.0001
    --------------------------------------------
      LOOP:  cpu time   19.1173: real time   19.2775

 eigenvalue-minimisations  :   448
 total energy-change (2. order) :-0.2594887E+02  (-0.2580951E+02)
 number of electron     216.0000000 magnetization 
 augmentation part      216.0000000 magnetization 

 Free energy of the ion-electron system (eV)
  ---------------------------------------------------
  alpha Z        PSCENC =        47.94900195
  Ewald energy   TEWEN  =     47374.49367880
  -Hartree energ DENC   =    -53443.19186423
  -exchange      EXHF   =         0.00000000
  -V(xc)+E(xc)   XCENC  =       398.37095775
  PAW double counting   =      6564.79108649    -6260.84737255
  entropy T*S    EENTRO =        -0.00000000
  eigenvalues    EBANDS =     -3588.05264141
  atomic energy  EATOM  =      8461.08393172
  ---------------------------------------------------
  free energy    TOTEN  =      -445.40322148 eV

  energy without entropy =     -445.40322148  energy(sigma->0) =     -445.40322148


--------------------------------------------------------------------------------------------------------




--------------------------------------- Iteration      1(   5)  ---------------------------------------


    TRIAL :  cpu time   19.1143: real time   19.2569
    CORREC:  cpu time    0.0001: real time    0.0001
    CHARGE:  cpu time    0.8058: real time    0.8118
    --------------------------------------------
      LOOP:  cpu time   19.9734: real time   20.1425

 eigenvalue-minimisations  :   448
 total energy-change (2. order) :-0.8565019E+00  (-0.8540835E+00)
 number of electron     216.0000000 magnetization 
 augmentation part       -0.2199956 magnetization 

 Free energy of the ion-electron system (eV)
  ---------------------------------------------------
  alpha Z        PSCENC =        47.94900195
  Ewald energy   TEWEN  =     47374.49367880
  -Hartree energ DENC   =    -53443.19186423
  -exchange      EXHF   =         0.00000000
  -V(xc)+E(xc)   XCENC  =       398.37095775
  PAW double counting   =      6564.79108649    -6260.84737255
  entropy T*S    EENTRO =        -0.00000000
  eigenvalues    EBANDS =     -3588.90914333
  atomic energy  EATOM  =      8461.08393172
  ---------------------------------------------------
  free energy    TOTEN  =      -446.25972339 eV

  energy without entropy =     -446.25972339  energy(sigma->0) =     -446.25972339


--------------------------------------------------------------------------------------------------------




--------------------------------------- Iteration      1(   6)  ---------------------------------------


    POTLOK:  cpu time    8.0205: real time    8.0773
    SETDIJ:  cpu time    0.1153: real time    0.1157
    TRIAL :  cpu time    6.8361: real time    6.8978
    CORREC:  cpu time    9.6103: real time    9.6885
    CHARGE:  cpu time    0.8006: real time    0.8060
    --------------------------------------------
      LOOP:  cpu time   25.4965: real time   25.7093

 eigenvalue-minimisations  :     0
 total energy-change (2. order) : 0.5491823E+02  (-0.1761586E+02)
 number of electron     216.0000000 magnetization 
 augmentation part       -0.3308429 magnetization 

 Free energy of the ion-electron system (eV)
  ---------------------------------------------------
  alpha Z        PSCENC =        47.94900195
  Ewald energy   TEWEN  =     47374.49367880
  -Hartree energ DENC   =    -54922.07303097
  -exchange      EXHF   =         0.00000000
  -V(xc)+E(xc)   XCENC  =       448.00307804
  PAW double counting   =     71567.37260951   -71271.58377769
  entropy T*S    EENTRO =        -0.00000000
  eigenvalues    EBANDS =     -2096.58698112
  atomic energy  EATOM  =      8461.08393172
  ---------------------------------------------------
  free energy    TOTEN  =      -391.34148976 eV

  energy without entropy =     -391.34148976  energy(sigma->0) =     -391.34148976


--------------------------------------------------------------------------------------------------------




--------------------------------------- Iteration      1(   7)  ---------------------------------------


    POTLOK:  cpu time    8.0103: real time    8.0674
    SETDIJ:  cpu time    0.0933: real time    0.0936
    TRIAL :  cpu time    6.8391: real time    6.8965
    CORREC:  cpu time    9.6461: real time    9.7254
    CHARGE:  cpu time    0.7966: real time    0.8026
    --------------------------------------------
      LOOP:  cpu time   25.4524: real time   25.6812

 eigenvalue-minimisations  :     0
 total energy-change (2. order) :-0.1765708E+02  (-0.1955232E+01)
 number of electron     216.0000000 magnetization 
 augmentation part       -0.3800304 magnetization 

 Free energy of the ion-electron system (eV)
  ---------------------------------------------------
  alpha Z        PSCENC =        47.94900195
  Ewald energy   TEWEN  =     47374.49367880
  -Hartree energ DENC   =    -54384.33631734
  -exchange      EXHF   =         0.00000000
  -V(xc)+E(xc)   XCENC  =       430.08010581
  PAW double counting   =     86626.58113289   -86327.54993466
  entropy T*S    EENTRO =        -0.00000000
  eigenvalues    EBANDS =     -2637.30016915
  atomic energy  EATOM  =      8461.08393172
  ---------------------------------------------------
  free energy    TOTEN  =      -408.99856997 eV

  energy without entropy =     -408.99856997  energy(sigma->0) =     -408.99856997


--------------------------------------------------------------------------------------------------------




--------------------------------------- Iteration      1(   8)  ---------------------------------------


    POTLOK:  cpu time    8.0407: real time    8.0987
    SETDIJ:  cpu time    0.0623: real time    0.0626
    TRIAL :  cpu time    6.8368: real time    6.8905
    CORREC:  cpu time    9.6443: real time    9.7249
    CHARGE:  cpu time    0.7981: real time    0.8036
    --------------------------------------------
      LOOP:  cpu time   25.4111: real time   25.6139

 eigenvalue-minimisations  :     0
 total energy-change (2. order) :-0.1955408E+01  (-0.5455764E+00)
 number of electron     216.0000000 magnetization 
 augmentation part       -0.3951095 magnetization 

 Free energy of the ion-electron system (eV)
  ---------------------------------------------------
  alpha Z        PSCENC =        47.94900195
  Ewald energy   TEWEN  =     47374.49367880
  -Hartree energ DENC   =    -54359.98424449
  -exchange      EXHF   =         0.00000000
  -V(xc)+E(xc)   XCENC  =       429.52280490
  PAW double counting   =     91007.98300011   -90708.52281267
  entropy T*S    EENTRO =        -0.00000000
  eigenvalues    EBANDS =     -2663.47933834
  atomic energy  EATOM  =      8461.08393172
  ---------------------------------------------------
  free energy    TOTEN  =      -410.95397802 eV

  energy without entropy =     -410.95397802  energy(sigma->0) =     -410.95397802


--------------------------------------------------------------------------------------------------------




--------------------------------------- Iteration      1(   9)  ---------------------------------------


    POTLOK:  cpu time    8.0224: real time    8.0814
    SETDIJ:  cpu time    0.1202: real time    0.1206
    TRIAL :  cpu time    6.8397: real time    6.8954
    CORREC:  cpu time    9.6118: real time    9.6827
    CHARGE:  cpu time    0.8008: real time    0.8063
    --------------------------------------------
      LOOP:  cpu time   25.4720: real time   25.6723

 eigenvalue-minimisations  :     0
 total energy-change (2. order) :-0.5453439E+00  (-0.2005102E+00)
 number of electron     216.0000000 magnetization 
 augmentation part       -0.3997467 magnetization 

 Free energy of the ion-electron system (eV)
  ---------------------------------------------------
  alpha Z        PSCENC =        47.94900195
  Ewald energy   TEWEN  =     47374.49367880
  -Hartree energ DENC   =    -54372.15942410
  -exchange      EXHF   =         0.00000000
  -V(xc)+E(xc)   XCENC  =       429.62056715
  PAW double counting   =     94075.10263278   -93775.44985115
  entropy T*S    EENTRO =        -0.00000000
  eigenvalues    EBANDS =     -2652.13985908
  atomic energy  EATOM  =      8461.08393172
  ---------------------------------------------------
  free energy    TOTEN  =      -411.49932193 eV

  energy without entropy =     -411.49932193  energy(sigma->0) =     -411.49932193


--------------------------------------------------------------------------------------------------------




--------------------------------------- Iteration      1(  10)  ---------------------------------------


    POTLOK:  cpu time    8.0245: real time    8.1201
    SETDIJ:  cpu time    0.0589: real time    0.0591
    TRIAL :  cpu time    6.8452: real time    6.8988
    CORREC:  cpu time    9.6348: real time    9.7046
    CHARGE:  cpu time    0.7986: real time    0.8041
    --------------------------------------------
      LOOP:  cpu time   25.3884: real time   25.6730

 eigenvalue-minimisations  :     0
 total energy-change (2. order) :-0.1999599E+00  (-0.8808125E-01)
 number of electron     216.0000000 magnetization 
 augmentation part       -0.3973545 magnetization 

 Free energy of the ion-electron system (eV)
  ---------------------------------------------------
  alpha Z        PSCENC =        47.94900195
  Ewald energy   TEWEN  =     47374.49367880
  -Hartree energ DENC   =    -54369.29977706
  -exchange      EXHF   =         0.00000000
  -V(xc)+E(xc)   XCENC  =       429.48242826
  PAW double counting   =     94828.63487001   -94528.87311527
  entropy T*S    EENTRO =        -0.00000000
  eigenvalues    EBANDS =     -2655.17030025
  atomic energy  EATOM  =      8461.08393172
  ---------------------------------------------------
  free energy    TOTEN  =      -411.69928184 eV

  energy without entropy =     -411.69928184  energy(sigma->0) =     -411.69928184


--------------------------------------------------------------------------------------------------------




--------------------------------------- Iteration      1(  11)  ---------------------------------------


    POTLOK:  cpu time    8.0408: real time    8.1022
    SETDIJ:  cpu time    0.1284: real time    0.1288
    TRIAL :  cpu time    6.8381: real time    6.8997
    CORREC:  cpu time    9.7140: real time    9.7871
    CHARGE:  cpu time    0.7973: real time    0.8032
    --------------------------------------------
      LOOP:  cpu time   25.5627: real time   25.7666

 eigenvalue-minimisations  :     0
 total energy-change (2. order) :-0.8773267E-01  (-0.3361994E-01)
 number of electron     216.0000000 magnetization 
 augmentation part       -0.3949813 magnetization 

 Free energy of the ion-electron system (eV)
  ---------------------------------------------------
  alpha Z        PSCENC =        47.94900195
  Ewald energy   TEWEN  =     47374.49367880
  -Hartree energ DENC   =    -54361.61233055
  -exchange      EXHF   =         0.00000000
  -V(xc)+E(xc)   XCENC  =       429.36962708
  PAW double counting   =     94441.28550445   -94141.52418886
  entropy T*S    EENTRO =        -0.00000000
  eigenvalues    EBANDS =     -2662.83223911
  atomic energy  EATOM  =      8461.08393172
  ---------------------------------------------------
  free energy    TOTEN  =      -411.78701452 eV

  energy without entropy =     -411.78701452  energy(sigma->0) =     -411.78701452


--------------------------------------------------------------------------------------------------------




--------------------------------------- Iteration      1(  12)  ---------------------------------------


    POTLOK:  cpu time    8.0777: real time    8.1426
    SETDIJ:  cpu time    0.0478: real time    0.0480
    TRIAL :  cpu time    6.8102: real time    6.8911
    CORREC:  cpu time    9.6317: real time    9.7142
    CHARGE:  cpu time    0.7992: real time    0.8056
    --------------------------------------------
      LOOP:  cpu time   25.4483: real time   25.6863

 eigenvalue-minimisations  :     0
 total energy-change (2. order) :-0.3360819E-01  (-0.9892375E-02)
 number of electron     216.0000000 magnetization 
 augmentation part       -0.3944895 magnetization 

 Free energy of the ion-electron system (eV)
  ---------------------------------------------------
  alpha Z        PSCENC =        47.94900195
  Ewald energy   TEWEN  =     47374.49367880
  -Hartree energ DENC   =    -54357.65911517
  -exchange      EXHF   =         0.00000000
  -V(xc)+E(xc)   XCENC  =       429.29962134
  PAW double counting   =     93999.75269483   -93700.02074092
  entropy T*S    EENTRO =        -0.00000000
  eigenvalues    EBANDS =     -2666.71969527
  atomic energy  EATOM  =      8461.08393172
  ---------------------------------------------------
  free energy    TOTEN  =      -411.82062271 eV

  energy without entropy =     -411.82062271  energy(sigma->0) =     -411.82062271


--------------------------------------------------------------------------------------------------------




--------------------------------------- Iteration      1(  13)  ---------------------------------------


    POTLOK:  cpu time    8.0340: real time    8.1048
    SETDIJ:  cpu time    0.0525: real time    0.0527
    TRIAL :  cpu time    6.8324: real time    6.8992
    CORREC:  cpu time    9.6283: real time    9.7009
    CHARGE:  cpu time    0.7989: real time    0.8045
    --------------------------------------------
      LOOP:  cpu time   25.3865: real time   25.6047

 eigenvalue-minimisations  :     0
 total energy-change (2. order) :-0.9936240E-02  (-0.2558822E-02)
 number of electron     216.0000000 magnetization 
 augmentation part       -0.3941776 magnetization 

 Free energy of the ion-electron system (eV)
  ---------------------------------------------------
  alpha Z        PSCENC =        47.94900195
  Ewald energy   TEWEN  =     47374.49367880
  -Hartree energ DENC   =    -54356.69894495
  -exchange      EXHF   =         0.00000000
  -V(xc)+E(xc)   XCENC  =       429.26600494
  PAW double counting   =     93789.61939497   -93489.90091559
  entropy T*S    EENTRO =        -0.00000000
  eigenvalues    EBANDS =     -2667.64271081
  atomic energy  EATOM  =      8461.08393172
  ---------------------------------------------------
  free energy    TOTEN  =      -411.83055895 eV

  energy without entropy =     -411.83055895  energy(sigma->0) =     -411.83055895


--------------------------------------------------------------------------------------------------------




--------------------------------------- Iteration      1(  14)  ---------------------------------------


    POTLOK:  cpu time    8.0145: real time    8.0736
    SETDIJ:  cpu time    0.0857: real time    0.0860
    TRIAL :  cpu time    6.8351: real time    6.8925
    CORREC:  cpu time    9.5885: real time    9.6894
    CHARGE:  cpu time    0.7971: real time    0.8029
    --------------------------------------------
      LOOP:  cpu time   25.4146: real time   25.6444

 eigenvalue-minimisations  :     0
 total energy-change (2. order) :-0.2580768E-02  (-0.6404298E-03)
 number of electron     216.0000000 magnetization 
 augmentation part       -0.3940715 magnetization 

 Free energy of the ion-electron system (eV)
  ---------------------------------------------------
  alpha Z        PSCENC =        47.94900195
  Ewald energy   TEWEN  =     47374.49367880
  -Hartree energ DENC   =    -54356.59283970
  -exchange      EXHF   =         0.00000000
  -V(xc)+E(xc)   XCENC  =       429.25898618
  PAW double counting   =     93747.48816903   -93447.77548547
  entropy T*S    EENTRO =        -0.00000000
  eigenvalues    EBANDS =     -2667.73858223
  atomic energy  EATOM  =      8461.08393172
  ---------------------------------------------------
  free energy    TOTEN  =      -411.83313972 eV

  energy without entropy =     -411.83313972  energy(sigma->0) =     -411.83313972


--------------------------------------------------------------------------------------------------------




--------------------------------------- Iteration      1(  15)  ---------------------------------------


    POTLOK:  cpu time    8.0282: real time    8.0858
    SETDIJ:  cpu time    0.1000: real time    0.1003
    TRIAL :  cpu time    6.8382: real time    6.8914
    CORREC:  cpu time    9.5879: real time    9.6592
    CHARGE:  cpu time    0.8000: real time    0.8054
    --------------------------------------------
      LOOP:  cpu time   25.3860: real time   25.5777

 eigenvalue-minimisations  :     0
 total energy-change (2. order) :-0.6489936E-03  (-0.1770771E-03)
 number of electron     216.0000000 magnetization 
 augmentation part       -0.3939679 magnetization 

 Free energy of the ion-electron system (eV)
  ---------------------------------------------------
  alpha Z        PSCENC =        47.94900195
  Ewald energy   TEWEN  =     47374.49367880
  -Hartree energ DENC   =    -54356.41832729
  -exchange      EXHF   =         0.00000000
  -V(xc)+E(xc)   XCENC  =       429.24996167
  PAW double counting   =     93744.21369402   -93444.50153281
  entropy T*S    EENTRO =        -0.00000000
  eigenvalues    EBANDS =     -2667.90419678
  atomic energy  EATOM  =      8461.08393172
  ---------------------------------------------------
  free energy    TOTEN  =      -411.83378871 eV

  energy without entropy =     -411.83378871  energy(sigma->0) =     -411.83378871


--------------------------------------------------------------------------------------------------------




--------------------------------------- Iteration      1(  16)  ---------------------------------------


    POTLOK:  cpu time    8.1006: real time    8.1645
    SETDIJ:  cpu time    0.0646: real time    0.0648
    TRIAL :  cpu time    6.8389: real time    6.8927
    CORREC:  cpu time    9.5982: real time    9.6722
    CHARGE:  cpu time    0.7992: real time    0.8045
    --------------------------------------------
      LOOP:  cpu time   25.4057: real time   25.6231

 eigenvalue-minimisations  :     0
 total energy-change (2. order) :-0.1814749E-03  (-0.5837273E-04)
 number of electron     216.0000000 magnetization 
 augmentation part       -0.3938730 magnetization 

 Free energy of the ion-electron system (eV)
  ---------------------------------------------------
  alpha Z        PSCENC =        47.94900195
  Ewald energy   TEWEN  =     47374.49367880
  -Hartree energ DENC   =    -54356.48520831
  -exchange      EXHF   =         0.00000000
  -V(xc)+E(xc)   XCENC  =       429.25070293
  PAW double counting   =     93727.10394091   -93427.39221516
  entropy T*S    EENTRO =        -0.00000000
  eigenvalues    EBANDS =     -2667.83780303
  atomic energy  EATOM  =      8461.08393172
  ---------------------------------------------------
  free energy    TOTEN  =      -411.83397019 eV

  energy without entropy =     -411.83397019  energy(sigma->0) =     -411.83397019


--------------------------------------------------------------------------------------------------------




--------------------------------------- Iteration      1(  17)  ---------------------------------------


    POTLOK:  cpu time    7.9896: real time    8.0796
    SETDIJ:  cpu time    0.0930: real time    0.0933
    TRIAL :  cpu time    6.8339: real time    6.8885
    CORREC:  cpu time    9.6094: real time    9.6793
    CHARGE:  cpu time    0.8026: real time    0.8082
    --------------------------------------------
      LOOP:  cpu time   25.3925: real time   25.6154

 eigenvalue-minimisations  :     0
 total energy-change (2. order) :-0.6070707E-04  (-0.2046883E-04)
 number of electron     216.0000000 magnetization 
 augmentation part       -0.3938743 magnetization 

 Free energy of the ion-electron system (eV)
  ---------------------------------------------------
  alpha Z        PSCENC =        47.94900195
  Ewald energy   TEWEN  =     47374.49367880
  -Hartree energ DENC   =    -54356.62563160
  -exchange      EXHF   =         0.00000000
  -V(xc)+E(xc)   XCENC  =       429.25481749
  PAW double counting   =     93710.72969937   -93411.01841751
  entropy T*S    EENTRO =        -0.00000000
  eigenvalues    EBANDS =     -2667.70111112
  atomic energy  EATOM  =      8461.08393172
  ---------------------------------------------------
  free energy    TOTEN  =      -411.83403089 eV

  energy without entropy =     -411.83403089  energy(sigma->0) =     -411.83403089


--------------------------------------------------------------------------------------------------------




--------------------------------------- Iteration      1(  18)  ---------------------------------------


    POTLOK:  cpu time    8.0345: real time    8.1021
    SETDIJ:  cpu time    0.0410: real time    0.0411
    TRIAL :  cpu time    6.8357: real time    6.8912
    CORREC:  cpu time    9.6097: real time    9.6789
    CHARGE:  cpu time    0.7978: real time    0.8035
    --------------------------------------------
      LOOP:  cpu time   25.3710: real time   25.5862

 eigenvalue-minimisations  :     0
 total energy-change (2. order) :-0.2169053E-04  (-0.7607703E-05)
 number of electron     216.0000000 magnetization 
 augmentation part       -0.3938948 magnetization 

 Free energy of the ion-electron system (eV)
  ---------------------------------------------------
  alpha Z        PSCENC =        47.94900195
  Ewald energy   TEWEN  =     47374.49367880
  -Hartree energ DENC   =    -54356.65145668
  -exchange      EXHF   =         0.00000000
  -V(xc)+E(xc)   XCENC  =       429.25497714
  PAW double counting   =     93706.93798901   -93407.22626136
  entropy T*S    EENTRO =        -0.00000000
  eigenvalues    EBANDS =     -2667.67591317
  atomic energy  EATOM  =      8461.08393172
  ---------------------------------------------------
  free energy    TOTEN  =      -411.83405258 eV

  energy without entropy =     -411.83405258  energy(sigma->0) =     -411.83405258


--------------------------------------------------------------------------------------------------------




--------------------------------------- Iteration      1(  19)  ---------------------------------------


    POTLOK:  cpu time    8.0391: real time    8.0963
    SETDIJ:  cpu time    0.0851: real time    0.0853
    TRIAL :  cpu time    6.8218: real time    6.8889
    CORREC:  cpu time    9.6117: real time    9.7024
    CHARGE:  cpu time    0.8000: real time    0.8054
    --------------------------------------------
      LOOP:  cpu time   25.4411: real time   25.6645

 eigenvalue-minimisations  :     0
 total energy-change (2. order) :-0.8156014E-05  (-0.3214391E-05)
 number of electron     216.0000000 magnetization 
 augmentation part       -0.3939191 magnetization 

 Free energy of the ion-electron system (eV)
  ---------------------------------------------------
  alpha Z        PSCENC =        47.94900195
  Ewald energy   TEWEN  =     47374.49367880
  -Hartree energ DENC   =    -54356.67788466
  -exchange      EXHF   =         0.00000000
  -V(xc)+E(xc)   XCENC  =       429.25585345
  PAW double counting   =     93710.60077496   -93410.88881364
  entropy T*S    EENTRO =        -0.00000000
  eigenvalues    EBANDS =     -2667.65060333
  atomic energy  EATOM  =      8461.08393172
  ---------------------------------------------------
  free energy    TOTEN  =      -411.83406074 eV

  energy without entropy =     -411.83406074  energy(sigma->0) =     -411.83406074


--------------------------------------------------------------------------------------------------------




--------------------------------------- Iteration      1(  20)  ---------------------------------------


    POTLOK:  cpu time    8.0354: real time    8.0920
    SETDIJ:  cpu time    0.0889: real time    0.0892
    TRIAL :  cpu time    6.8379: real time    6.9000
    CORREC:  cpu time    9.5640: real time    9.6737
    CHARGE:  cpu time    0.7999: real time    0.8053
    --------------------------------------------
      LOOP:  cpu time   25.3889: real time   25.6248

 eigenvalue-minimisations  :     0
 total energy-change (2. order) :-0.3426569E-05  (-0.1400058E-05)
 number of electron     216.0000000 magnetization 
 augmentation part       -0.3939355 magnetization 

 Free energy of the ion-electron system (eV)
  ---------------------------------------------------
  alpha Z        PSCENC =        47.94900195
  Ewald energy   TEWEN  =     47374.49367880
  -Hartree energ DENC   =    -54356.69775458
  -exchange      EXHF   =         0.00000000
  -V(xc)+E(xc)   XCENC  =       429.25642729
  PAW double counting   =     93715.46521358   -93415.75310672
  entropy T*S    EENTRO =        -0.00000000
  eigenvalues    EBANDS =     -2667.63145621
  atomic energy  EATOM  =      8461.08393172
  ---------------------------------------------------
  free energy    TOTEN  =      -411.83406417 eV

  energy without entropy =     -411.83406417  energy(sigma->0) =     -411.83406417


--------------------------------------------------------------------------------------------------------




--------------------------------------- Iteration      1(  21)  ---------------------------------------


    POTLOK:  cpu time    8.0545: real time    8.1120
    SETDIJ:  cpu time    0.0405: real time    0.0406
    TRIAL :  cpu time    6.8369: real time    6.8919
    CORREC:  cpu time    9.5781: real time    9.6561
    CHARGE:  cpu time    0.7998: real time    0.8060
    --------------------------------------------
      LOOP:  cpu time   25.3630: real time   25.5625

 eigenvalue-minimisations  :     0
 total energy-change (2. order) :-0.1453751E-05  (-0.5985660E-06)
 number of electron     216.0000000 magnetization 
 augmentation part       -0.3939332 magnetization 

 Free energy of the ion-electron system (eV)
  ---------------------------------------------------
  alpha Z        PSCENC =        47.94900195
  Ewald energy   TEWEN  =     47374.49367880
  -Hartree energ DENC   =    -54356.70046129
  -exchange      EXHF   =         0.00000000
  -V(xc)+E(xc)   XCENC  =       429.25630925
  PAW double counting   =     93718.30478443   -93418.59257671
  entropy T*S    EENTRO =        -0.00000000
  eigenvalues    EBANDS =     -2667.62873377
  atomic energy  EATOM  =      8461.08393172
  ---------------------------------------------------
  free energy    TOTEN  =      -411.83406562 eV

  energy without entropy =     -411.83406562  energy(sigma->0) =     -411.83406562


--------------------------------------------------------------------------------------------------------




--------------------------------------- Iteration      1(  22)  ---------------------------------------


    POTLOK:  cpu time    8.0361: real time    8.0999
    SETDIJ:  cpu time    0.0878: real time    0.0881
    TRIAL :  cpu time    6.8331: real time    6.8907
    CORREC:  cpu time    9.6306: real time    9.7098
    CHARGE:  cpu time    0.7988: real time    0.8044
    --------------------------------------------
      LOOP:  cpu time   25.4075: real time   25.6190

 eigenvalue-minimisations  :     0
 total energy-change (2. order) :-0.5956535E-06  (-0.3058471E-06)
 number of electron     216.0000000 magnetization 
 augmentation part       -0.3939315 magnetization 

 Free energy of the ion-electron system (eV)
  ---------------------------------------------------
  alpha Z        PSCENC =        47.94900195
  Ewald energy   TEWEN  =     47374.49367880
  -Hartree energ DENC   =    -54356.70527270
  -exchange      EXHF   =         0.00000000
  -V(xc)+E(xc)   XCENC  =       429.25644619
  PAW double counting   =     93718.53196425   -93418.81982028
  entropy T*S    EENTRO =        -0.00000000
  eigenvalues    EBANDS =     -2667.62399616
  atomic energy  EATOM  =      8461.08393172
  ---------------------------------------------------
  free energy    TOTEN  =      -411.83406622 eV

  energy without entropy =     -411.83406622  energy(sigma->0) =     -411.83406622


--------------------------------------------------------------------------------------------------------




--------------------------------------- Iteration      1(  23)  ---------------------------------------


    POTLOK:  cpu time    8.0353: real time    8.0908
    SETDIJ:  cpu time    0.0672: real time    0.0674
    TRIAL :  cpu time    6.8374: real time    6.8912
    CORREC:  cpu time    9.6214: real time    9.6923
    CHARGE:  cpu time    0.7986: real time    0.8038
    --------------------------------------------
      LOOP:  cpu time   25.3925: real time   25.5968

 eigenvalue-minimisations  :     0
 total energy-change (2. order) :-0.2527959E-06  (-0.2163137E-06)
 number of electron     216.0000000 magnetization 
 augmentation part       -0.3939281 magnetization 

 Free energy of the ion-electron system (eV)
  ---------------------------------------------------
  alpha Z        PSCENC =        47.94900195
  Ewald energy   TEWEN  =     47374.49367880
  -Hartree energ DENC   =    -54356.69891908
  -exchange      EXHF   =         0.00000000
  -V(xc)+E(xc)   XCENC  =       429.25620826
  PAW double counting   =     93717.49068047   -93417.77855598
  entropy T*S    EENTRO =        -0.00000000
  eigenvalues    EBANDS =     -2667.63009262
  atomic energy  EATOM  =      8461.08393172
  ---------------------------------------------------
  free energy    TOTEN  =      -411.83406647 eV

  energy without entropy =     -411.83406647  energy(sigma->0) =     -411.83406647


--------------------------------------------------------------------------------------------------------




--------------------------------------- Iteration      1(  24)  ---------------------------------------


    POTLOK:  cpu time    8.0283: real time    8.0931
    SETDIJ:  cpu time    0.1105: real time    0.1109
    TRIAL :  cpu time    6.8403: real time    6.8946
    CORREC:  cpu time    9.6238: real time    9.6916
    CHARGE:  cpu time    0.7980: real time    0.8033
    --------------------------------------------
      LOOP:  cpu time   25.4470: real time   25.6438

 eigenvalue-minimisations  :     0
 total energy-change (2. order) : 0.2408342E-07  (-0.1843954E-06)
 number of electron     216.0000000 magnetization 
 augmentation part       -0.3939334 magnetization 

 Free energy of the ion-electron system (eV)
  ---------------------------------------------------
  alpha Z        PSCENC =        47.94900195
  Ewald energy   TEWEN  =     47374.49367880
  -Hartree energ DENC   =    -54356.69554606
  -exchange      EXHF   =         0.00000000
  -V(xc)+E(xc)   XCENC  =       429.25626515
  PAW double counting   =     93716.12099382   -93416.40893977
  entropy T*S    EENTRO =        -0.00000000
  eigenvalues    EBANDS =     -2667.63345207
  atomic energy  EATOM  =      8461.08393172
  ---------------------------------------------------
  free energy    TOTEN  =      -411.83406644 eV

  energy without entropy =     -411.83406644  energy(sigma->0) =     -411.83406644


--------------------------------------------------------------------------------------------------------




--------------------------------------- Iteration      1(  25)  ---------------------------------------


    POTLOK:  cpu time    8.0154: real time    8.0918
    SETDIJ:  cpu time    0.0822: real time    0.0825
    TRIAL :  cpu time    6.8308: real time    6.8942
    CORREC:  cpu time    9.5841: real time    9.6717
    CHARGE:  cpu time    0.7992: real time    0.8055
    --------------------------------------------
      LOOP:  cpu time   25.3489: real time   25.6172

 eigenvalue-minimisations  :     0
 total energy-change (2. order) :-0.1794688E-06  (-0.7576117E-07)
 number of electron     216.0000000 magnetization 
 augmentation part       -0.3939337 magnetization 

 Free energy of the ion-electron system (eV)
  ---------------------------------------------------
  alpha Z        PSCENC =        47.94900195
  Ewald energy   TEWEN  =     47374.49367880
  -Hartree energ DENC   =    -54356.69252505
  -exchange      EXHF   =         0.00000000
  -V(xc)+E(xc)   XCENC  =       429.25607204
  PAW double counting   =     93716.37889106   -93416.66677455
  entropy T*S    EENTRO =        -0.00000000
  eigenvalues    EBANDS =     -2667.63634260
  atomic energy  EATOM  =      8461.08393172
  ---------------------------------------------------
  free energy    TOTEN  =      -411.83406662 eV

  energy without entropy =     -411.83406662  energy(sigma->0) =     -411.83406662


--------------------------------------------------------------------------------------------------------




--------------------------------------- Iteration      1(  26)  ---------------------------------------


    POTLOK:  cpu time    8.0280: real time    8.0983
    SETDIJ:  cpu time    0.0426: real time    0.0428
    TRIAL :  cpu time    6.8183: real time    6.9008
    CORREC:  cpu time    9.5993: real time    9.6843
    EDDIAG:  cpu time    1.1070: real time    1.1176
    CHARGE:  cpu time    0.7923: real time    0.8018
    --------------------------------------------
      LOOP:  cpu time   26.4175: real time   26.7050

 eigenvalue-minimisations  :     0
 total energy-change (2. order) :-0.4397589E-07  (-0.5249294E-07)
 number of electron     216.0000000 magnetization 
 augmentation part       -0.3939388 magnetization 

 Free energy of the ion-electron system (eV)
  ---------------------------------------------------
  alpha Z        PSCENC =        47.94900195
  Ewald energy   TEWEN  =     47374.49367880
  -Hartree energ DENC   =    -54356.69685568
  -exchange      EXHF   =         0.00000000
  -V(xc)+E(xc)   XCENC  =       429.25627526
  PAW double counting   =     93716.80340848   -93417.09130288
  entropy T*S    EENTRO =        -0.00000000
  eigenvalues    EBANDS =     -2667.63220432
  atomic energy  EATOM  =      8461.08393172
  ---------------------------------------------------
  free energy    TOTEN  =      -411.83406667 eV

  energy without entropy =     -411.83406667  energy(sigma->0) =     -411.83406667


--------------------------------------------------------------------------------------------------------


  average scaling for gradient   0.9164


 average (electrostatic) potential at core
  the test charge radii are     0.5770  0.5955
  (the norm of the test charge is              1.0000)
       1 -86.3425       2 -86.3376       3 -86.3481       4 -86.3543       5 -86.3344
       6 -86.3313       7 -86.3420       8 -86.3272       9 -86.3335      10 -86.3367
      11 -86.3338      12 -86.3377      13 -86.3346      14 -86.3325      15 -86.3314
      16 -86.3313      17 -86.3370      18 -86.3390      19 -86.3415      20 -86.3370
      21 -86.3269      22 -86.3292      23 -86.3529      24 -86.3519      25 -86.3330
[...]
      9     -21.5334      2.00000
     10     -19.7124      2.00000
     11     -19.7112      2.00000
     12     -19.7071      2.00000
     13     -19.7065      2.00000
     14     -19.7051      2.00000
     15     -19.7050      2.00000
     16     -18.8199      2.00000
     17     -18.8188      2.00000
     18     -18.8174      2.00000
     19     -18.8157      2.00000
     20     -18.8151      2.00000
     21     -18.8148      2.00000
     22     -16.6773      2.00000
     23     -16.6763      2.00000
     24     -16.6742      2.00000
     25     -16.6737      2.00000
     26     -16.6704      2.00000
     27     -16.6700      2.00000
     28     -15.6832      2.00000
     29     -15.6826      2.00000
     30     -15.6798      2.00000
     31     -15.6793      2.00000
     32     -15.6785      2.00000
     33     -15.6782      2.00000
     34     -14.3434      2.00000
     35     -14.3431      2.00000
     36     -14.3426      2.00000
     37     -14.3414      2.00000
     38     -14.3412      2.00000
     39     -14.3407      2.00000
     40     -12.6246      2.00000
     41     -11.9903      2.00000
     42     -11.9900      2.00000
     43     -11.9880      2.00000
     44     -11.9878      2.00000
     45     -11.9877      2.00000
     46     -11.9874      2.00000
     47     -11.8804      2.00000
     48     -11.8799      2.00000
     49     -11.8782      2.00000
     50     -11.8778      2.00000
     51     -11.8754      2.00000
     52     -11.8751      2.00000
     53     -11.4864      2.00000
     54     -11.4430      2.00000
     55     -11.3889      2.00000
     56     -10.6170      2.00000
     57     -10.5141      2.00000
     58     -10.5140      2.00000
     59     -10.5135      2.00000
     60     -10.5130      2.00000
     61     -10.5121      2.00000
     62     -10.5119      2.00000
     63      -9.5269      2.00000
     64      -9.5203      2.00000
     65      -9.5198      2.00000
     66      -9.5158      2.00000
     67      -9.5142      2.00000
     68      -9.5023      2.00000
     69      -9.2765      2.00000
     70      -9.2733      2.00000
     71      -9.2728      2.00000
     72      -9.2719      2.00000
     73      -9.2713      2.00000
     74      -9.2699      2.00000
     75      -9.2154      2.00000
     76      -9.2149      2.00000
     77      -9.2147      2.00000
     78      -9.2126      2.00000
     79      -9.2121      2.00000
     80      -9.2110      2.00000
     81      -7.9052      2.00000
     82      -7.8690      2.00000
     83      -7.6375      2.00000
     84      -7.6373      2.00000
     85      -7.6368      2.00000
     86      -7.6352      2.00000
     87      -7.6326      2.00000
     88      -7.6325      2.00000
     89      -7.4026      2.00000
     90      -7.4002      2.00000
     91      -7.3914      2.00000
     92      -7.3910      2.00000
     93      -7.3890      2.00000
     94      -7.3509      2.00000
     95      -6.5083      2.00000
     96      -6.5055      2.00000
     97      -6.5016      2.00000
     98      -6.4973      2.00000
     99      -6.4953      2.00000
    100      -6.4830      2.00000
    101      -6.1754      2.00000
    102      -6.1731      2.00000
    103      -4.5311      2.00000
    104      -4.5277      2.00000
    105      -4.5245      2.00000
    106      -4.5228      2.00000
    107      -4.5177      2.00000
    108      -4.5171      2.00000
    109      -1.7377      0.00000
    110      -1.7359      0.00000
    111      -1.7273      0.00000
    112      -1.7257      0.00000
    113      -1.7237      0.00000
    114      -1.7224      0.00000
    115      -0.8973      0.00000
    116      -0.2076      0.00000
    117       0.1144      0.00000
    118       0.1210      0.00000
    119       0.1245      0.00000
    120       0.1316      0.00000
    121       0.1329      0.00000
    122       0.1346      0.00000
    123       0.1637      0.00000
    124       0.2489      0.00000
    125       0.2661      0.00000
    126       0.3227      0.00000
    127       0.5655      0.00000
    128       0.5707      0.00000
    129       0.5806      0.00000
    130       0.6000      0.00000
    131       0.6984      0.00000
    132       0.8585      0.00000
    133       1.0075      0.00000
    134       1.1414      0.00000
    135       1.1750      0.00000
    136       1.2049      0.00000
    137       1.2119      0.00000
    138       1.2285      0.00000
    139       1.3374      0.00000
    140       1.4992      0.00000
    141       1.6219      0.00000
    142       1.6510      0.00000
    143       1.6635      0.00000
    144       1.6722      0.00000
    145       1.6836      0.00000
    146       1.8531      0.00000
    147       1.8549      0.00000
    148       1.8625      0.00000
    149       1.8646      0.00000
    150       1.8655      0.00000
    151       1.8848      0.00000
    152       1.9081      0.00000
    153       2.0898      0.00000
    154       2.1055      0.00000
    155       2.1516      0.00000
    156       2.1764      0.00000
    157       2.1919      0.00000
    158       2.2876      0.00000
    159       2.3428      0.00000
    160       2.3957      0.00000
    161       2.4615      0.00000
    162       2.7427      0.00000
    163       3.6235      0.00000
    164       4.2383      0.00000
    165       4.4336      0.00000
    166       4.5206      0.00000
    167       4.5460      0.00000
    168       4.5549      0.00000


--------------------------------------------------------------------------------------------------------


 soft charge-density along one line, spin component           1
         0         1         2         3         4         5         6         7         8         9
 total charge-density along one line
 
 pseudopotential strength for first ion, spin component:           1
 12.688  21.351  -0.000   0.000   0.000  -0.000   0.000   0.000
 21.351  35.930  -0.000   0.000   0.000  -0.000   0.000   0.000
 -0.000  -0.000  -3.244  -0.000   0.000  -5.814  -0.000   0.000
  0.000   0.000  -0.000  -3.252  -0.000  -0.000  -5.828  -0.000
  0.000   0.000   0.000  -0.000  -3.244   0.000  -0.000  -5.814
 -0.000  -0.000  -5.814  -0.000   0.000 -10.398  -0.000   0.000
  0.000   0.000  -0.000  -5.828  -0.000  -0.000 -10.423  -0.000
  0.000   0.000   0.000  -0.000  -5.814   0.000  -0.000 -10.398
 total augmentation occupancy for first ion, spin component:           1
  6.916  -2.317  -0.000  -0.002   0.000   0.000   0.001  -0.000
 -2.317   0.818   0.000   0.001  -0.000  -0.000  -0.000   0.000
 -0.000   0.000   6.627  -0.007   0.000  -2.167   0.003  -0.000
 -0.002   0.001  -0.007   2.819  -0.000   0.003  -0.689   0.000
  0.000  -0.000   0.000  -0.000   6.627  -0.000   0.000  -2.167
  0.000  -0.000  -2.167   0.003  -0.000   0.724  -0.001   0.000
  0.001  -0.000   0.003  -0.689   0.000  -0.001   0.176   0.000
 -0.000   0.000  -0.000   0.000  -2.167   0.000   0.000   0.724


------------------------ aborting loop because EDIFF is reached ----------------------------------------


    FORLOC:  cpu time    0.1361: real time    0.1371
    FORNL :  cpu time    3.7860: real time    3.8174
    FORCOR:  cpu time    8.0260: real time    8.0894
    OFIELD:  cpu time    0.0031: real time    0.0031

 VOLUME and BASIS-vectors are now :
 -----------------------------------------------------------------------------
  energy-cutoff  :     1000.00
  volume of cell :     3288.85
      direct lattice vectors                 reciprocal lattice vectors
    12.325000000  0.000000000  0.000000000     0.081135903  0.046843835  0.000000000
    -6.162500000 10.673763102  0.000000000     0.000000000  0.093687670  0.000000000
     0.000000000  0.000000000 25.000000000     0.000000000  0.000000000  0.040000000

  length of vectors
    12.325000000 12.325000000 25.000000000     0.093687670  0.093687670  0.040000000


 FORCES acting on ions:
    Electron-Ion                     Ewald-Force                    Non-Local-Force
 -----------------------------------------------------------------------------------------------
   0.107E+02 0.939E+01 0.256E+02   -.107E+02 -.938E+01 -.256E+02   0.142E-01 -.550E-02 0.135E-01
   0.175E+02 0.865E+01 0.331E+02   -.175E+02 -.863E+01 -.331E+02   0.193E-01 -.130E-01 -.467E-02
   0.858E+01 0.220E+02 0.407E+02   -.858E+01 -.220E+02 -.407E+02   -.225E-02 0.444E-01 0.362E-01
   0.135E+02 0.198E+02 0.639E+02   -.136E+02 -.198E+02 -.640E+02   0.513E-01 0.203E-01 0.785E-01
   0.116E+02 0.275E+01 0.257E+02   -.116E+02 -.274E+01 -.257E+02   0.387E-02 -.165E-01 -.337E-02
   0.122E+02 -.209E+01 0.262E+02   -.122E+02 0.210E+01 -.262E+02   -.194E-01 -.368E-02 -.127E-01
   0.233E+02 0.941E+01 0.552E+02   -.233E+02 -.935E+01 -.552E+02   0.516E-01 -.599E-01 -.620E-02
   0.229E+02 -.779E+01 0.585E+02   -.229E+02 0.782E+01 -.584E+02   0.756E-02 -.297E-01 -.910E-01
   -.956E+01 0.202E+02 0.417E+02   0.959E+01 -.202E+02 -.416E+02   -.208E-01 -.744E-02 -.329E-01
   -.173E+02 0.148E+02 0.620E+02   0.174E+02 -.148E+02 -.620E+02   -.711E-01 0.414E-01 -.639E-01
   0.286E+01 -.254E+01 0.209E+02   -.285E+01 0.253E+01 -.209E+02   -.495E-02 0.350E-02 -.529E-02
   0.229E+01 -.186E+01 0.195E+02   -.228E+01 0.186E+01 -.195E+02   -.153E-01 0.662E-02 0.179E-02
   0.886E+01 -.210E+02 0.665E+02   -.894E+01 0.210E+02 -.665E+02   0.868E-01 -.261E-01 -.735E-01
   0.413E+01 -.222E+02 0.415E+02   -.416E+01 0.222E+02 -.414E+02   0.262E-01 0.239E-02 -.349E-01
   -.104E+02 0.653E+01 0.251E+02   0.104E+02 -.653E+01 -.251E+02   0.147E-01 -.790E-02 -.521E-02
   -.154E+02 0.435E+01 0.292E+02   0.154E+02 -.435E+01 -.292E+02   -.116E-02 0.105E-01 -.223E-01
   -.156E+01 -.640E+00 0.188E+02   0.157E+01 0.637E+00 -.188E+02   -.594E-02 0.844E-03 0.116E-02
   0.859E+00 0.575E+01 0.200E+02   -.853E+00 -.575E+01 -.200E+02   -.879E-02 0.403E-02 0.904E-02
   -.316E+01 -.184E+02 0.317E+02   0.314E+01 0.184E+02 -.317E+02   0.270E-01 -.699E-02 0.107E-01
   -.136E+01 -.891E+01 0.220E+02   0.135E+01 0.892E+01 -.220E+02   0.603E-02 -.573E-02 -.122E-02
   0.181E+02 -.789E+01 0.357E+02   -.181E+02 0.789E+01 -.357E+02   -.672E-02 -.485E-02 -.460E-01
   0.108E+02 -.930E+01 0.281E+02   -.108E+02 0.929E+01 -.281E+02   -.130E-01 0.162E-01 -.154E-01
   -.438E+01 0.972E+01 0.810E+02   0.445E+01 -.977E+01 -.811E+02   -.619E-01 0.502E-01 0.708E-01
   -.755E+01 -.154E+02 0.767E+02   0.751E+01 0.155E+02 -.768E+02   0.431E-01 -.629E-01 0.674E-01
   0.501E+01 -.220E+01 0.210E+02   -.499E+01 0.220E+01 -.210E+02   -.967E-02 0.195E-02 -.947E-02
   0.933E+00 0.449E+01 0.212E+02   -.926E+00 -.449E+01 -.212E+02   -.130E-01 0.636E-02 -.512E-03
   -.233E+02 0.273E+01 0.460E+02   0.233E+02 -.277E+01 -.460E+02   -.305E-02 0.289E-01 -.361E-01
   -.213E+02 -.910E+01 0.415E+02   0.214E+02 0.906E+01 -.415E+02   -.377E-01 0.313E-01 0.158E-01
   0.656E+01 -.134E+02 0.294E+02   -.657E+01 0.134E+02 -.294E+02   0.111E-01 0.848E-02 -.196E-01
   0.611E+00 -.498E+01 0.224E+02   -.621E+00 0.497E+01 -.224E+02   0.168E-02 0.908E-02 -.890E-02
   -.173E+02 -.186E+02 0.512E+02   0.173E+02 0.187E+02 -.513E+02   -.437E-01 -.273E-01 0.556E-01
   -.987E+01 -.180E+02 0.339E+02   0.988E+01 0.180E+02 -.339E+02   -.366E-03 -.259E-01 0.243E-01
   0.588E+00 0.241E+01 0.194E+02   -.594E+00 -.241E+01 -.194E+02   0.120E-01 -.842E-02 0.390E-02
   0.167E+01 0.244E+01 0.208E+02   -.168E+01 -.243E+01 -.208E+02   0.560E-03 -.305E-02 -.581E-02
   -.725E+01 0.908E+00 0.228E+02   0.725E+01 -.916E+00 -.228E+02   0.102E-01 0.215E-02 -.147E-02
   -.623E+01 -.250E+01 0.222E+02   0.624E+01 0.249E+01 -.222E+02   -.111E-01 0.846E-02 -.200E-02
   -.127E+02 -.662E+01 0.262E+02   0.127E+02 0.661E+01 -.262E+02   -.151E-01 0.447E-02 0.280E-02
   -.734E+01 -.595E+01 0.218E+02   0.734E+01 0.595E+01 -.218E+02   -.111E-01 0.327E-02 0.110E-01
   -.689E+01 -.900E+01 0.234E+02   0.690E+01 0.901E+01 -.234E+02   -.110E-01 -.718E-02 0.878E-02
   -.101E+01 -.214E+01 0.199E+02   0.101E+01 0.215E+01 -.199E+02   0.249E-02 -.227E-02 0.849E-02
   0.258E+01 0.620E+01 0.208E+02   -.258E+01 -.621E+01 -.208E+02   -.447E-02 0.934E-02 0.844E-02
   0.859E+01 0.135E+02 0.272E+02   -.861E+01 -.135E+02 -.272E+02   0.107E-01 0.113E-01 0.174E-01
   0.688E+00 0.110E+02 0.231E+02   -.677E+00 -.110E+02 -.231E+02   -.847E-02 0.820E-02 -.230E-03
   0.990E-01 0.206E+02 0.349E+02   -.681E-01 -.206E+02 -.349E+02   -.342E-01 0.119E-01 0.126E-01
   -.209E+01 0.416E+01 0.224E+02   0.210E+01 -.416E+01 -.223E+02   0.112E-02 -.780E-02 -.619E-02
   -.883E+01 0.112E+02 0.280E+02   0.884E+01 -.112E+02 -.280E+02   -.945E-02 -.202E-02 -.168E-01
   -.151E+01 -.424E+01 0.207E+02   0.150E+01 0.424E+01 -.207E+02   0.145E-01 -.235E-02 0.141E-02
   -.394E+01 0.160E+01 0.198E+02   0.392E+01 -.159E+01 -.198E+02   0.786E-02 -.696E-03 -.819E-02
   0.311E+00 -.263E+01 0.196E+02   -.314E+00 0.263E+01 -.196E+02   0.825E-02 -.386E-02 0.597E-02
   0.416E+01 0.305E+01 0.198E+02   -.417E+01 -.305E+01 -.198E+02   0.610E-02 0.223E-02 0.354E-02
   0.144E+00 -.100E+00 -.406E+03   -.132E+00 0.923E-01 0.406E+03   -.110E-01 0.631E-02 -.345E-01
   -.229E+03 0.156E+03 -.622E+03   0.279E+03 -.190E+03 0.626E+03   -.512E+02 0.348E+02 -.330E+01
   0.229E+03 -.156E+03 -.600E+03   -.279E+03 0.190E+03 0.597E+03   0.511E+02 -.348E+02 0.321E+01
 -----------------------------------------------------------------------------------------------
   0.326E-01 -.381E-02 0.191E+00   0.114E-12 -.114E-12 0.227E-12   -.323E-01 0.365E-02 -.190E+00
 
 
 POSITION                                       TOTAL-FORCE (eV/Angst)
 -----------------------------------------------------------------------------------
     11.98348      0.00342      0.01417         0.001892      0.000017      0.000323
     -0.34154      1.42665      0.01100         0.000780      0.002015      0.001386
      2.12355      0.00315      0.01249         0.001817     -0.003300      0.004713
      2.12326      1.42653      0.00641        -0.000986      0.003208      0.005123
     10.75099      2.13819      0.01213         0.000680     -0.004070      0.002539
     -1.57382      3.56123      0.01110        -0.004622      0.006736      0.001062
      0.89078      2.13854      0.00548        -0.001610      0.001444      0.002055
      0.89099      3.56147      0.00181        -0.006671      0.006162     -0.005439
      4.58864      0.00346      0.01135         0.006358      0.001253     -0.000006
      4.58894      1.42623      0.00646        -0.002401      0.001283     -0.007020
      9.51854      4.27281      0.01369         0.007390     -0.006780      0.000613
     -2.80632      5.69591      0.01434        -0.008208      0.004576      0.001208
      2.12300      4.27302      0.00000        -0.001111      0.004850     -0.009374
      2.12335      5.69594      0.00581        -0.003539     -0.007052      0.001478
      7.05344      0.00333      0.01399         0.005722     -0.002556      0.002466
      7.05353      1.42635      0.01368        -0.005253      0.004991      0.000481
      8.28610      6.40752      0.01601         0.003703     -0.002135     -0.000283
     -4.03885      7.83070      0.01636        -0.002632      0.002681      0.000282
      3.35586      6.40753      0.01007         0.001926      0.000100      0.002642
      3.35599      7.83072      0.01320        -0.002920      0.000131      0.000511
     -0.34146      4.27290      0.00723         0.009817     -0.006957      0.000556
     -0.34138      5.69591      0.00946        -0.006646      0.002836      0.003209
      3.35624      2.13791      0.00222         0.004747     -0.001214     -0.005901
      3.35573      3.56155      0.00139        -0.002186      0.001127     -0.001873
     -1.57395      6.40758      0.01311         0.009571     -0.003792     -0.000364
     -1.57385      7.83068      0.01438        -0.004806      0.004151      0.000746
      5.82093      2.13784      0.01033         0.002749     -0.005635     -0.001621
      5.82114      3.56097      0.01156        -0.001976      0.000030      0.003863
      0.89092      6.40755      0.00907         0.004077     -0.000561      0.002538
      0.89106      7.83068      0.01235        -0.008536      0.000198      0.000758
      4.58871      4.27293      0.00850         0.000142     -0.004786      0.005099
      4.58852      5.69606      0.01149         0.000871      0.006622      0.001972
      9.51845      0.00337      0.01490         0.005586     -0.005601      0.000593
      9.51855      1.42644      0.01438        -0.004455      0.008713     -0.000025
      8.28593      2.13803      0.01453         0.003435     -0.005360      0.001696
      8.28613      3.56115      0.01464        -0.004527      0.001650      0.000989
      7.05356      4.27269      0.01457         0.003119     -0.000655      0.001829
      7.05362      5.69588      0.01553        -0.002554      0.000628      0.000405
      5.82112      6.40755      0.01489        -0.000846      0.001481      0.000665
      5.82102      7.83073      0.01579         0.000876      0.001815     -0.000035
      7.05363      8.54227      0.01631        -0.002686     -0.001004      0.001504
     -5.27149      9.96549      0.01495        -0.001659     -0.002608     -0.000225
     -2.80638      8.54234      0.01558         0.002660     -0.001278      0.000397
     -2.80627      9.96553      0.01362        -0.002571      0.000941      0.002229
     -0.34149      8.54239      0.01378         0.006097     -0.001641      0.001044
     -0.34138      9.96550      0.01354        -0.007050      0.003072      0.002489
      2.12343      8.54232      0.01336         0.006373     -0.001335      0.001197
      2.12354      9.96544      0.01469        -0.007793      0.004187     -0.001637
      4.58846      8.54235      0.01505         0.005062     -0.004098      0.001293
      4.58853      9.96550      0.01517        -0.003314      0.003490      0.000949
      3.04930      2.68154      3.24980         0.001689     -0.002065     -0.025731
      4.02070      2.02068      3.31422        -0.604658      0.417034     -0.045228
      2.07767      3.34267      3.19035         0.609074     -0.422941      0.041859
 -----------------------------------------------------------------------------------
    total drift:                                0.000267     -0.000158      0.000769


--------------------------------------------------------------------------------------------------------



  FREE ENERGIE OF THE ION-ELECTRON SYSTEM (eV)
  ---------------------------------------------------
  free  energy   TOTEN  =      -411.83406667 eV

  energy  without entropy=     -411.83406667  energy(sigma->0) =     -411.83406667
 


--------------------------------------------------------------------------------------------------------


    POTLOK:  cpu time    8.1304: real time    8.1916


--------------------------------------------------------------------------------------------------------


 writing wavefunctions
     LOOP+:  cpu time  689.6457: real time  695.9624
    4ORBIT:  cpu time    0.0000: real time    0.0000

 total amount of memory used by VASP MPI-rank0   551512. kBytes
=======================================================================

   base      :      30000. kBytes
   nonl-proj :     230539. kBytes
   fftplans  :      40716. kBytes
   grid      :     216018. kBytes
   one-center:        162. kBytes
   wavefun   :      34077. kBytes
 
  
  
 General timing and accounting informations for this job:
 ========================================================
  
                  Total CPU time used (sec):      738.355
                            User time (sec):      699.805
                          System time (sec):       38.551
                         Elapsed time (sec):      746.384
  
                   Maximum memory used (kb):     1365752.
                   Average memory used (kb):          N/A
  
                          Minor page faults:       432134
                          Major page faults:          112
                 Voluntary context switches:         4147
