 vasp.6.2.1 16May21 (build Nov 06 2021 14:46:37) complex                        
  
 executed on             LinuxIFC date 2025.04.16  16:46:57
 running on  112 total cores
 distrk:  each k-point on   56 cores,    2 groups
 distr:  one band on NCORE=   1 cores,   56 groups


--------------------------------------------------------------------------------------------------------


 INCAR:
   ALGO = Conjugate
   KPAR = 2
   NCORE = 32
   ISMEAR = 0
   SIGMA = 0.01
   PREC = Accurate
   EDIFF = 1E-7
   ENCUT = 1000
   ISIF = 0
   METAGGA = R2SCAN
   LASPH = .TRUE.
   IVDW = 12
   VDW_S8 = 0.7898
   VDW_A1 = 0.4948
   VDW_A2 = 5.7308
   SYMPREC = 1E-7

 POTCAR:    PAW_PBE C_h 06Feb2004                 
 POTCAR:    PAW_PBE O_h 06Feb2004                 
 -----------------------------------------------------------------------------
|                                                                             |
|           W    W    AA    RRRRR   N    N  II  N    N   GGGG   !!!           |
|           W    W   A  A   R    R  NN   N  II  NN   N  G    G  !!!           |
|           W    W  A    A  R    R  N N  N  II  N N  N  G       !!!           |
|           W WW W  AAAAAA  RRRRR   N  N N  II  N  N N  G  GGG   !            |
|           WW  WW  A    A  R   R   N   NN  II  N   NN  G    G                |
|           W    W  A    A  R    R  N    N  II  N    N   GGGG   !!!           |
|                                                                             |
|     The value NCORE = 32 specified in the INCAR file was overwritten,       |
|     because it was not compatible with the 56 processes available:          |
|     NCORE = 1                                                               |
|     was used instead, please check that this makes sense for your           |
|     machine.                                                                |
|                                                                             |
 -----------------------------------------------------------------------------

 -----------------------------------------------------------------------------
|                                                                             |
|           W    W    AA    RRRRR   N    N  II  N    N   GGGG   !!!           |
|           W    W   A  A   R    R  NN   N  II  NN   N  G    G  !!!           |
|           W    W  A    A  R    R  N N  N  II  N N  N  G       !!!           |
|           W WW W  AAAAAA  RRRRR   N  N N  II  N  N N  G  GGG   !            |
|           WW  WW  A    A  R   R   N   NN  II  N   NN  G    G                |
|           W    W  A    A  R    R  N    N  II  N    N   GGGG   !!!           |
|                                                                             |
|     For optimal performance we recommend to set                             |
|       NCORE = 2 up to number-of-cores-per-socket                            |
|     NCORE specifies how many cores store one orbital (NPAR=cpu/NCORE).      |
|     This setting can greatly improve the performance of VASP for DFT.       |
|     The default, NCORE=1 might be grossly inefficient on modern             |
|     multi-core architectures or massively parallel machines. Do your        |
|     own testing! More info at https://www.vasp.at/wiki/index.php/NCORE      |
|     Unfortunately you need to use the default for GW and RPA                |
|     calculations (for HF NCORE is supported but not extensively tested      |
|     yet).                                                                   |
|                                                                             |
 -----------------------------------------------------------------------------

 POTCAR:    PAW_PBE C_h 06Feb2004                 
   VRHFIN =C: s2p2                                                                                  
   LEXCH  = PE                                                                                      
   EATOM  =   147.1560 eV,   10.8157 Ry                                                             
                                                                                                    
   TITEL  = PAW_PBE C_h 06Feb2004                                                                   
   LULTRA =        F    use ultrasoft PP ?                                                          
   IUNSCR =        1    unscreen: 0-lin 1-nonlin 2-no                                               
   RPACOR =    0.800    partial core radius                                                         
   POMASS =   12.011; ZVAL   =    4.000    mass and valenz                                          
   RCORE  =    1.100    outmost cutoff radius                                                       
   RWIGS  =    1.630; RWIGS  =    0.863    wigner-seitz radius (au A)                               
   ENMAX  =  700.000; ENMIN  =  500.000 eV                                                          
   ICORE  =        2    local potential                                                             
   LCOR   =        T    correct aug charges                                                         
   LPAW   =        T    paw PP                                                                      
   EAUG   =  946.768                                                                                
   DEXC   =    0.000                                                                                
   RMAX   =    1.128    core radius for proj-oper                                                   
   RAUG   =    1.300    factor for augmentation sphere                                              
   RDEP   =    1.162    radius for radial grids                                                     
   RDEPT  =    1.088    core radius for aug-charge                                                  
                                                                                                    
   Atomic configuration                                                                             
    4 entries                                                                                       
     n  l   j            E        occ.                                                              
     1  0  0.50      -273.3789   2.0000                                                             
     2  0  0.50       -13.7508   2.0000                                                             
     2  1  0.50        -5.2854   2.0000                                                             
     3  2  1.50        -5.4423   0.0000                                                             
   Description                                                                                      
     l       E           TYP  RCUT    TYP  RCUT                                                     
     0    -13.7508458     23  1.100                                                                 
     0     -8.2022199     23  1.100                                                                 
     1     -5.2854383     23  1.100                                                                 
     1      1.1560700     23  1.100                                                                 
     2     -5.4423304      7  1.100                                                                 
  local pseudopotential read in
  partial core-charges read in
  partial kinetic energy density read in
  atomic valenz-charges read in
  non local Contribution for L=           0  read in
    real space projection operators read in
  non local Contribution for L=           0  read in
    real space projection operators read in
  non local Contribution for L=           1  read in
    real space projection operators read in
  non local Contribution for L=           1  read in
    real space projection operators read in
    PAW grid and wavefunctions read in
 
   number of l-projection  operators is LMAX  =           4
   number of lm-projection operators is LMMAX =           8
 
 POTCAR:    PAW_PBE O_h 06Feb2004                 
   VRHFIN =O: s2p4                                                                                  
   LEXCH  = PE                                                                                      
   EATOM  =   432.3788 eV,   31.7789 Ry                                                             
                                                                                                    
   TITEL  = PAW_PBE O_h 06Feb2004                                                                   
   LULTRA =        F    use ultrasoft PP ?                                                          
   IUNSCR =        1    unscreen: 0-lin 1-nonlin 2-no                                               
   RPACOR =    0.800    partial core radius                                                         
   POMASS =   16.000; ZVAL   =    6.000    mass and valenz                                          
   RCORE  =    1.100    outmost cutoff radius                                                       
   RWIGS  =    1.400; RWIGS  =    0.741    wigner-seitz radius (au A)                               
   ENMAX  =  700.000; ENMIN  =  500.000 eV                                                          
   ICORE  =        2    local potential                                                             
   LCOR   =        T    correct aug charges                                                         
   LPAW   =        T    paw PP                                                                      
   EAUG   =  888.804                                                                                
   DEXC   =    0.000                                                                                
   RMAX   =    1.128    core radius for proj-oper                                                   
   RAUG   =    1.300    factor for augmentation sphere                                              
   RDEP   =    1.125    radius for radial grids                                                     
   RDEPT  =    1.088    core radius for aug-charge                                                  
                                                                                                    
   Atomic configuration                                                                             
    4 entries                                                                                       
     n  l   j            E        occ.                                                              
     1  0  0.50      -514.6923   2.0000                                                             
     2  0  0.50       -23.9615   2.0000                                                             
     2  1  0.50        -9.0305   4.0000                                                             
     3  2  1.50        -9.5241   0.0000                                                             
   Description                                                                                      
     l       E           TYP  RCUT    TYP  RCUT                                                     
     0    -23.9615319     23  1.100                                                                 
     0    -25.3221145     23  1.100                                                                 
     1     -9.0304911     23  1.100                                                                 
     1     -5.4802209     23  1.100                                                                 
     2     -9.5240782      7  1.100                                                                 
  local pseudopotential read in
  partial core-charges read in
  partial kinetic energy density read in
  atomic valenz-charges read in
  non local Contribution for L=           0  read in
    real space projection operators read in
  non local Contribution for L=           0  read in
    real space projection operators read in
  non local Contribution for L=           1  read in
    real space projection operators read in
  non local Contribution for L=           1  read in
    real space projection operators read in
    PAW grid and wavefunctions read in
 
   number of l-projection  operators is LMAX  =           4
   number of lm-projection operators is LMMAX =           8
 
 -----------------------------------------------------------------------------
|                                                                             |
|               ----> ADVICE to this user running VASP <----                  |
|                                                                             |
|     You have a (more or less) 'large supercell' and for larger cells it     |
|     might be more efficient to use real-space projection operators.         |
|     Therefore, try LREAL= Auto in the INCAR file.                           |
|     Mind: For very accurate calculation, you might also keep the            |
|     reciprocal projection scheme (i.e. LREAL=.FALSE.).                      |
|                                                                             |
 -----------------------------------------------------------------------------

  PAW_PBE C_h 06Feb2004                 :
 energy of atom  1       EATOM= -147.1560
 kinetic energy error for atom=    0.0031 (will be added to EATOM!!)
  PAW_PBE O_h 06Feb2004                 :
 energy of atom  2       EATOM= -432.3788
 kinetic energy error for atom=    0.0171 (will be added to EATOM!!)
 
 
 POSCAR:  C  O
  positions in cartesian coordinates
  No initial velocities read in

 METAGGA = R2SCA    LMAXTAU =  6    LMIXTAU =  F

 exchange correlation table for  LEXCH =        8
   RHO(1)=    0.500       N(1)  =     2000
   RHO(2)=  100.500       N(2)  =     4000
 


--------------------------------------------------------------------------------------------------------


 ion  position               nearest neighbor table
   1  0.972  0.000  0.001-  50 1.42   2 1.42  42 1.42
   2  0.039  0.134  0.000-   5 1.42   7 1.42   1 1.42
   3  0.172  0.000  0.000-  42 1.42  44 1.42   4 1.42
   4  0.239  0.134  0.000-   7 1.42   3 1.42  23 1.42
   5  0.972  0.200  0.000-   6 1.42   2 1.42  34 1.42
   6  0.039  0.334  0.000-   5 1.42  21 1.42  11 1.42
   7  0.172  0.200  0.000-   8 1.42   2 1.42   4 1.42
   8  0.239  0.334  0.000-  13 1.42   7 1.42  21 1.42
   9  0.372  0.000  0.000-  10 1.42  44 1.42  46 1.42
  10  0.439  0.134  0.000-  27 1.42   9 1.42  23 1.42
  11  0.972  0.400  0.001-  12 1.42  36 1.42   6 1.42
  12  0.039  0.534  0.001-  25 1.42  11 1.42  17 1.42
  13  0.372  0.400  0.000-   8 1.42  14 1.42  24 1.42
  14  0.439  0.534  0.000-  13 1.42  29 1.42  19 1.42
  15  0.572  0.000  0.001-  46 1.42  16 1.42  48 1.42
  16  0.639  0.134  0.001-  15 1.42  35 1.42  27 1.42
  17  0.972  0.600  0.001-  38 1.42  18 1.42  12 1.42
  18  0.039  0.734  0.001-  43 1.42  41 1.42  17 1.42
  19  0.572  0.600  0.000-  14 1.42  20 1.42  32 1.42
  20  0.639  0.734  0.001-  49 1.42  19 1.42  47 1.42
  21  0.172  0.400  0.000-  22 1.42   8 1.42   6 1.42
  22  0.239  0.534  0.000-  21 1.42  29 1.42  25 1.42
  23  0.372  0.200  0.000-  10 1.42   4 1.42  24 1.42
  24  0.439  0.334  0.000-  13 1.42  31 1.42  23 1.42
  25  0.172  0.600  0.001-  26 1.42  12 1.42  22 1.42
  26  0.239  0.734  0.001-  25 1.42  45 1.42  43 1.42
  27  0.572  0.200  0.000-  10 1.42  28 1.42  16 1.42
  28  0.639  0.334  0.000-  27 1.42  37 1.42  31 1.42
  29  0.372  0.600  0.000-  22 1.42  14 1.42  30 1.42
  30  0.439  0.734  0.000-  47 1.42  29 1.42  45 1.42
  31  0.572  0.400  0.000-  32 1.42  28 1.42  24 1.42
  32  0.639  0.534  0.000-  31 1.42  39 1.42  19 1.42
  33  0.772  0.000  0.001-  34 1.42  48 1.42  50 1.42
  34  0.839  0.134  0.001-  33 1.42   5 1.42  35 1.42
  35  0.772  0.200  0.001-  36 1.42  16 1.42  34 1.42
  36  0.839  0.334  0.001-  35 1.42  11 1.42  37 1.42
  37  0.772  0.400  0.001-  28 1.42  38 1.42  36 1.42
  38  0.839  0.534  0.001-  17 1.42  37 1.42  39 1.42
  39  0.772  0.600  0.001-  40 1.42  38 1.42  32 1.42
  40  0.839  0.734  0.001-  39 1.42  49 1.42  41 1.42
  41  0.972  0.800  0.001-  18 1.42  42 1.42  40 1.42
  42  0.039  0.934  0.001-   3 1.42  41 1.42   1 1.42
  43  0.172  0.800  0.001-  18 1.42  44 1.42  26 1.42
  44  0.239  0.934  0.001-   9 1.42  43 1.42   3 1.42
  45  0.372  0.800  0.001-  26 1.42  46 1.42  30 1.42
  46  0.439  0.934  0.001-  15 1.42  45 1.42   9 1.42
  47  0.572  0.800  0.001-  30 1.42  48 1.42  20 1.42
  48  0.639  0.934  0.001-  47 1.42  33 1.42  15 1.42
  49  0.772  0.800  0.001-  50 1.42  20 1.42  40 1.42
  50  0.839  0.934  0.001-  49 1.42   1 1.42  33 1.42
  51  0.373  0.251  0.100-  52 1.18  53 1.18
  52  0.421  0.189  0.103-  51 1.18
  53  0.325  0.313  0.098-  51 1.18
 
  LATTYP: Found a hexagonal cell.
 ALAT       =    12.3250000000
 C/A-ratio  =     2.0283975659
  
  Lattice vectors:
  
 A1 = (  12.3250000000,   0.0000000000,   0.0000000000)
 A2 = (  -6.1625000000,  10.6737631016,   0.0000000000)
 A3 = (   0.0000000000,   0.0000000000,  25.0000000000)


Analysis of symmetry for initial positions (statically):
=====================================================================
 Subroutine PRICEL returns:
 Original cell was already a primitive cell.
 

 Routine SETGRP: Setting up the symmetry group for a 
 hexagonal supercell.


 Subroutine GETGRP returns: Found  1 space group operations
 (whereof  1 operations were pure point group operations)
 out of a pool of 24 trial point group operations.


The static configuration has the point symmetry C_1 .


Analysis of symmetry for dynamics (positions and initial velocities):
=====================================================================
 Subroutine PRICEL returns:
 Original cell was already a primitive cell.
 

 Routine SETGRP: Setting up the symmetry group for a 
 hexagonal supercell.


 Subroutine GETGRP returns: Found  1 space group operations
 (whereof  1 operations were pure point group operations)
 out of a pool of 24 trial point group operations.


The dynamic configuration has the point symmetry C_1 .


 Subroutine INISYM returns: Found  1 space group operations
 (whereof  1 operations are pure point group operations),
 and found     1 'primitive' translations


----------------------------------------------------------------------------------------

                                     Primitive cell                                     

  volume of cell :    3288.8533

  direct lattice vectors                    reciprocal lattice vectors
    12.325000000  0.000000000  0.000000000     0.081135903  0.046843835  0.000000000
    -6.162500000 10.673763102  0.000000000     0.000000000  0.093687670  0.000000000
     0.000000000  0.000000000 25.000000000     0.000000000  0.000000000  0.040000000

  length of vectors
    12.325000000 12.325000000 25.000000000     0.093687670  0.093687670  0.040000000

  position of ions in fractional coordinates (direct lattice)
     0.972450841  0.000320818  0.000566711
     0.039118382  0.133659505  0.000440173
     0.172443627  0.000295449  0.000499628
     0.239096278  0.133647917  0.000256468
     0.972452058  0.200322012  0.000485219
     0.039128360  0.333643771  0.000444150
     0.172451764  0.200354552  0.000219167
     0.239124359  0.333665720  0.000072260
     0.372465565  0.000324403  0.000453913
     0.439137473  0.133619939  0.000258338
     0.972449824  0.400309362  0.000547611
     0.039124981  0.533636789  0.000573410
     0.372416176  0.400329481  0.000000000
     0.439099602  0.533638981  0.000232414
     0.572443676  0.000312125  0.000559580
     0.639110207  0.133631751  0.000547275
     0.972452703  0.600305653  0.000640289
     0.039124495  0.733640359  0.000654513
     0.572433471  0.600306242  0.000402895
     0.639111888  0.733641879  0.000527905
     0.172454630  0.400318228  0.000289045
     0.239120185  0.533636548  0.000378509
     0.372459750  0.200295993  0.000088997
     0.439107096  0.333673419  0.000055762
     0.172452155  0.600311506  0.000524340
     0.239123371  0.733638574  0.000575129
     0.572431082  0.200289171  0.000413296
     0.639112773  0.333618630  0.000462376
     0.372439808  0.600308022  0.000362844
     0.439116090  0.733637858  0.000494190
     0.572469358  0.400320504  0.000339918
     0.639119408  0.533650873  0.000459610
     0.772445723  0.000315427  0.000596161
     0.839116277  0.133640203  0.000575306
     0.772440513  0.200307432  0.000581033
     0.839120241  0.333635728  0.000585467
     0.772446320  0.400298367  0.000582978
     0.839118980  0.533633964  0.000621100
     0.772456143  0.600308173  0.000595712
     0.839115033  0.733643180  0.000631512
     0.972455313  0.800305582  0.000652233
     0.039114714  0.933643289  0.000598051
     0.172457971  0.800312211  0.000623372
     0.239134551  0.933647193  0.000544850
     0.372451396  0.800316674  0.000551399
     0.439124489  0.933644769  0.000541430
     0.572441101  0.800310054  0.000534535
     0.639115067  0.933638985  0.000587644
     0.772445098  0.800313187  0.000602062
     0.839116614  0.933644338  0.000606830
     0.373021009  0.251226878  0.100000000
     0.420879805  0.189313152  0.102576874
     0.325156981  0.313167186  0.097621805

  ion indices of the primitive-cell ions
   primitive index   ion index
                 1           1
                 2           2
                 3           3
                 4           4
                 5           5
                 6           6
                 7           7
                 8           8
                 9           9
                10          10
                11          11
                12          12
                13          13
                14          14
                15          15
                16          16
                17          17
                18          18
                19          19
                20          20
                21          21
                22          22
                23          23
                24          24
                25          25
                26          26
                27          27
                28          28
                29          29
                30          30
                31          31
                32          32
                33          33
                34          34
                35          35
                36          36
                37          37
                38          38
                39          39
                40          40
                41          41
                42          42
                43          43
                44          44
                45          45
                46          46
                47          47
                48          48
                49          49
                50          50
                51          51
                52          52
                53          53

----------------------------------------------------------------------------------------

 
 
 KPOINTS: auto                                    

Automatic generation of k-mesh.
 Grid dimensions read from file:
 generate k-points for:    1    1    1

 Generating k-lattice:

  Cartesian coordinates                     Fractional coordinates (reciprocal lattice)
     0.081135903  0.046843835  0.000000000     1.000000000 -0.000000000  0.000000000
     0.000000000  0.093687670  0.000000000     0.000000000  1.000000000  0.000000000
     0.000000000  0.000000000  0.040000000     0.000000000  0.000000000  1.000000000

  Length of vectors
     0.093687670  0.093687670  0.040000000

  Shift w.r.t. Gamma in fractional coordinates (k-lattice)
     0.000000000  0.000000000  0.000000000

 
 Subroutine IBZKPT returns following result:
 ===========================================
 
 Found      1 irreducible k-points:
 
 Following reciprocal coordinates:
            Coordinates               Weight
  0.000000  0.000000  0.000000      1.000000
 
 Following cartesian coordinates:
            Coordinates               Weight
  0.000000  0.000000  0.000000      1.000000
 


--------------------------------------------------------------------------------------------------------




 Dimension of arrays:
   k-points           NKPTS =      1   k-points in BZ     NKDIM =      1   number of bands    NBANDS=    168
   number of dos      NEDOS =    301   number of ions     NIONS =     53
   non local maximal  LDIM  =      4   non local SUM 2l+1 LMDIM =      8
   total plane-waves  NPLWV = ******
   max r-space proj   IRMAX =      1   max aug-charges    IRDMAX=  10008
   dimension x,y,z NGX =   128 NGY =  128 NGZ =  270
   dimension x,y,z NGXF=   256 NGYF=  256 NGZF=  540
   support grid    NGXF=   256 NGYF=  256 NGZF=  540
   ions per type =              51   2
   NGX,Y,Z   is equivalent  to a cutoff of  17.27, 17.27, 17.95 a.u.
   NGXF,Y,Z  is equivalent  to a cutoff of  34.53, 34.53, 35.91 a.u.

 SYSTEM =  unknown system                          
 POSCAR =   C  O                                   

 Startparameter for this run:
   NWRITE =      2    write-flag & timer
   PREC   = accura    normal or accurate (medium, high low for compatibility)
   ISTART =      0    job   : 0-new  1-cont  2-samecut
   ICHARG =      2    charge: 1-file 2-atom 10-const
   ISPIN  =      1    spin polarized calculation?
   LNONCOLLINEAR =      F non collinear calculations
   LSORBIT =      F    spin-orbit coupling
   INIWAV =      1    electr: 0-lowe 1-rand  2-diag
   LASPH  =      T    aspherical Exc in radial PAW
 Electronic Relaxation 1
   ENCUT  = 1000.0 eV  73.50 Ry    8.57 a.u.  31.78 31.78 64.46*2*pi/ulx,y,z
   ENINI  = 1000.0     initial cutoff
   ENAUG  =  946.8 eV  augmentation charge cutoff
   NELM   =     60;   NELMIN=  2; NELMDL= -5     # of ELM steps 
   EDIFF  = 0.1E-06   stopping-criterion for ELM
   LREAL  =      F    real-space projection
   NLSPLINE    = F    spline interpolate recip. space projectors
   LCOMPAT=      F    compatible to vasp.4.4
   GGA_COMPAT  = T    GGA compatible to vasp.4.4-vasp.4.6
   LMAXPAW     = -100 max onsite density
   LMAXMIX     =    2 max onsite mixed and CHGCAR
   VOSKOWN=      0    Vosko Wilk Nusair interpolation
   ROPT   =    0.00000   0.00000
 Ionic relaxation
   EDIFFG = 0.1E-05   stopping-criterion for IOM
   NSW    =      0    number of steps for IOM
   NBLOCK =      1;   KBLOCK =      1    inner block; outer block 
   IBRION =     -1    ionic relax: 0-MD 1-quasi-New 2-CG
   NFREE  =      0    steps in history (QN), initial steepest desc. (CG)
   ISIF   =      0    stress and relaxation
   IWAVPR =     10    prediction:  0-non 1-charg 2-wave 3-comb
   ISYM   =      2    0-nonsym 1-usesym 2-fastsym
   LCORR  =      T    Harris-Foulkes like correction to forces

   POTIM  = 0.5000    time-step for ionic-motion
   TEIN   =    0.0    initial temperature
   TEBEG  =    0.0;   TEEND  =   0.0 temperature during run
   SMASS  =  -3.00    Nose mass-parameter (am)
   estimated Nose-frequenzy (Omega)   =  0.10E-29 period in steps = 0.13E+47 mass=  -0.347E-26a.u.
   SCALEE = 1.0000    scale energy and forces
   NPACO  =    256;   APACO  = 16.0  distance and # of slots for P.C.
   PSTRESS=    0.0 pullay stress

  Mass of Ions in am
   POMASS =  12.01 16.00
  Ionic Valenz
   ZVAL   =   4.00  6.00
  Atomic Wigner-Seitz radii
   RWIGS  =  -1.00 -1.00
  virtual crystal weights 
   VCA    =   1.00  1.00
   NELECT =     216.0000    total number of electrons
   NUPDOWN=      -1.0000    fix difference up-down

 DOS related values:
   EMIN   =  10.00;   EMAX   =-10.00  energy-range for DOS
   EFERMI =   0.00
   ISMEAR =     0;   SIGMA  =   0.01  broadening in eV -4-tet -1-fermi 0-gaus

 Electronic relaxation 2 (details)
   IALGO  =     58    algorithm
   LDIAG  =      T    sub-space diagonalisation (order eigenvalues)
   LSUBROT=      F    optimize rotation matrix (better conditioning)
   TURBO    =      0    0=normal 1=particle mesh
   IRESTART =      0    0=no restart 2=restart with 2 vectors
   NREBOOT  =      0    no. of reboots
   NMIN     =      0    reboot dimension
   EREF     =   0.00    reference energy to select bands
   IMIX   =      4    mixing-type and parameters
     AMIX     =   0.40;   BMIX     =  1.00
     AMIX_MAG =   1.60;   BMIX_MAG =  1.00
     AMIN     =   0.10
     WC   =   100.;   INIMIX=   1;  MIXPRE=   1;  MAXMIX= -45

 Intra band minimization:
   WEIMIN = 0.0000     energy-eigenvalue tresh-hold
   EBREAK =  0.15E-09  absolut break condition
   DEPER  =   0.30     relativ break condition  

   TIME   =   0.40     timestep for ELM

  volume/ion in A,a.u.               =      62.05       418.76
  Fermi-wavevector in a.u.,A,eV,Ry     =   0.660508  1.248179  5.935820  0.436270
  Thomas-Fermi vector in A             =   1.732977
 
 Write flags
   LWAVE        =      T    write WAVECAR
   LDOWNSAMPLE  =      F    k-point downsampling of WAVECAR
   LCHARG       =      T    write CHGCAR
   LVTOT        =      F    write LOCPOT, total local potential
   LVHAR        =      F    write LOCPOT, Hartree potential only
   LELF         =      F    write electronic localiz. function (ELF)
   LORBIT       =      0    0 simple, 1 ext, 2 COOP (PROOUT), +10 PAW based schemes


 Dipole corrections
   LMONO  =      F    monopole corrections only (constant potential shift)
   LDIPOL =      F    correct potential (dipole corrections)
   IDIPOL =      0    1-x, 2-y, 3-z, 4-all directions 
   EPSILON=  1.0000000 bulk dielectric constant

 Exchange correlation treatment:
   GGA     =    --    GGA type
   LEXCH   =     8    internal setting for exchange type
   VOSKOWN=      0    Vosko Wilk Nusair interpolation
   LHFCALC =     F    Hartree Fock is set to
   LHFONE  =     F    Hartree Fock one center treatment
   AEXX    =    0.0000 exact exchange contribution

 Linear response parameters
   LEPSILON=     F    determine dielectric tensor
   LRPA    =     F    only Hartree local field effects (RPA)
   LNABLA  =     F    use nabla operator in PAW spheres
   LVEL    =     F    velocity operator in full k-point grid
   LINTERFAST=   F  fast interpolation
   KINTER  =     0    interpolate to denser k-point grid
   CSHIFT  =0.1000    complex shift for real part using Kramers Kronig
   OMEGAMAX=  -1.0    maximum frequency
   DEG_THRESHOLD= 0.2000000E-02 threshold for treating states as degnerate
   RTIME   =   -0.100 relaxation time in fs
  (WPLASMAI=    0.000 imaginary part of plasma frequency in eV, 0.658/RTIME)
   DFIELD  = 0.0000000 0.0000000 0.0000000 field for delta impulse in time
 
 Orbital magnetization related:
   ORBITALMAG=     F  switch on orbital magnetization
   LCHIMAG   =     F  perturbation theory with respect to B field
   DQ        =  0.001000  dq finite difference perturbation B field
   LLRAUG    =     F  two centre corrections for induced B field



--------------------------------------------------------------------------------------------------------


 Static calculation
 charge density and potential will be updated during run
 non-spin polarized calculation
 Conjugate gradient for all bands (Freysoldt, et al. PRB 79, 241103 (2009))
 preconditioned conjugated gradient                                        
 perform sub-space diagonalisation
    before iterative eigenvector-optimisation
 modified Broyden-mixing scheme, WC =      100.0
 initial mixing is a Kerker type mixing with AMIX =  0.4000 and BMIX =      1.0000
 Hartree-type preconditioning will be used
 using additional bands           60
 reciprocal scheme for non local part
 use partial core corrections
 no Harris-corrections to forces 
 use gradient corrections 
 use of overlap-Matrix (Vanderbilt PP)
 Gauss-broadening in eV      SIGMA  =   0.01


--------------------------------------------------------------------------------------------------------


  energy-cutoff  :     1000.00
  volume of cell :     3288.85
      direct lattice vectors                 reciprocal lattice vectors
    12.325000000  0.000000000  0.000000000     0.081135903  0.046843835  0.000000000
    -6.162500000 10.673763102  0.000000000     0.000000000  0.093687670  0.000000000
     0.000000000  0.000000000 25.000000000     0.000000000  0.000000000  0.040000000

  length of vectors
    12.325000000 12.325000000 25.000000000     0.093687670  0.093687670  0.040000000


 
 k-points in units of 2pi/SCALE and weight: auto                                    
   0.00000000  0.00000000  0.00000000       1.000
 
 k-points in reciprocal lattice and weights: auto                                    
   0.00000000  0.00000000  0.00000000       1.000
 
 position of ions in fractional coordinates (direct lattice) 
   0.97245084  0.00032082  0.00056671
   0.03911838  0.13365950  0.00044017
   0.17244363  0.00029545  0.00049963
   0.23909628  0.13364792  0.00025647
   0.97245206  0.20032201  0.00048522
   0.03912836  0.33364377  0.00044415
   0.17245176  0.20035455  0.00021917
   0.23912436  0.33366572  0.00007226
   0.37246557  0.00032440  0.00045391
   0.43913747  0.13361994  0.00025834
   0.97244982  0.40030936  0.00054761
   0.03912498  0.53363679  0.00057341
   0.37241618  0.40032948  0.00000000
   0.43909960  0.53363898  0.00023241
   0.57244368  0.00031213  0.00055958
   0.63911021  0.13363175  0.00054727
   0.97245270  0.60030565  0.00064029
   0.03912449  0.73364036  0.00065451
   0.57243347  0.60030624  0.00040289
   0.63911189  0.73364188  0.00052791
   0.17245463  0.40031823  0.00028904
   0.23912018  0.53363655  0.00037851
   0.37245975  0.20029599  0.00008900
   0.43910710  0.33367342  0.00005576
   0.17245216  0.60031151  0.00052434
   0.23912337  0.73363857  0.00057513
   0.57243108  0.20028917  0.00041330
   0.63911277  0.33361863  0.00046238
   0.37243981  0.60030802  0.00036284
   0.43911609  0.73363786  0.00049419
   0.57246936  0.40032050  0.00033992
   0.63911941  0.53365087  0.00045961
   0.77244572  0.00031543  0.00059616
   0.83911628  0.13364020  0.00057531
   0.77244051  0.20030743  0.00058103
   0.83912024  0.33363573  0.00058547
   0.77244632  0.40029837  0.00058298
   0.83911898  0.53363396  0.00062110
   0.77245614  0.60030817  0.00059571
   0.83911503  0.73364318  0.00063151
   0.97245531  0.80030558  0.00065223
   0.03911471  0.93364329  0.00059805
   0.17245797  0.80031221  0.00062337
   0.23913455  0.93364719  0.00054485
   0.37245140  0.80031667  0.00055140
   0.43912449  0.93364477  0.00054143
   0.57244110  0.80031005  0.00053453
   0.63911507  0.93363899  0.00058764
   0.77244510  0.80031319  0.00060206
   0.83911661  0.93364434  0.00060683
   0.37302101  0.25122688  0.10000000
   0.42087980  0.18931315  0.10257687
   0.32515698  0.31316719  0.09762181
 
 position of ions in cartesian coordinates  (Angst):
  11.98347958  0.00342433  0.01416777
  -0.34154264  1.42664989  0.01100432
   2.12354700  0.00315355  0.01249070
   2.12325634  1.42652621  0.00641170
  10.75098721  2.13818970  0.01213047
  -1.57382270  3.56123457  0.01110375
   0.89078307  2.13853702  0.00547917
   0.89099273  3.56146885  0.00180651
   4.58863896  0.00346260  0.01134782
   4.58893648  1.42622757  0.00645846
   9.51853763  4.27280730  0.01369027
  -2.80632132  5.69591267  0.01433526
   2.12299894  4.27302204  0.00000000
   2.12335237  5.69593607  0.00581036
   7.05344483  0.00333155  0.01398950
   7.05352764  1.42635365  0.01368187
   8.28609598  6.40752033  0.01600723
  -4.03884931  7.83070339  0.01636283
   3.35585531  6.40752662  0.01007237
   3.35598594  7.83071962  0.01319763
  -0.34145776  4.27290193  0.00722612
  -0.34137895  5.69591010  0.00946273
   3.35624236  2.13791198  0.00222492
   3.35573251  3.56155103  0.00139405
  -1.57394684  6.40758280  0.01310850
  -1.57385216  7.83068434  0.01437823
   5.82093107  2.13783916  0.01033241
   5.82114012  3.56096622  0.01155939
   0.89092245  6.40754561  0.00907111
   0.89106251  7.83067670  0.01235474
   4.58870974  4.27292622  0.00849795
   4.58852320  5.69606300  0.01149026
   9.51844972  0.00336679  0.01490402
   9.51855036  1.42644387  0.01438264
   8.28593477  2.13803408  0.01452582
   8.28612680  3.56114872  0.01463668
   7.05356221  4.27268994  0.01457444
   7.05362213  5.69588251  0.01552751
   5.82112285  6.40754723  0.01489279
   5.82101669  7.83073350  0.01578780
   7.05362858  8.54227219  0.01630582
  -5.27148792  9.96548729  0.01495127
  -2.80637951  8.54234295  0.01558431
  -2.80626749  9.96552896  0.01362126
  -0.34148805  8.54239058  0.01378498
  -0.34137657  9.96550309  0.01353576
   2.12342586  8.54231992  0.01336337
   2.12354296  9.96544135  0.01469111
   4.58845581  8.54235337  0.01505154
   4.58852904  9.96549848  0.01517076
   3.04929830  2.68153618  2.50000000
   4.02070129  2.02068374  2.56442186
   2.07766701  3.34267235  2.44054513
 


--------------------------------------------------------------------------------------------------------


 k-point   1 :   0.0000 0.0000 0.0000  plane waves:  236157

 maximum and minimum number of plane-waves per node :    236157   236157

 maximum number of plane-waves:    236157
 maximum index in each direction: 
   IXMAX=   31   IYMAX=   31   IZMAX=   64
   IXMIN=  -31   IYMIN=  -31   IZMIN=  -64


 serial   3D FFT for wavefunctions
 parallel 3D FFT for charge:
    minimum data exchange during FFTs selected (reduces bandwidth)


 total amount of memory used by VASP MPI-rank0   698619. kBytes
=======================================================================

   base      :      30000. kBytes
   nonl-proj :     230539. kBytes
   fftplans  :      40716. kBytes
   grid      :     363125. kBytes
   one-center:        162. kBytes
   wavefun   :      34077. kBytes
 
     INWAV:  cpu time    0.0000: real time    0.0000
 Broyden mixing: mesh for mixing (old mesh)
   NGX = 63   NGY = 63   NGZ =129
  (NGX  =256   NGY  =256   NGZ  =540)
  gives a total of 512001 points

 initial charge density was supplied:
 charge density of overlapping atoms calculated
 number of electron     216.0000000 magnetization 
 keeping initial charge density in first step


--------------------------------------------------------------------------------------------------------


 Maximum index for augmentation-charges          471 (set IRDMAX)


--------------------------------------------------------------------------------------------------------


 First call to EWALD:  gamma=   0.119
 Maximum number of real-space cells 4x 4x 2
 Maximum number of reciprocal cells 2x 2x 4

    FEWALD:  cpu time    0.0030: real time    0.0030


--------------------------------------- Iteration      1(   1)  ---------------------------------------


    POTLOK:  cpu time    1.7139: real time    1.7305
    SETDIJ:  cpu time    0.1906: real time    0.1914
    TRIAL :  cpu time   28.1458: real time   28.3755
    CORREC:  cpu time    0.0006: real time    0.0007
    --------------------------------------------
      LOOP:  cpu time   30.0559: real time   30.3440

 eigenvalue-minimisations  :   336
 total energy-change (2. order) : 0.2567923E+04  (-0.1079726E+05)
 number of electron     216.0000000 magnetization 
 augmentation part      216.0000000 magnetization 

 Free energy of the ion-electron system (eV)
  ---------------------------------------------------
  alpha Z        PSCENC =        47.94900195
  Ewald energy   TEWEN  =     48644.60191082
  -Hartree energ DENC   =    -54710.66706681
  -exchange      EXHF   =         0.00000000
  -V(xc)+E(xc)   XCENC  =       605.88025378
  PAW double counting   =      6340.10990386    -6200.63067283
  entropy T*S    EENTRO =        -0.00000000
  eigenvalues    EBANDS =      -528.84428587
  atomic energy  EATOM  =      8369.52358910
  ---------------------------------------------------
  free energy    TOTEN  =      2567.92263400 eV

  energy without entropy =     2567.92263400  energy(sigma->0) =     2567.92263400


--------------------------------------------------------------------------------------------------------




--------------------------------------- Iteration      1(   2)  ---------------------------------------


    TRIAL :  cpu time   39.9263: real time   40.2314
    CORREC:  cpu time    0.0001: real time    0.0001
    --------------------------------------------
      LOOP:  cpu time   40.0168: real time   40.3272

 eigenvalue-minimisations  :   560
 total energy-change (2. order) :-0.2496067E+04  (-0.2331470E+04)
 number of electron     216.0000000 magnetization 
 augmentation part      216.0000000 magnetization 

 Free energy of the ion-electron system (eV)
  ---------------------------------------------------
  alpha Z        PSCENC =        47.94900195
  Ewald energy   TEWEN  =     48644.60191082
  -Hartree energ DENC   =    -54710.66706681
  -exchange      EXHF   =         0.00000000
  -V(xc)+E(xc)   XCENC  =       605.88025378
  PAW double counting   =      6340.10990386    -6200.63067283
  entropy T*S    EENTRO =        -0.00000000
  eigenvalues    EBANDS =     -3024.91115912
  atomic energy  EATOM  =      8369.52358910
  ---------------------------------------------------
  free energy    TOTEN  =        71.85576075 eV

  energy without entropy =       71.85576075  energy(sigma->0) =       71.85576075


--------------------------------------------------------------------------------------------------------




--------------------------------------- Iteration      1(   3)  ---------------------------------------


    TRIAL :  cpu time   31.0252: real time   31.2607
    CORREC:  cpu time    0.0001: real time    0.0001
    --------------------------------------------
      LOOP:  cpu time   31.0897: real time   31.3564

 eigenvalue-minimisations  :   392
 total energy-change (2. order) :-0.6434509E+03  (-0.6398996E+03)
 number of electron     216.0000000 magnetization 
 augmentation part      216.0000000 magnetization 

 Free energy of the ion-electron system (eV)
  ---------------------------------------------------
  alpha Z        PSCENC =        47.94900195
  Ewald energy   TEWEN  =     48644.60191082
  -Hartree energ DENC   =    -54710.66706681
  -exchange      EXHF   =         0.00000000
  -V(xc)+E(xc)   XCENC  =       605.88025378
  PAW double counting   =      6340.10990386    -6200.63067283
  entropy T*S    EENTRO =        -0.00000000
  eigenvalues    EBANDS =     -3668.36210396
  atomic energy  EATOM  =      8369.52358910
  ---------------------------------------------------
  free energy    TOTEN  =      -571.59518409 eV

  energy without entropy =     -571.59518409  energy(sigma->0) =     -571.59518409


--------------------------------------------------------------------------------------------------------




--------------------------------------- Iteration      1(   4)  ---------------------------------------


    TRIAL :  cpu time   33.9930: real time   34.2604
    CORREC:  cpu time    0.0001: real time    0.0001
    --------------------------------------------
      LOOP:  cpu time   34.0205: real time   34.3048

 eigenvalue-minimisations  :   448
 total energy-change (2. order) :-0.3429344E+02  (-0.3403440E+02)
 number of electron     216.0000000 magnetization 
 augmentation part      216.0000000 magnetization 

 Free energy of the ion-electron system (eV)
  ---------------------------------------------------
  alpha Z        PSCENC =        47.94900195
  Ewald energy   TEWEN  =     48644.60191082
  -Hartree energ DENC   =    -54710.66706681
  -exchange      EXHF   =         0.00000000
  -V(xc)+E(xc)   XCENC  =       605.88025378
  PAW double counting   =      6340.10990386    -6200.63067283
  entropy T*S    EENTRO =        -0.00000000
  eigenvalues    EBANDS =     -3702.65554319
  atomic energy  EATOM  =      8369.52358910
  ---------------------------------------------------
  free energy    TOTEN  =      -605.88862332 eV

  energy without entropy =     -605.88862332  energy(sigma->0) =     -605.88862332


--------------------------------------------------------------------------------------------------------




--------------------------------------- Iteration      1(   5)  ---------------------------------------


    TRIAL :  cpu time   33.9818: real time   34.2557
    CORREC:  cpu time    0.0001: real time    0.0001
    CHARGE:  cpu time    2.9916: real time    3.0133
    --------------------------------------------
      LOOP:  cpu time   37.0357: real time   37.3335

 eigenvalue-minimisations  :   448
 total energy-change (2. order) :-0.1147512E+01  (-0.1142696E+01)
 number of electron     216.0000000 magnetization 
 augmentation part       -0.4526405 magnetization 

 Free energy of the ion-electron system (eV)
  ---------------------------------------------------
  alpha Z        PSCENC =        47.94900195
  Ewald energy   TEWEN  =     48644.60191082
  -Hartree energ DENC   =    -54710.66706681
  -exchange      EXHF   =         0.00000000
  -V(xc)+E(xc)   XCENC  =       605.88025378
  PAW double counting   =      6340.10990386    -6200.63067283
  entropy T*S    EENTRO =        -0.00000000
  eigenvalues    EBANDS =     -3703.80305502
  atomic energy  EATOM  =      8369.52358910
  ---------------------------------------------------
  free energy    TOTEN  =      -607.03613515 eV

  energy without entropy =     -607.03613515  energy(sigma->0) =     -607.03613515


--------------------------------------------------------------------------------------------------------




--------------------------------------- Iteration      1(   6)  ---------------------------------------


    POTLOK:  cpu time    1.6918: real time    1.7018
    SETDIJ:  cpu time    0.2138: real time    0.2146
    TRIAL :  cpu time   20.0387: real time   20.2229
    CORREC:  cpu time    8.9814: real time    9.0479
    CHARGE:  cpu time    2.9918: real time    3.0151
    --------------------------------------------
      LOOP:  cpu time   33.9982: real time   34.2896

 eigenvalue-minimisations  :     0
 total energy-change (2. order) : 0.9748923E+02  (-0.1116495E+02)
 number of electron     216.0000000 magnetization 
 augmentation part       -0.5092949 magnetization 

 Free energy of the ion-electron system (eV)
  ---------------------------------------------------
  alpha Z        PSCENC =        47.94900195
  Ewald energy   TEWEN  =     48644.60191082
  -Hartree energ DENC   =    -56057.97847338
  -exchange      EXHF   =         0.00000000
  -V(xc)+E(xc)   XCENC  =       676.76931414
  PAW double counting   =    119987.22173563  -119847.60557154
  entropy T*S    EENTRO =        -0.00000000
  eigenvalues    EBANDS =     -2330.02840747
  atomic energy  EATOM  =      8369.52358910
  ---------------------------------------------------
  free energy    TOTEN  =      -509.54690075 eV

  energy without entropy =     -509.54690075  energy(sigma->0) =     -509.54690075


--------------------------------------------------------------------------------------------------------




--------------------------------------- Iteration      1(   7)  ---------------------------------------


    POTLOK:  cpu time    1.6987: real time    1.7101
    SETDIJ:  cpu time    0.1936: real time    0.1944
    TRIAL :  cpu time   20.0485: real time   20.2098
    CORREC:  cpu time    8.9738: real time    9.0385
    CHARGE:  cpu time    2.9975: real time    3.0193
    --------------------------------------------
      LOOP:  cpu time   33.9629: real time   34.2465

 eigenvalue-minimisations  :     0
 total energy-change (2. order) :-0.1117212E+02  (-0.1390750E+01)
 number of electron     216.0000000 magnetization 
 augmentation part       -0.5404398 magnetization 

 Free energy of the ion-electron system (eV)
  ---------------------------------------------------
  alpha Z        PSCENC =        47.94900195
  Ewald energy   TEWEN  =     48644.60191082
  -Hartree energ DENC   =    -55638.25337277
  -exchange      EXHF   =         0.00000000
  -V(xc)+E(xc)   XCENC  =       659.39156029
  PAW double counting   =    139630.30679255  -139488.98467808
  entropy T*S    EENTRO =        -0.00000000
  eigenvalues    EBANDS =     -2745.25382803
  atomic energy  EATOM  =      8369.52358910
  ---------------------------------------------------
  free energy    TOTEN  =      -520.71902416 eV

  energy without entropy =     -520.71902416  energy(sigma->0) =     -520.71902416


--------------------------------------------------------------------------------------------------------




--------------------------------------- Iteration      1(   8)  ---------------------------------------


    POTLOK:  cpu time    1.6934: real time    1.7062
    SETDIJ:  cpu time    0.1989: real time    0.1996
    TRIAL :  cpu time   20.0668: real time   20.2196
    CORREC:  cpu time    8.9641: real time    9.0404
    CHARGE:  cpu time    2.9917: real time    3.0128
    --------------------------------------------
      LOOP:  cpu time   33.9439: real time   34.2321

 eigenvalue-minimisations  :     0
 total energy-change (2. order) :-0.1391530E+01  (-0.4396848E+00)
 number of electron     216.0000000 magnetization 
 augmentation part       -0.5415092 magnetization 

 Free energy of the ion-electron system (eV)
  ---------------------------------------------------
  alpha Z        PSCENC =        47.94900195
  Ewald energy   TEWEN  =     48644.60191082
  -Hartree energ DENC   =    -55618.21731791
  -exchange      EXHF   =         0.00000000
  -V(xc)+E(xc)   XCENC  =       658.46863731
  PAW double counting   =    149402.70858233  -149261.26216167
  entropy T*S    EENTRO =        -0.00000000
  eigenvalues    EBANDS =     -2765.88279582
  atomic energy  EATOM  =      8369.52358910
  ---------------------------------------------------
  free energy    TOTEN  =      -522.11055389 eV

  energy without entropy =     -522.11055389  energy(sigma->0) =     -522.11055389


--------------------------------------------------------------------------------------------------------




--------------------------------------- Iteration      1(   9)  ---------------------------------------


    POTLOK:  cpu time    1.6920: real time    1.7019
    SETDIJ:  cpu time    0.2000: real time    0.2007
    TRIAL :  cpu time   20.0834: real time   20.2536
    CORREC:  cpu time    8.9653: real time    9.0278
    CHARGE:  cpu time    2.9916: real time    3.0134
    --------------------------------------------
      LOOP:  cpu time   33.9684: real time   34.2404

 eigenvalue-minimisations  :     0
 total energy-change (2. order) :-0.4393321E+00  (-0.1719686E+00)
 number of electron     216.0000000 magnetization 
 augmentation part       -0.5379895 magnetization 

 Free energy of the ion-electron system (eV)
  ---------------------------------------------------
  alpha Z        PSCENC =        47.94900195
  Ewald energy   TEWEN  =     48644.60191082
  -Hartree energ DENC   =    -55624.07458223
  -exchange      EXHF   =         0.00000000
  -V(xc)+E(xc)   XCENC  =       658.43200562
  PAW double counting   =    156997.92659856  -156856.41150731
  entropy T*S    EENTRO =        -0.00000000
  eigenvalues    EBANDS =     -2760.49690255
  atomic energy  EATOM  =      8369.52358910
  ---------------------------------------------------
  free energy    TOTEN  =      -522.54988603 eV

  energy without entropy =     -522.54988603  energy(sigma->0) =     -522.54988603


--------------------------------------------------------------------------------------------------------




--------------------------------------- Iteration      1(  10)  ---------------------------------------


    POTLOK:  cpu time    1.6919: real time    1.7019
    SETDIJ:  cpu time    0.2053: real time    0.2060
    TRIAL :  cpu time   20.0582: real time   20.2081
    CORREC:  cpu time    8.9681: real time    9.0335
    CHARGE:  cpu time    2.9947: real time    3.0164
    --------------------------------------------
      LOOP:  cpu time   33.9936: real time   34.2463

 eigenvalue-minimisations  :     0
 total energy-change (2. order) :-0.1718276E+00  (-0.7518292E-01)
 number of electron     216.0000000 magnetization 
 augmentation part       -0.5333963 magnetization 

 Free energy of the ion-electron system (eV)
  ---------------------------------------------------
  alpha Z        PSCENC =        47.94900195
  Ewald energy   TEWEN  =     48644.60191082
  -Hartree energ DENC   =    -55621.66629939
  -exchange      EXHF   =         0.00000000
  -V(xc)+E(xc)   XCENC  =       658.35255735
  PAW double counting   =    160571.71088117  -160430.15659123
  entropy T*S    EENTRO =        -0.00000000
  eigenvalues    EBANDS =     -2763.03676345
  atomic energy  EATOM  =      8369.52358910
  ---------------------------------------------------
  free energy    TOTEN  =      -522.72171367 eV

  energy without entropy =     -522.72171367  energy(sigma->0) =     -522.72171367


--------------------------------------------------------------------------------------------------------




--------------------------------------- Iteration      1(  11)  ---------------------------------------


    POTLOK:  cpu time    1.6943: real time    1.7040
    SETDIJ:  cpu time    0.2011: real time    0.2018
    TRIAL :  cpu time   20.0617: real time   20.2192
    CORREC:  cpu time    8.9686: real time    9.0299
    CHARGE:  cpu time    2.9840: real time    3.0055
    --------------------------------------------
      LOOP:  cpu time   33.9753: real time   34.2315

 eigenvalue-minimisations  :     0
 total energy-change (2. order) :-0.7505344E-01  (-0.2924828E-01)
 number of electron     216.0000000 magnetization 
 augmentation part       -0.5304537 magnetization 

 Free energy of the ion-electron system (eV)
  ---------------------------------------------------
  alpha Z        PSCENC =        47.94900195
  Ewald energy   TEWEN  =     48644.60191082
  -Hartree energ DENC   =    -55615.75167236
  -exchange      EXHF   =         0.00000000
  -V(xc)+E(xc)   XCENC  =       658.29345996
  PAW double counting   =    161177.86020809  -161036.32385651
  entropy T*S    EENTRO =        -0.00000000
  eigenvalues    EBANDS =     -2768.94940817
  atomic energy  EATOM  =      8369.52358910
  ---------------------------------------------------
  free energy    TOTEN  =      -522.79676711 eV

  energy without entropy =     -522.79676711  energy(sigma->0) =     -522.79676711


--------------------------------------------------------------------------------------------------------




--------------------------------------- Iteration      1(  12)  ---------------------------------------


    POTLOK:  cpu time    1.6954: real time    1.7054
    SETDIJ:  cpu time    0.2019: real time    0.2026
    TRIAL :  cpu time   20.0533: real time   20.2171
    CORREC:  cpu time    8.9676: real time    9.0344
    CHARGE:  cpu time    2.9906: real time    3.0148
    --------------------------------------------
      LOOP:  cpu time   33.9364: real time   34.2078

 eigenvalue-minimisations  :     0
 total energy-change (2. order) :-0.2919723E-01  (-0.9125644E-02)
 number of electron     216.0000000 magnetization 
 augmentation part       -0.5302992 magnetization 

 Free energy of the ion-electron system (eV)
  ---------------------------------------------------
  alpha Z        PSCENC =        47.94900195
  Ewald energy   TEWEN  =     48644.60191082
  -Hartree energ DENC   =    -55611.45082125
  -exchange      EXHF   =         0.00000000
  -V(xc)+E(xc)   XCENC  =       658.23388528
  PAW double counting   =    160582.28765286  -160440.77550431
  entropy T*S    EENTRO =        -0.00000000
  eigenvalues    EBANDS =     -2773.19567880
  atomic energy  EATOM  =      8369.52358910
  ---------------------------------------------------
  free energy    TOTEN  =      -522.82596434 eV

  energy without entropy =     -522.82596434  energy(sigma->0) =     -522.82596434


--------------------------------------------------------------------------------------------------------




--------------------------------------- Iteration      1(  13)  ---------------------------------------


    POTLOK:  cpu time    1.6896: real time    1.6992
    SETDIJ:  cpu time    0.2023: real time    0.2030
    TRIAL :  cpu time   20.0656: real time   20.2144
    CORREC:  cpu time    8.9654: real time    9.0261
    CHARGE:  cpu time    2.9845: real time    3.0054
    --------------------------------------------
      LOOP:  cpu time   33.9810: real time   34.2438

 eigenvalue-minimisations  :     0
 total energy-change (2. order) :-0.9107699E-02  (-0.2527846E-02)
 number of electron     216.0000000 magnetization 
 augmentation part       -0.5307537 magnetization 

 Free energy of the ion-electron system (eV)
  ---------------------------------------------------
  alpha Z        PSCENC =        47.94900195
  Ewald energy   TEWEN  =     48644.60191082
  -Hartree energ DENC   =    -55610.04108827
  -exchange      EXHF   =         0.00000000
  -V(xc)+E(xc)   XCENC  =       658.18652660
  PAW double counting   =    159920.01094904  -159778.50263623
  entropy T*S    EENTRO =        -0.00000000
  eigenvalues    EBANDS =     -2774.56332506
  atomic energy  EATOM  =      8369.52358910
  ---------------------------------------------------
  free energy    TOTEN  =      -522.83507204 eV

  energy without entropy =     -522.83507204  energy(sigma->0) =     -522.83507204


--------------------------------------------------------------------------------------------------------




--------------------------------------- Iteration      1(  14)  ---------------------------------------


    POTLOK:  cpu time    1.7118: real time    1.7216
    SETDIJ:  cpu time    0.1898: real time    0.1905
    TRIAL :  cpu time   20.0583: real time   20.2159
    CORREC:  cpu time    8.9765: real time    9.0400
    CHARGE:  cpu time    2.9927: real time    3.0182
    --------------------------------------------
      LOOP:  cpu time   33.9818: real time   34.2543

 eigenvalue-minimisations  :     0
 total energy-change (2. order) :-0.2517893E-02  (-0.6834974E-03)
 number of electron     216.0000000 magnetization 
 augmentation part       -0.5310031 magnetization 

 Free energy of the ion-electron system (eV)
  ---------------------------------------------------
  alpha Z        PSCENC =        47.94900195
  Ewald energy   TEWEN  =     48644.60191082
  -Hartree energ DENC   =    -55610.11357489
  -exchange      EXHF   =         0.00000000
  -V(xc)+E(xc)   XCENC  =       658.17480444
  PAW double counting   =    159536.52378864  -159395.01437110
  entropy T*S    EENTRO =        -0.00000000
  eigenvalues    EBANDS =     -2774.48273890
  atomic energy  EATOM  =      8369.52358910
  ---------------------------------------------------
  free energy    TOTEN  =      -522.83758993 eV

  energy without entropy =     -522.83758993  energy(sigma->0) =     -522.83758993


--------------------------------------------------------------------------------------------------------




--------------------------------------- Iteration      1(  15)  ---------------------------------------


    POTLOK:  cpu time    1.6939: real time    1.7035
    SETDIJ:  cpu time    0.2064: real time    0.2071
    TRIAL :  cpu time   20.0630: real time   20.2136
    CORREC:  cpu time    8.9498: real time    9.0312
    CHARGE:  cpu time    2.9854: real time    3.0176
    --------------------------------------------
      LOOP:  cpu time   33.9567: real time   34.2365

 eigenvalue-minimisations  :     0
 total energy-change (2. order) :-0.6792234E-03  (-0.1937787E-03)
 number of electron     216.0000000 magnetization 
 augmentation part       -0.5311720 magnetization 

 Free energy of the ion-electron system (eV)
  ---------------------------------------------------
  alpha Z        PSCENC =        47.94900195
  Ewald energy   TEWEN  =     48644.60191082
  -Hartree energ DENC   =    -55610.07758903
  -exchange      EXHF   =         0.00000000
  -V(xc)+E(xc)   XCENC  =       658.17036891
  PAW double counting   =    159347.37307205  -159205.86284520
  entropy T*S    EENTRO =        -0.00000000
  eigenvalues    EBANDS =     -2774.51577775
  atomic energy  EATOM  =      8369.52358910
  ---------------------------------------------------
  free energy    TOTEN  =      -522.83826916 eV

  energy without entropy =     -522.83826916  energy(sigma->0) =     -522.83826916


--------------------------------------------------------------------------------------------------------




--------------------------------------- Iteration      1(  16)  ---------------------------------------


    POTLOK:  cpu time    1.6922: real time    1.7021
    SETDIJ:  cpu time    0.2010: real time    0.2017
    TRIAL :  cpu time   20.0466: real time   20.1978
    CORREC:  cpu time    8.9572: real time    9.0299
    CHARGE:  cpu time    2.9947: real time    3.0157
    --------------------------------------------
      LOOP:  cpu time   33.9048: real time   34.1876

 eigenvalue-minimisations  :     0
 total energy-change (2. order) :-0.1919731E-03  (-0.6374039E-04)
 number of electron     216.0000000 magnetization 
 augmentation part       -0.5312373 magnetization 

 Free energy of the ion-electron system (eV)
  ---------------------------------------------------
  alpha Z        PSCENC =        47.94900195
  Ewald energy   TEWEN  =     48644.60191082
  -Hartree energ DENC   =    -55609.98254030
  -exchange      EXHF   =         0.00000000
  -V(xc)+E(xc)   XCENC  =       658.16522025
  PAW double counting   =    159241.58456658  -159100.07284003
  entropy T*S    EENTRO =        -0.00000000
  eigenvalues    EBANDS =     -2774.60736950
  atomic energy  EATOM  =      8369.52358910
  ---------------------------------------------------
  free energy    TOTEN  =      -522.83846113 eV

  energy without entropy =     -522.83846113  energy(sigma->0) =     -522.83846113


--------------------------------------------------------------------------------------------------------




--------------------------------------- Iteration      1(  17)  ---------------------------------------


    POTLOK:  cpu time    1.6946: real time    1.7042
    SETDIJ:  cpu time    0.1987: real time    0.1995
    TRIAL :  cpu time   20.0562: real time   20.2108
    CORREC:  cpu time    8.9583: real time    9.0245
    CHARGE:  cpu time    2.9908: real time    3.0140
    --------------------------------------------
      LOOP:  cpu time   33.9717: real time   34.2315

 eigenvalue-minimisations  :     0
 total energy-change (2. order) :-0.6264090E-04  (-0.2329593E-04)
 number of electron     216.0000000 magnetization 
 augmentation part       -0.5312609 magnetization 

 Free energy of the ion-electron system (eV)
  ---------------------------------------------------
  alpha Z        PSCENC =        47.94900195
  Ewald energy   TEWEN  =     48644.60191082
  -Hartree energ DENC   =    -55610.14314800
  -exchange      EXHF   =         0.00000000
  -V(xc)+E(xc)   XCENC  =       658.17015395
  PAW double counting   =    159174.79382399  -159033.28181220
  entropy T*S    EENTRO =        -0.00000000
  eigenvalues    EBANDS =     -2774.45204338
  atomic energy  EATOM  =      8369.52358910
  ---------------------------------------------------
  free energy    TOTEN  =      -522.83852377 eV

  energy without entropy =     -522.83852377  energy(sigma->0) =     -522.83852377


--------------------------------------------------------------------------------------------------------




--------------------------------------- Iteration      1(  18)  ---------------------------------------


    POTLOK:  cpu time    1.6923: real time    1.7020
    SETDIJ:  cpu time    0.2000: real time    0.2007
    TRIAL :  cpu time   20.0618: real time   20.2304
    CORREC:  cpu time    8.9763: real time    9.0396
    CHARGE:  cpu time    2.9799: real time    3.0011
    --------------------------------------------
      LOOP:  cpu time   34.0061: real time   34.2726

 eigenvalue-minimisations  :     0
 total energy-change (2. order) :-0.2334316E-04  (-0.8404929E-05)
 number of electron     216.0000000 magnetization 
 augmentation part       -0.5312774 magnetization 

 Free energy of the ion-electron system (eV)
  ---------------------------------------------------
  alpha Z        PSCENC =        47.94900195
  Ewald energy   TEWEN  =     48644.60191082
  -Hartree energ DENC   =    -55610.22117525
  -exchange      EXHF   =         0.00000000
  -V(xc)+E(xc)   XCENC  =       658.17237554
  PAW double counting   =    159147.20050093  -159005.68825229
  entropy T*S    EENTRO =        -0.00000000
  eigenvalues    EBANDS =     -2774.37649791
  atomic energy  EATOM  =      8369.52358910
  ---------------------------------------------------
  free energy    TOTEN  =      -522.83854711 eV

  energy without entropy =     -522.83854711  energy(sigma->0) =     -522.83854711


--------------------------------------------------------------------------------------------------------




--------------------------------------- Iteration      1(  19)  ---------------------------------------


    POTLOK:  cpu time    1.6919: real time    1.7018
    SETDIJ:  cpu time    0.2029: real time    0.2036
    TRIAL :  cpu time   20.0709: real time   20.2240
    CORREC:  cpu time    8.9733: real time    9.0375
    CHARGE:  cpu time    2.9906: real time    3.0128
    --------------------------------------------
      LOOP:  cpu time   33.9826: real time   34.2433

 eigenvalue-minimisations  :     0
 total energy-change (2. order) :-0.8651521E-05  (-0.2862041E-05)
 number of electron     216.0000000 magnetization 
 augmentation part       -0.5312779 magnetization 

 Free energy of the ion-electron system (eV)
  ---------------------------------------------------
  alpha Z        PSCENC =        47.94900195
  Ewald energy   TEWEN  =     48644.60191082
  -Hartree energ DENC   =    -55610.22121243
  -exchange      EXHF   =         0.00000000
  -V(xc)+E(xc)   XCENC  =       658.17208980
  PAW double counting   =    159147.18586342  -159005.67337075
  entropy T*S    EENTRO =        -0.00000000
  eigenvalues    EBANDS =     -2774.37642769
  atomic energy  EATOM  =      8369.52358910
  ---------------------------------------------------
  free energy    TOTEN  =      -522.83855577 eV

  energy without entropy =     -522.83855577  energy(sigma->0) =     -522.83855577


--------------------------------------------------------------------------------------------------------




--------------------------------------- Iteration      1(  20)  ---------------------------------------


    POTLOK:  cpu time    1.6942: real time    1.7045
    SETDIJ:  cpu time    0.2012: real time    0.2019
    TRIAL :  cpu time   20.0757: real time   20.2365
    CORREC:  cpu time    8.9561: real time    9.0212
    CHARGE:  cpu time    2.9926: real time    3.0154
    --------------------------------------------
      LOOP:  cpu time   33.9403: real time   34.2320

 eigenvalue-minimisations  :     0
 total energy-change (2. order) :-0.2939312E-05  (-0.9731207E-06)
 number of electron     216.0000000 magnetization 
 augmentation part       -0.5312746 magnetization 

 Free energy of the ion-electron system (eV)
  ---------------------------------------------------
  alpha Z        PSCENC =        47.94900195
  Ewald energy   TEWEN  =     48644.60191082
  -Hartree energ DENC   =    -55610.23903746
  -exchange      EXHF   =         0.00000000
  -V(xc)+E(xc)   XCENC  =       658.17271195
  PAW double counting   =    159155.66913512  -159014.15667278
  entropy T*S    EENTRO =        -0.00000000
  eigenvalues    EBANDS =     -2774.35919740
  atomic energy  EATOM  =      8369.52358910
  ---------------------------------------------------
  free energy    TOTEN  =      -522.83855870 eV

  energy without entropy =     -522.83855870  energy(sigma->0) =     -522.83855870


--------------------------------------------------------------------------------------------------------




--------------------------------------- Iteration      1(  21)  ---------------------------------------


    POTLOK:  cpu time    1.6940: real time    1.7039
    SETDIJ:  cpu time    0.2056: real time    0.2063
    TRIAL :  cpu time   20.0426: real time   20.2294
    CORREC:  cpu time    8.9516: real time    9.0265
    CHARGE:  cpu time    2.9940: real time    3.0255
    --------------------------------------------
      LOOP:  cpu time   33.8993: real time   34.2380

 eigenvalue-minimisations  :     0
 total energy-change (2. order) :-0.9727373E-06  (-0.3686847E-06)
 number of electron     216.0000000 magnetization 
 augmentation part       -0.5312685 magnetization 

 Free energy of the ion-electron system (eV)
  ---------------------------------------------------
  alpha Z        PSCENC =        47.94900195
  Ewald energy   TEWEN  =     48644.60191082
  -Hartree energ DENC   =    -55610.24526092
  -exchange      EXHF   =         0.00000000
  -V(xc)+E(xc)   XCENC  =       658.17286796
  PAW double counting   =    159163.30864714  -159021.79622138
  entropy T*S    EENTRO =        -0.00000000
  eigenvalues    EBANDS =     -2774.35309436
  atomic energy  EATOM  =      8369.52358910
  ---------------------------------------------------
  free energy    TOTEN  =      -522.83855968 eV

  energy without entropy =     -522.83855968  energy(sigma->0) =     -522.83855968


--------------------------------------------------------------------------------------------------------




--------------------------------------- Iteration      1(  22)  ---------------------------------------


    POTLOK:  cpu time    1.6874: real time    1.7018
    SETDIJ:  cpu time    0.2003: real time    0.2010
    TRIAL :  cpu time   20.0770: real time   20.2322
    CORREC:  cpu time    8.9879: real time    9.0525
    CHARGE:  cpu time    2.9878: real time    3.0107
    --------------------------------------------
      LOOP:  cpu time   34.0583: real time   34.3405

 eigenvalue-minimisations  :     0
 total energy-change (2. order) :-0.3424066E-06  (-0.2036367E-06)
 number of electron     216.0000000 magnetization 
 augmentation part       -0.5312608 magnetization 

 Free energy of the ion-electron system (eV)
  ---------------------------------------------------
  alpha Z        PSCENC =        47.94900195
  Ewald energy   TEWEN  =     48644.60191082
  -Hartree energ DENC   =    -55610.24216798
  -exchange      EXHF   =         0.00000000
  -V(xc)+E(xc)   XCENC  =       658.17274255
  PAW double counting   =    159168.25749129  -159026.74511044
  entropy T*S    EENTRO =        -0.00000000
  eigenvalues    EBANDS =     -2774.35601731
  atomic energy  EATOM  =      8369.52358910
  ---------------------------------------------------
  free energy    TOTEN  =      -522.83856002 eV

  energy without entropy =     -522.83856002  energy(sigma->0) =     -522.83856002


--------------------------------------------------------------------------------------------------------




--------------------------------------- Iteration      1(  23)  ---------------------------------------


    POTLOK:  cpu time    1.6910: real time    1.7028
    SETDIJ:  cpu time    0.2046: real time    0.2053
    TRIAL :  cpu time   20.0250: real time   20.2026
    CORREC:  cpu time    8.9632: real time    9.0289
    CHARGE:  cpu time    3.0010: real time    3.0223
    --------------------------------------------
      LOOP:  cpu time   33.9295: real time   34.2177

 eigenvalue-minimisations  :     0
 total energy-change (2. order) :-0.1299777E-06  (-0.1696691E-06)
 number of electron     216.0000000 magnetization 
 augmentation part       -0.5312597 magnetization 

 Free energy of the ion-electron system (eV)
  ---------------------------------------------------
  alpha Z        PSCENC =        47.94900195
  Ewald energy   TEWEN  =     48644.60191082
  -Hartree energ DENC   =    -55610.23990023
  -exchange      EXHF   =         0.00000000
  -V(xc)+E(xc)   XCENC  =       658.17273286
  PAW double counting   =    159171.71642209  -159030.20411041
  entropy T*S    EENTRO =        -0.00000000
  eigenvalues    EBANDS =     -2774.35820633
  atomic energy  EATOM  =      8369.52358910
  ---------------------------------------------------
  free energy    TOTEN  =      -522.83856015 eV

  energy without entropy =     -522.83856015  energy(sigma->0) =     -522.83856015


--------------------------------------------------------------------------------------------------------




--------------------------------------- Iteration      1(  24)  ---------------------------------------


    POTLOK:  cpu time    1.6893: real time    1.6994
    SETDIJ:  cpu time    0.2047: real time    0.2055
    TRIAL :  cpu time   20.0546: real time   20.2096
    CORREC:  cpu time    8.9515: real time    9.0263
    CHARGE:  cpu time    2.9860: real time    3.0071
    --------------------------------------------
      LOOP:  cpu time   33.9468: real time   34.2390

 eigenvalue-minimisations  :     0
 total energy-change (2. order) : 0.1555891E-06  (-0.2015786E-06)
 number of electron     216.0000000 magnetization 
 augmentation part       -0.5312592 magnetization 

 Free energy of the ion-electron system (eV)
  ---------------------------------------------------
  alpha Z        PSCENC =        47.94900195
  Ewald energy   TEWEN  =     48644.60191082
  -Hartree energ DENC   =    -55610.23166953
  -exchange      EXHF   =         0.00000000
  -V(xc)+E(xc)   XCENC  =       658.17250738
  PAW double counting   =    159175.50415060  -159033.99185627
  entropy T*S    EENTRO =        -0.00000000
  eigenvalues    EBANDS =     -2774.36619404
  atomic energy  EATOM  =      8369.52358910
  ---------------------------------------------------
  free energy    TOTEN  =      -522.83855999 eV

  energy without entropy =     -522.83855999  energy(sigma->0) =     -522.83855999


--------------------------------------------------------------------------------------------------------




--------------------------------------- Iteration      1(  25)  ---------------------------------------


    POTLOK:  cpu time    1.6893: real time    1.6988
    SETDIJ:  cpu time    0.2075: real time    0.2083
    TRIAL :  cpu time   20.0496: real time   20.2006
    CORREC:  cpu time    8.8613: real time    8.9214
    CHARGE:  cpu time    2.9818: real time    3.0031
    --------------------------------------------
      LOOP:  cpu time   33.8436: real time   34.0950

 eigenvalue-minimisations  :     0
 total energy-change (2. order) :-0.1528533E-06  ( 0.2529387E-06)
 number of electron     216.0000000 magnetization 
 augmentation part       -0.5312635 magnetization 

 Free energy of the ion-electron system (eV)
  ---------------------------------------------------
  alpha Z        PSCENC =        47.94900195
  Ewald energy   TEWEN  =     48644.60191082
  -Hartree energ DENC   =    -55610.23772485
  -exchange      EXHF   =         0.00000000
  -V(xc)+E(xc)   XCENC  =       658.17275523
  PAW double counting   =    159174.61315969  -159033.10089180
  entropy T*S    EENTRO =        -0.00000000
  eigenvalues    EBANDS =     -2774.36036030
  atomic energy  EATOM  =      8369.52358910
  ---------------------------------------------------
  free energy    TOTEN  =      -522.83856015 eV

  energy without entropy =     -522.83856015  energy(sigma->0) =     -522.83856015


--------------------------------------------------------------------------------------------------------




--------------------------------------- Iteration      1(  26)  ---------------------------------------


    POTLOK:  cpu time    1.6898: real time    1.6993
    SETDIJ:  cpu time    0.2062: real time    0.2070
    TRIAL :  cpu time   20.0432: real time   20.2091
    CORREC:  cpu time    8.8489: real time    8.9101
    EDDIAG:  cpu time    4.1758: real time    4.2085
    CHARGE:  cpu time    3.0029: real time    3.0261
    --------------------------------------------
      LOOP:  cpu time   38.0902: real time   38.3881

 eigenvalue-minimisations  :     0
 total energy-change (2. order) :-0.6181654E-07  ( 0.1090784E-07)
 number of electron     216.0000000 magnetization 
 augmentation part       -0.5312650 magnetization 

 Free energy of the ion-electron system (eV)
  ---------------------------------------------------
  alpha Z        PSCENC =        47.94900195
  Ewald energy   TEWEN  =     48644.60191082
  -Hartree energ DENC   =    -55610.23477703
  -exchange      EXHF   =         0.00000000
  -V(xc)+E(xc)   XCENC  =       658.17261409
  PAW double counting   =    159173.73370456  -159032.22139144
  entropy T*S    EENTRO =        -0.00000000
  eigenvalues    EBANDS =     -2774.36321226
  atomic energy  EATOM  =      8369.52358910
  ---------------------------------------------------
  free energy    TOTEN  =      -522.83856021 eV

  energy without entropy =     -522.83856021  energy(sigma->0) =     -522.83856021


--------------------------------------------------------------------------------------------------------


  average scaling for gradient   0.7954


 average (electrostatic) potential at core
  the test charge radii are     0.5770  0.5955
  (the norm of the test charge is              1.0000)
       1 -87.9962       2 -87.9870       3 -88.0055       4 -88.0085       5 -87.9839
       6 -87.9780       7 -87.9860       8 -87.9507       9 -87.9764      10 -87.9672
      11 -87.9839      12 -87.9927      13 -87.9675      14 -87.9710      15 -87.9840
      16 -87.9792      17 -87.9864      18 -87.9865      19 -87.9938      20 -87.9879
      21 -87.9661      22 -87.9740      23 -88.0071      24 -87.9912      25 -87.9828
      26 -87.9853      27 -87.9756      28 -87.9996      29 -87.9771      30 -87.9829
      31 -88.0140      32 -87.9948      33 -87.9976      34 -87.9863      35 -87.9815
      36 -87.9869      37 -87.9883      38 -87.9917      39 -87.9915      40 -87.9866
      41 -87.9890      42 -87.9941      43 -87.9858      44 -87.9947      45 -87.9809
      46 -87.9793      47 -87.9932      48 -87.9877      49 -87.9900      50 -87.9890
      51 -91.7726      52-124.1071      53-124.1219
 
 
 
 E-fermi :  -4.3621     XC(G=0):  -1.8334     alpha+bet : -1.6890

 Fermi energy:        -4.3620927916

 k-point     1 :       0.0000    0.0000    0.0000
  band No.  band energies     occupation 
      1     -29.0913      2.00000
      2     -27.9700      2.00000
      3     -23.6970      2.00000
      4     -22.7286      2.00000
      5     -22.7090      2.00000
      6     -22.7004      2.00000
      7     -22.6984      2.00000
      8     -22.6960      2.00000
      9     -22.6899      2.00000
     10     -20.7769      2.00000
     11     -20.7657      2.00000
     12     -20.7538      2.00000
     13     -20.7535      2.00000
     14     -20.7498      2.00000
     15     -20.7492      2.00000
     16     -19.8295      2.00000
     17     -19.8201      2.00000
     18     -19.8139      2.00000
     19     -19.8120      2.00000
     20     -19.8090      2.00000
     21     -19.8078      2.00000
     22     -17.5899      2.00000
     23     -17.5835      2.00000
     24     -17.5752      2.00000
     25     -17.5715      2.00000
     26     -17.5662      2.00000
     27     -17.5650      2.00000
     28     -16.4183      2.00000
     29     -16.4130      2.00000
     30     -16.4056      2.00000
     31     -16.4037      2.00000
     32     -16.4009      2.00000
     33     -16.3993      2.00000
     34     -15.0091      2.00000
     35     -15.0035      2.00000
     36     -15.0010      2.00000
     37     -14.9984      2.00000
     38     -14.9959      2.00000
     39     -14.9953      2.00000
     40     -13.2198      2.00000
     41     -12.5202      2.00000
     42     -12.5156      2.00000
     43     -12.5053      2.00000
     44     -12.5038      2.00000
     45     -12.5025      2.00000
     46     -12.4969      2.00000
     47     -12.3183      2.00000
     48     -12.3059      2.00000
     49     -12.3011      2.00000
     50     -12.2994      2.00000
     51     -12.2933      2.00000
     52     -12.2917      2.00000
     53     -12.0099      2.00000
     54     -11.8746      2.00000
     55     -11.6670      2.00000
     56     -10.8794      2.00000
     57     -10.8381      2.00000
     58     -10.8365      2.00000
     59     -10.8345      2.00000
     60     -10.8334      2.00000
     61     -10.8321      2.00000
     62     -10.8305      2.00000
     63      -9.8137      2.00000
     64      -9.8072      2.00000
     65      -9.8058      2.00000
     66      -9.8026      2.00000
     67      -9.7953      2.00000
     68      -9.5361      2.00000
     69      -9.5139      2.00000
     70      -9.5093      2.00000
     71      -9.5033      2.00000
     72      -9.5015      2.00000
     73      -9.5009      2.00000
     74      -9.4992      2.00000
     75      -9.4985      2.00000
     76      -9.4961      2.00000
     77      -9.4944      2.00000
     78      -9.4936      2.00000
     79      -9.4923      2.00000
     80      -9.4848      2.00000
     81      -8.2595      2.00000
     82      -8.0616      2.00000
     83      -7.7641      2.00000
     84      -7.7603      2.00000
     85      -7.7593      2.00000
     86      -7.7536      2.00000
     87      -7.7531      2.00000
     88      -7.7517      2.00000
     89      -7.5694      2.00000
     90      -7.5554      2.00000
     91      -7.5524      2.00000
     92      -7.5178      2.00000
     93      -7.4935      2.00000
     94      -7.3142      2.00000
     95      -6.6249      2.00000
     96      -6.6202      2.00000
     97      -6.6128      2.00000
     98      -6.5966      2.00000
     99      -6.5742      2.00000
    100      -6.4444      2.00000
    101      -6.1874      2.00000
    102      -6.1845      2.00000
    103      -4.5396      2.00000
    104      -4.5299      2.00000
    105      -4.5130      2.00000
    106      -4.5108      2.00000
    107      -4.5103      2.00000
    108      -4.4912      2.00000
    109      -1.5774      0.00000
    110      -1.5610      0.00000
    111      -1.5280      0.00000
    112      -1.5226      0.00000
    113      -1.5187      0.00000
    114      -1.4999      0.00000
    115       0.3701      0.00000
    116       0.4151      0.00000
    117       0.4500      0.00000
    118       0.4635      0.00000
    119       0.4724      0.00000
    120       0.4867      0.00000
    121       0.6841      0.00000
    122       1.2316      0.00000
    123       1.3129      0.00000
    124       1.3662      0.00000
    125       1.5067      0.00000
    126       1.7834      0.00000
    127       2.0273      0.00000
    128       2.0473      0.00000
    129       2.0492      0.00000
    130       2.0577      0.00000
    131       2.1126      0.00000
    132       2.1760      0.00000
    133       2.3024      0.00000
    134       2.3200      0.00000
    135       2.3365      0.00000
    136       2.3382      0.00000
    137       2.3522      0.00000
    138       2.3639      0.00000
    139       2.4390      0.00000
    140       2.6049      0.00000
    141       2.6759      0.00000
    142       2.7317      0.00000
    143       2.7374      0.00000
    144       2.7401      0.00000
    145       2.7652      0.00000
    146       2.8222      0.00000
    147       2.8305      0.00000
    148       2.8425      0.00000
    149       2.8517      0.00000
    150       2.9040      0.00000
    151       3.0424      0.00000
    152       3.4769      0.00000
    153       3.5596      0.00000
    154       3.6855      0.00000
    155       3.7281      0.00000
    156       3.9333      0.00000
    157       4.0471      0.00000
    158       4.1443      0.00000
    159       4.2504      0.00000
    160       4.4965      0.00000
    161       4.6291      0.00000
    162       4.8287      0.00000
    163       4.8485      0.00000
    164       4.8577      0.00000
    165       4.8624      0.00000
    166       4.8671      0.00000
    167       4.8786      0.00000
    168       4.9424      0.00000


--------------------------------------------------------------------------------------------------------


 soft charge-density along one line, spin component           1
         0         1         2         3         4         5         6         7         8         9
 total charge-density along one line
 
 pseudopotential strength for first ion, spin component:           1
 12.639  21.268  -0.000   0.000   0.000  -0.000   0.000   0.000
 21.268  35.785  -0.000   0.000   0.000  -0.000   0.000   0.000
 -0.000  -0.000  -3.235  -0.000   0.000  -5.794  -0.000   0.000
  0.000   0.000  -0.000  -3.235  -0.000  -0.000  -5.794  -0.000
  0.000   0.000   0.000  -0.000  -3.235   0.000  -0.000  -5.794
 -0.000  -0.000  -5.794  -0.000   0.000 -10.355   0.000   0.000
  0.000   0.000  -0.000  -5.794  -0.000   0.000 -10.353  -0.000
  0.000   0.000   0.000  -0.000  -5.794   0.000  -0.000 -10.355
 total augmentation occupancy for first ion, spin component:           1
 10.262  -3.893  -0.001  -0.001   0.001   0.000   0.001  -0.000
 -3.893   1.506   0.000   0.000  -0.000  -0.000  -0.000   0.000
 -0.001   0.000   8.467  -0.009   0.000  -3.023   0.003  -0.000
 -0.001   0.000  -0.009   4.013  -0.000   0.003  -1.207   0.000
  0.001  -0.000   0.000  -0.000   8.467  -0.000   0.000  -3.024
  0.000  -0.000  -3.023   0.003  -0.000   1.092  -0.001   0.000
  0.001  -0.000   0.003  -1.207   0.000  -0.001   0.368   0.000
 -0.000   0.000  -0.000   0.000  -3.024   0.000   0.000   1.092


------------------------ aborting loop because EDIFF is reached ----------------------------------------


    FORLOC:  cpu time    0.1382: real time    0.1392
    FORNL :  cpu time    3.8190: real time    3.8523
    FORCOR:  cpu time    1.6203: real time    1.6312
    OFIELD:  cpu time    0.0029: real time    0.0030
 WARNING: Using user supplied parameters
     VDW_A1 = 0.495
     VDW_A2 = 5.731
     VDW_S8 = 0.79
     because the xc functional is not supported. Required parameters not
     defined in the INCAR file will be replaced with PBE defaults ones.


 ---------------------------------------------------------------------------------------------

         DFTD3 V3.0 Rev 1        
 IVDW         = 12
 DF unknown   
 parameters
 VDW_S6       =    1.0000
 VDW_S8       =    0.7898
 VDW_A1       =    0.4948
 VDW_A2       =    5.7308
 k1-k3        =   16.0000    1.3333   -4.0000
 VDW_RADIUS   =   50.2022 A
 VDW_CNRADIUS =   21.1671 A
 Edisp (eV)   -1.81884

 E6    (eV) :    -1.4054
 E8    (eV) :    -0.4134
 % E8        : 22.73
    FORVDW:  cpu time    0.1481: real time    0.1511

 VOLUME and BASIS-vectors are now :
 -----------------------------------------------------------------------------
  energy-cutoff  :     1000.00
  volume of cell :     3288.85
      direct lattice vectors                 reciprocal lattice vectors
    12.325000000  0.000000000  0.000000000     0.081135903  0.046843835  0.000000000
    -6.162500000 10.673763102  0.000000000     0.000000000  0.093687670  0.000000000
     0.000000000  0.000000000 25.000000000     0.000000000  0.000000000  0.040000000

  length of vectors
    12.325000000 12.325000000 25.000000000     0.093687670  0.093687670  0.040000000


 FORCES acting on ions:
    Electron-Ion                     Ewald-Force                    Non-Local-Force
 -----------------------------------------------------------------------------------------------
   0.147E+02 0.130E+02 0.238E+02   -.147E+02 -.130E+02 -.238E+02   0.131E-01 -.117E-01 0.195E-01
   0.257E+02 0.130E+02 0.333E+02   -.257E+02 -.129E+02 -.333E+02   0.323E-01 -.153E-01 -.230E-02
   0.137E+02 0.341E+02 0.439E+02   -.137E+02 -.342E+02 -.439E+02   0.276E-02 0.794E-01 0.727E-01
   0.247E+02 0.365E+02 0.824E+02   -.249E+02 -.366E+02 -.826E+02   0.143E+00 0.619E-01 0.793E-01
   0.162E+02 0.388E+01 0.239E+02   -.162E+02 -.385E+01 -.239E+02   -.784E-03 -.251E-01 -.342E-02
   0.172E+02 -.278E+01 0.246E+02   -.172E+02 0.280E+01 -.246E+02   -.385E-01 -.102E-01 -.839E-02
   0.398E+02 0.176E+02 0.675E+02   -.400E+02 -.175E+02 -.674E+02   0.607E-01 -.136E+00 -.132E+00
   0.408E+02 -.131E+02 0.750E+02   -.408E+02 0.132E+02 -.748E+02   -.844E-01 -.290E-01 -.456E+00
   -.148E+02 0.327E+02 0.467E+02   0.148E+02 -.326E+02 -.467E+02   -.267E-01 0.193E-03 -.855E-01
   -.307E+02 0.267E+02 0.831E+02   0.308E+02 -.267E+02 -.829E+02   -.563E-01 0.513E-02 -.548E+00
   0.386E+01 -.330E+01 0.184E+02   -.384E+01 0.327E+01 -.184E+02   -.112E-01 0.794E-02 -.720E-02
   0.299E+01 -.240E+01 0.169E+02   -.299E+01 0.240E+01 -.169E+02   -.198E-01 0.811E-02 0.200E-02
   0.146E+02 -.393E+02 0.896E+02   -.148E+02 0.394E+02 -.894E+02   0.154E+00 0.848E-01 -.586E+00
   0.600E+01 -.351E+02 0.451E+02   -.605E+01 0.350E+02 -.451E+02   0.372E-01 -.273E-01 -.577E-01
   -.146E+02 0.923E+01 0.236E+02   0.146E+02 -.921E+01 -.236E+02   0.250E-01 -.140E-01 -.429E-02
   -.225E+02 0.619E+01 0.288E+02   0.225E+02 -.619E+01 -.288E+02   0.525E-02 0.438E-02 -.240E-01
   -.201E+01 -.837E+00 0.162E+02   0.202E+01 0.833E+00 -.162E+02   -.105E-02 -.830E-02 0.213E-02
   0.117E+01 0.758E+01 0.175E+02   -.117E+01 -.757E+01 -.175E+02   -.116E-01 0.575E-02 0.840E-02
   -.475E+01 -.266E+02 0.313E+02   0.473E+01 0.266E+02 -.313E+02   0.484E-01 0.420E-02 0.335E-01
   -.183E+01 -.119E+02 0.197E+02   0.183E+01 0.119E+02 -.197E+02   -.724E-03 -.527E-02 -.146E-02
   0.278E+02 -.120E+02 0.373E+02   -.277E+02 0.119E+02 -.372E+02   -.572E-02 -.878E-02 -.504E-01
   0.154E+02 -.134E+02 0.269E+02   -.153E+02 0.134E+02 -.269E+02   -.218E-01 0.340E-01 -.635E-02
   -.708E+01 0.189E+02 0.119E+03   0.730E+01 -.191E+02 -.119E+03   -.250E+00 0.153E+00 -.423E+00
   -.161E+02 -.304E+02 0.108E+03   0.160E+02 0.306E+02 -.108E+03   0.179E+00 -.156E+00 -.293E+00
   0.665E+01 -.303E+01 0.186E+02   -.661E+01 0.302E+01 -.186E+02   -.207E-01 0.518E-02 -.995E-02
   0.114E+01 0.600E+01 0.188E+02   -.113E+01 -.601E+01 -.188E+02   -.150E-01 0.599E-02 -.247E-02
   -.385E+02 0.378E+01 0.538E+02   0.384E+02 -.387E+01 -.537E+02   0.901E-02 0.397E-01 -.130E+00
   -.335E+02 -.150E+02 0.457E+02   0.335E+02 0.149E+02 -.457E+02   -.585E-01 0.564E-01 0.442E-01
   0.939E+01 -.195E+02 0.285E+02   -.941E+01 0.195E+02 -.285E+02   0.484E-02 0.237E-01 -.130E-01
   0.865E+00 -.673E+01 0.200E+02   -.891E+00 0.670E+01 -.200E+02   0.981E-02 0.174E-01 -.104E-01
   -.287E+02 -.316E+02 0.599E+02   0.288E+02 0.316E+02 -.600E+02   -.104E+00 -.743E-01 0.140E+00
   -.146E+02 -.264E+02 0.341E+02   0.146E+02 0.265E+02 -.341E+02   -.416E-02 -.465E-01 0.373E-01
   0.737E+00 0.310E+01 0.168E+02   -.735E+00 -.310E+01 -.168E+02   0.114E-01 -.121E-01 0.381E-02
   0.218E+01 0.318E+01 0.183E+02   -.219E+01 -.314E+01 -.183E+02   0.124E-02 -.143E-01 -.713E-02
   -.100E+02 0.113E+01 0.206E+02   0.100E+02 -.114E+01 -.206E+02   0.158E-01 0.136E-02 -.420E-02
   -.850E+01 -.334E+01 0.199E+02   0.851E+01 0.333E+01 -.199E+02   -.129E-01 0.117E-01 -.596E-02
   -.177E+02 -.932E+01 0.247E+02   0.178E+02 0.932E+01 -.247E+02   -.230E-01 0.152E-02 -.151E-02
   -.978E+01 -.799E+01 0.195E+02   0.979E+01 0.799E+01 -.195E+02   -.125E-01 0.323E-02 0.108E-01
   -.931E+01 -.122E+02 0.213E+02   0.932E+01 0.122E+02 -.213E+02   -.132E-01 -.156E-01 0.520E-02
   -.135E+01 -.281E+01 0.174E+02   0.134E+01 0.282E+01 -.174E+02   -.243E-02 -.134E-02 0.723E-02
   0.349E+01 0.821E+01 0.184E+02   -.348E+01 -.823E+01 -.184E+02   -.163E-02 0.155E-01 0.708E-02
   0.121E+02 0.189E+02 0.258E+02   -.121E+02 -.189E+02 -.258E+02   0.188E-01 0.256E-01 0.144E-01
   0.938E+00 0.151E+02 0.211E+02   -.931E+00 -.151E+02 -.211E+02   -.653E-02 0.143E-01 -.192E-02
   0.510E+00 0.310E+02 0.361E+02   -.477E+00 -.311E+02 -.361E+02   -.591E-01 0.129E-01 0.372E-01
   -.287E+01 0.577E+01 0.201E+02   0.288E+01 -.576E+01 -.201E+02   0.222E-02 -.918E-02 -.845E-02
   -.127E+02 0.164E+02 0.271E+02   0.127E+02 -.164E+02 -.271E+02   0.270E-03 -.445E-02 -.177E-01
   -.193E+01 -.555E+01 0.182E+02   0.192E+01 0.555E+01 -.182E+02   0.177E-01 0.431E-02 0.846E-03
   -.522E+01 0.217E+01 0.174E+02   0.519E+01 -.217E+01 -.174E+02   0.160E-01 -.315E-02 -.822E-02
   0.376E+00 -.344E+01 0.170E+02   -.362E+00 0.342E+01 -.170E+02   0.742E-02 -.180E-02 0.390E-02
   0.543E+01 0.401E+01 0.173E+02   -.543E+01 -.401E+01 -.173E+02   0.366E-03 0.123E-01 0.401E-02
   0.551E+00 -.272E+00 -.438E+03   -.545E+00 0.257E+00 0.439E+03   -.536E-01 0.215E-01 -.135E+00
   -.229E+03 0.155E+03 -.673E+03   0.279E+03 -.189E+03 0.675E+03   -.517E+02 0.354E+02 -.165E+01
   0.229E+03 -.155E+03 -.649E+03   -.279E+03 0.189E+03 0.645E+03   0.517E+02 -.355E+02 0.482E+01
 -----------------------------------------------------------------------------------------------
   0.785E-01 0.472E-01 -.655E+00   0.171E-12 -.142E-12 -.796E-12   -.786E-01 -.477E-01 0.660E+00
 
 
 POSITION                                       TOTAL-FORCE (eV/Angst)
 -----------------------------------------------------------------------------------
     11.98348      0.00342      0.01417        -0.000733     -0.008932     -0.000214
     -0.34154      1.42665      0.01100         0.027782      0.020110      0.000694
      2.12355      0.00315      0.01249         0.011808     -0.030655      0.015833
      2.12326      1.42653      0.00641        -0.010895      0.006216     -0.106340
     10.75099      2.13819      0.01213        -0.004435     -0.001311      0.004148
     -1.57382      3.56123      0.01110        -0.012784      0.007086      0.003917
      0.89078      2.13854      0.00548        -0.051026      0.010088     -0.088694
      0.89099      3.56147      0.00181        -0.065779      0.049068     -0.242450
      4.58864      0.00346      0.01135         0.017713      0.086568     -0.019186
      4.58894      1.42623      0.00646         0.077413     -0.070300     -0.332964
      9.51854      4.27281      0.01369         0.011218     -0.022224      0.000226
     -2.80632      5.69591      0.01434        -0.024271      0.014036      0.000954
      2.12300      4.27302      0.00000        -0.042424      0.146122     -0.409233
      2.12335      5.69594      0.00581        -0.011882     -0.106153     -0.017635
      7.05344      0.00333      0.01399         0.001277     -0.000722      0.004738
      7.05353      1.42635      0.01368        -0.008076      0.007530      0.002773
      8.28610      6.40752      0.01601         0.008929     -0.012184     -0.000426
     -4.03885      7.83070      0.01636        -0.014579      0.014773     -0.000395
      3.35586      6.40753      0.01007         0.029029      0.012138      0.008749
      3.35599      7.83072      0.01320        -0.003217     -0.013085      0.000705
     -0.34146      4.27290      0.00723         0.059043     -0.035683     -0.004464
     -0.34138      5.69591      0.00946        -0.007681      0.015897      0.009235
      3.35624      2.13791      0.00222        -0.023196     -0.035600     -0.672769
      3.35573      3.56155      0.00139         0.060824      0.075437     -0.458985
     -1.57395      6.40758      0.01311         0.023364      0.000849     -0.001211
     -1.57385      7.83068      0.01438        -0.005807      0.002950     -0.000110
      5.82093      2.13784      0.01033        -0.046993     -0.048528     -0.043890
      5.82114      3.56097      0.01156         0.006109      0.003839      0.015214
      0.89092      6.40755      0.00907        -0.009383      0.003282      0.008879
      0.89106      7.83068      0.01235        -0.016445     -0.009211     -0.000099
      4.58871      4.27293      0.00850        -0.009412     -0.028874      0.002193
      4.58852      5.69606      0.01149        -0.004237      0.034921      0.006977
      9.51845      0.00337      0.01490         0.013902     -0.012407      0.000253
      9.51855      1.42644      0.01438        -0.004629      0.021406     -0.000791
      8.28593      2.13803      0.01453         0.001376     -0.013306      0.001292
      8.28613      3.56115      0.01464        -0.003883      0.003366      0.000017
      7.05356      4.27269      0.01457        -0.005904     -0.005750      0.001849
      7.05362      5.69588      0.01553        -0.003874      0.004723     -0.000688
      5.82112      6.40755      0.01489        -0.002916     -0.006809     -0.001664
      5.82102      7.83073      0.01579        -0.014250      0.010750     -0.000411
      7.05363      8.54227      0.01631         0.011849     -0.007155      0.000466
     -5.27149      9.96549      0.01495        -0.000770      0.003119     -0.002852
     -2.80638      8.54234      0.01558         0.001088      0.008381     -0.000346
     -2.80627      9.96553      0.01362        -0.025883     -0.009054      0.013160
     -0.34149      8.54239      0.01378         0.008721      0.003557      0.000413
     -0.34138      9.96550      0.01354        -0.005643      0.004051      0.005506
      2.12343      8.54232      0.01336         0.010215      0.002961      0.000685
      2.12354      9.96544      0.01469        -0.010654     -0.000761     -0.002572
      4.58846      8.54235      0.01505         0.021973     -0.015298      0.001065
      4.58853      9.96550      0.01517        -0.000455      0.013766      0.000878
      3.04930      2.68154      2.50000        -0.047882      0.006592      0.493920
      4.02070      2.02068      2.56442        -1.360609      1.004804      0.736630
      2.07767      3.34267      2.44055         1.456975     -1.104383      1.067018
 -----------------------------------------------------------------------------------
    total drift:                               -0.000154     -0.000456      0.004728


--------------------------------------------------------------------------------------------------------



  FREE ENERGIE OF THE ION-ELECTRON SYSTEM (eV)
  ---------------------------------------------------
  free  energy   TOTEN  =      -524.65740091 eV

  energy  without entropy=     -524.65740091  energy(sigma->0) =     -524.65740091
 


--------------------------------------------------------------------------------------------------------


    POTLOK:  cpu time    1.8957: real time    1.9074


--------------------------------------------------------------------------------------------------------


 writing wavefunctions
     LOOP+:  cpu time  927.8271: real time  935.6059
    4ORBIT:  cpu time    0.0000: real time    0.0000

 total amount of memory used by VASP MPI-rank0   698619. kBytes
=======================================================================

   base      :      30000. kBytes
   nonl-proj :     230539. kBytes
   fftplans  :      40716. kBytes
   grid      :     363125. kBytes
   one-center:        162. kBytes
   wavefun   :      34077. kBytes
 
  
  
 General timing and accounting informations for this job:
 ========================================================
  
                  Total CPU time used (sec):      975.061
                            User time (sec):      944.352
                          System time (sec):       30.709
                         Elapsed time (sec):      984.472
  
                   Maximum memory used (kb):     1278552.
                   Average memory used (kb):          N/A
  
                          Minor page faults:       151284
                          Major page faults:          155
                 Voluntary context switches:         4174
