 vasp.6.2.1 16May21 (build Nov 06 2021 14:46:37) complex                        
  
 executed on             LinuxIFC date 2025.04.06  14:00:57
 running on  112 total cores
 distrk:  each k-point on   56 cores,    2 groups
 distr:  one band on NCORE=   1 cores,   56 groups


--------------------------------------------------------------------------------------------------------


 INCAR:
   ALGO = Conjugate
   KPAR = 2
   NCORE = 32
   ISMEAR = 0
   SIGMA = 0.01
   PREC = Accurate
   EDIFF = 1E-7
   ENCUT = 1000
   ISIF = 0
   METAGGA = R2SCAN
   LASPH = .TRUE.
   IVDW = 12
   VDW_S8 = 0.7898
   VDW_A1 = 0.4948
   VDW_A2 = 5.7308
   SYMPREC = 1E-7

 POTCAR:    PAW_PBE C_h 06Feb2004                 
 POTCAR:    PAW_PBE O_h 06Feb2004                 
 -----------------------------------------------------------------------------
|                                                                             |
|           W    W    AA    RRRRR   N    N  II  N    N   GGGG   !!!           |
|           W    W   A  A   R    R  NN   N  II  NN   N  G    G  !!!           |
|           W    W  A    A  R    R  N N  N  II  N N  N  G       !!!           |
|           W WW W  AAAAAA  RRRRR   N  N N  II  N  N N  G  GGG   !            |
|           WW  WW  A    A  R   R   N   NN  II  N   NN  G    G                |
|           W    W  A    A  R    R  N    N  II  N    N   GGGG   !!!           |
|                                                                             |
|     The value NCORE = 32 specified in the INCAR file was overwritten,       |
|     because it was not compatible with the 56 processes available:          |
|     NCORE = 1                                                               |
|     was used instead, please check that this makes sense for your           |
|     machine.                                                                |
|                                                                             |
 -----------------------------------------------------------------------------

 -----------------------------------------------------------------------------
|                                                                             |
|           W    W    AA    RRRRR   N    N  II  N    N   GGGG   !!!           |
|           W    W   A  A   R    R  NN   N  II  NN   N  G    G  !!!           |
|           W    W  A    A  R    R  N N  N  II  N N  N  G       !!!           |
|           W WW W  AAAAAA  RRRRR   N  N N  II  N  N N  G  GGG   !            |
|           WW  WW  A    A  R   R   N   NN  II  N   NN  G    G                |
|           W    W  A    A  R    R  N    N  II  N    N   GGGG   !!!           |
|                                                                             |
|     For optimal performance we recommend to set                             |
|       NCORE = 2 up to number-of-cores-per-socket                            |
|     NCORE specifies how many cores store one orbital (NPAR=cpu/NCORE).      |
|     This setting can greatly improve the performance of VASP for DFT.       |
|     The default, NCORE=1 might be grossly inefficient on modern             |
|     multi-core architectures or massively parallel machines. Do your        |
|     own testing! More info at https://www.vasp.at/wiki/index.php/NCORE      |
|     Unfortunately you need to use the default for GW and RPA                |
|     calculations (for HF NCORE is supported but not extensively tested      |
|     yet).                                                                   |
|                                                                             |
 -----------------------------------------------------------------------------

 POTCAR:    PAW_PBE C_h 06Feb2004                 
   VRHFIN =C: s2p2                                                                                  
   LEXCH  = PE                                                                                      
   EATOM  =   147.1560 eV,   10.8157 Ry                                                             
                                                                                                    
   TITEL  = PAW_PBE C_h 06Feb2004                                                                   
   LULTRA =        F    use ultrasoft PP ?                                                          
   IUNSCR =        1    unscreen: 0-lin 1-nonlin 2-no                                               
   RPACOR =    0.800    partial core radius                                                         
   POMASS =   12.011; ZVAL   =    4.000    mass and valenz                                          
   RCORE  =    1.100    outmost cutoff radius                                                       
   RWIGS  =    1.630; RWIGS  =    0.863    wigner-seitz radius (au A)                               
   ENMAX  =  700.000; ENMIN  =  500.000 eV                                                          
   ICORE  =        2    local potential                                                             
   LCOR   =        T    correct aug charges                                                         
   LPAW   =        T    paw PP                                                                      
   EAUG   =  946.768                                                                                
   DEXC   =    0.000                                                                                
   RMAX   =    1.128    core radius for proj-oper                                                   
   RAUG   =    1.300    factor for augmentation sphere                                              
   RDEP   =    1.162    radius for radial grids                                                     
   RDEPT  =    1.088    core radius for aug-charge                                                  
                                                                                                    
   Atomic configuration                                                                             
    4 entries                                                                                       
     n  l   j            E        occ.                                                              
     1  0  0.50      -273.3789   2.0000                                                             
     2  0  0.50       -13.7508   2.0000                                                             
     2  1  0.50        -5.2854   2.0000                                                             
     3  2  1.50        -5.4423   0.0000                                                             
   Description                                                                                      
     l       E           TYP  RCUT    TYP  RCUT                                                     
     0    -13.7508458     23  1.100                                                                 
     0     -8.2022199     23  1.100                                                                 
     1     -5.2854383     23  1.100                                                                 
     1      1.1560700     23  1.100                                                                 
     2     -5.4423304      7  1.100                                                                 
  local pseudopotential read in
  partial core-charges read in
  partial kinetic energy density read in
  atomic valenz-charges read in
  non local Contribution for L=           0  read in
    real space projection operators read in
  non local Contribution for L=           0  read in
    real space projection operators read in
  non local Contribution for L=           1  read in
    real space projection operators read in
  non local Contribution for L=           1  read in
    real space projection operators read in
    PAW grid and wavefunctions read in
 
   number of l-projection  operators is LMAX  =           4
   number of lm-projection operators is LMMAX =           8
 
 POTCAR:    PAW_PBE O_h 06Feb2004                 
   VRHFIN =O: s2p4                                                                                  
   LEXCH  = PE                                                                                      
   EATOM  =   432.3788 eV,   31.7789 Ry                                                             
                                                                                                    
   TITEL  = PAW_PBE O_h 06Feb2004                                                                   
   LULTRA =        F    use ultrasoft PP ?                                                          
   IUNSCR =        1    unscreen: 0-lin 1-nonlin 2-no                                               
   RPACOR =    0.800    partial core radius                                                         
   POMASS =   16.000; ZVAL   =    6.000    mass and valenz                                          
   RCORE  =    1.100    outmost cutoff radius                                                       
   RWIGS  =    1.400; RWIGS  =    0.741    wigner-seitz radius (au A)                               
   ENMAX  =  700.000; ENMIN  =  500.000 eV                                                          
   ICORE  =        2    local potential                                                             
   LCOR   =        T    correct aug charges                                                         
   LPAW   =        T    paw PP                                                                      
   EAUG   =  888.804                                                                                
   DEXC   =    0.000                                                                                
   RMAX   =    1.128    core radius for proj-oper                                                   
   RAUG   =    1.300    factor for augmentation sphere                                              
   RDEP   =    1.125    radius for radial grids                                                     
   RDEPT  =    1.088    core radius for aug-charge                                                  
                                                                                                    
   Atomic configuration                                                                             
    4 entries                                                                                       
     n  l   j            E        occ.                                                              
     1  0  0.50      -514.6923   2.0000                                                             
     2  0  0.50       -23.9615   2.0000                                                             
     2  1  0.50        -9.0305   4.0000                                                             
     3  2  1.50        -9.5241   0.0000                                                             
   Description                                                                                      
     l       E           TYP  RCUT    TYP  RCUT                                                     
     0    -23.9615319     23  1.100                                                                 
     0    -25.3221145     23  1.100                                                                 
     1     -9.0304911     23  1.100                                                                 
     1     -5.4802209     23  1.100                                                                 
     2     -9.5240782      7  1.100                                                                 
  local pseudopotential read in
  partial core-charges read in
  partial kinetic energy density read in
  atomic valenz-charges read in
  non local Contribution for L=           0  read in
    real space projection operators read in
  non local Contribution for L=           0  read in
    real space projection operators read in
  non local Contribution for L=           1  read in
    real space projection operators read in
  non local Contribution for L=           1  read in
    real space projection operators read in
    PAW grid and wavefunctions read in
 
   number of l-projection  operators is LMAX  =           4
   number of lm-projection operators is LMMAX =           8
 
 -----------------------------------------------------------------------------
|                                                                             |
|               ----> ADVICE to this user running VASP <----                  |
|                                                                             |
|     You have a (more or less) 'large supercell' and for larger cells it     |
|     might be more efficient to use real-space projection operators.         |
|     Therefore, try LREAL= Auto in the INCAR file.                           |
|     Mind: For very accurate calculation, you might also keep the            |
|     reciprocal projection scheme (i.e. LREAL=.FALSE.).                      |
|                                                                             |
 -----------------------------------------------------------------------------

  PAW_PBE C_h 06Feb2004                 :
 energy of atom  1       EATOM= -147.1560
 kinetic energy error for atom=    0.0031 (will be added to EATOM!!)
  PAW_PBE O_h 06Feb2004                 :
 energy of atom  2       EATOM= -432.3788
 kinetic energy error for atom=    0.0171 (will be added to EATOM!!)
 
 
 POSCAR:  C  O
  positions in cartesian coordinates
  No initial velocities read in

 METAGGA = R2SCA    LMAXTAU =  6    LMIXTAU =  F

 exchange correlation table for  LEXCH =        8
   RHO(1)=    0.500       N(1)  =     2000
   RHO(2)=  100.500       N(2)  =     4000
 


--------------------------------------------------------------------------------------------------------


 ion  position               nearest neighbor table
   1  0.972  0.000  0.001-  50 1.42   2 1.42  42 1.42
   2  0.039  0.134  0.001-   5 1.42   7 1.42   1 1.42
   3  0.172  0.000  0.001-  42 1.42  44 1.42   4 1.42
   4  0.239  0.134  0.000-   7 1.42   3 1.42  23 1.42
   5  0.972  0.200  0.001-   6 1.42   2 1.42  34 1.42
   6  0.039  0.334  0.001-   5 1.42  21 1.42  11 1.42
   7  0.172  0.200  0.000-   8 1.42   2 1.42   4 1.42
   8  0.239  0.334  0.000-  13 1.42   7 1.42  21 1.42
   9  0.372  0.000  0.001-  10 1.42  44 1.42  46 1.42
  10  0.439  0.134  0.000-  27 1.42   9 1.42  23 1.42
  11  0.972  0.400  0.001-  12 1.42  36 1.42   6 1.42
  12  0.039  0.534  0.001-  25 1.42  11 1.42  17 1.42
  13  0.372  0.400  0.000-   8 1.42  14 1.42  24 1.42
  14  0.439  0.534  0.000-  13 1.42  29 1.42  19 1.42
  15  0.572  0.000  0.001-  46 1.42  16 1.42  48 1.42
  16  0.639  0.134  0.001-  15 1.42  35 1.42  27 1.42
  17  0.972  0.600  0.001-  38 1.42  18 1.42  12 1.42
  18  0.039  0.734  0.001-  43 1.42  41 1.42  17 1.42
  19  0.572  0.600  0.001-  14 1.42  20 1.42  32 1.42
  20  0.639  0.734  0.001-  49 1.42  19 1.42  47 1.42
  21  0.172  0.400  0.000-  22 1.42   8 1.42   6 1.42
  22  0.239  0.534  0.000-  21 1.42  29 1.42  25 1.42
  23  0.372  0.200  0.000-  10 1.42   4 1.42  24 1.42
  24  0.439  0.334  0.000-  13 1.42  31 1.42  23 1.42
  25  0.172  0.600  0.001-  26 1.42  12 1.42  22 1.42
  26  0.239  0.734  0.001-  25 1.42  45 1.42  43 1.42
  27  0.572  0.200  0.001-  10 1.42  28 1.42  16 1.42
  28  0.639  0.334  0.001-  27 1.42  37 1.42  31 1.42
  29  0.372  0.600  0.000-  22 1.42  14 1.42  30 1.42
  30  0.439  0.734  0.001-  47 1.42  29 1.42  45 1.42
  31  0.572  0.400  0.000-  32 1.42  28 1.42  24 1.42
  32  0.639  0.534  0.001-  31 1.42  39 1.42  19 1.42
  33  0.772  0.000  0.001-  34 1.42  48 1.42  50 1.42
  34  0.839  0.134  0.001-  33 1.42   5 1.42  35 1.42
  35  0.772  0.200  0.001-  36 1.42  16 1.42  34 1.42
  36  0.839  0.334  0.001-  35 1.42  11 1.42  37 1.42
  37  0.772  0.400  0.001-  28 1.42  38 1.42  36 1.42
  38  0.839  0.534  0.001-  17 1.42  37 1.42  39 1.42
  39  0.772  0.600  0.001-  40 1.42  38 1.42  32 1.42
  40  0.839  0.734  0.001-  39 1.42  49 1.42  41 1.42
  41  0.972  0.800  0.001-  18 1.42  42 1.42  40 1.42
  42  0.039  0.934  0.001-   3 1.42  41 1.42   1 1.42
  43  0.172  0.800  0.001-  18 1.42  44 1.42  26 1.42
  44  0.239  0.934  0.001-   9 1.42  43 1.42   3 1.42
  45  0.372  0.800  0.001-  26 1.42  46 1.42  30 1.42
  46  0.439  0.934  0.001-  15 1.42  45 1.42   9 1.42
  47  0.572  0.800  0.001-  30 1.42  48 1.42  20 1.42
  48  0.639  0.934  0.001-  47 1.42  33 1.42  15 1.42
  49  0.772  0.800  0.001-  50 1.42  20 1.42  40 1.42
  50  0.839  0.934  0.001-  49 1.42   1 1.42  33 1.42
  51  0.373  0.251  0.397-  52 1.18  53 1.18
  52  0.421  0.189  0.400-  51 1.18
  53  0.325  0.313  0.394-  51 1.18
 
  LATTYP: Found a hexagonal cell.
 ALAT       =    12.3250000000
 C/A-ratio  =     1.6227180527
  
  Lattice vectors:
  
 A1 = (  12.3250000000,   0.0000000000,   0.0000000000)
 A2 = (  -6.1625000000,  10.6737631016,   0.0000000000)
 A3 = (   0.0000000000,   0.0000000000,  20.0000000000)


Analysis of symmetry for initial positions (statically):
=====================================================================
 Subroutine PRICEL returns:
 Original cell was already a primitive cell.
 

 Routine SETGRP: Setting up the symmetry group for a 
 hexagonal supercell.


 Subroutine GETGRP returns: Found  1 space group operations
 (whereof  1 operations were pure point group operations)
 out of a pool of 24 trial point group operations.


The static configuration has the point symmetry C_1 .


Analysis of symmetry for dynamics (positions and initial velocities):
=====================================================================
 Subroutine PRICEL returns:
 Original cell was already a primitive cell.
 

 Routine SETGRP: Setting up the symmetry group for a 
 hexagonal supercell.


 Subroutine GETGRP returns: Found  1 space group operations
 (whereof  1 operations were pure point group operations)
 out of a pool of 24 trial point group operations.


The dynamic configuration has the point symmetry C_1 .


 Subroutine INISYM returns: Found  1 space group operations
 (whereof  1 operations are pure point group operations),
 and found     1 'primitive' translations


----------------------------------------------------------------------------------------

                                     Primitive cell                                     

  volume of cell :    2631.0826

  direct lattice vectors                    reciprocal lattice vectors
    12.325000000  0.000000000  0.000000000     0.081135903  0.046843835  0.000000000
    -6.162500000 10.673763102  0.000000000     0.000000000  0.093687670  0.000000000
     0.000000000  0.000000000 20.000000000     0.000000000  0.000000000  0.050000000

  length of vectors
    12.325000000 12.325000000 20.000000000     0.093687670  0.093687670  0.050000000

  position of ions in fractional coordinates (direct lattice)
     0.972450841  0.000320818  0.000708389
     0.039118382  0.133659505  0.000550216
     0.172443627  0.000295449  0.000624535
     0.239096278  0.133647917  0.000320585
     0.972452058  0.200322012  0.000606523
     0.039128360  0.333643771  0.000555187
     0.172451764  0.200354552  0.000273959
     0.239124359  0.333665720  0.000090325
     0.372465565  0.000324403  0.000567391
     0.439137473  0.133619939  0.000322923
     0.972449824  0.400309362  0.000684513
     0.039124981  0.533636789  0.000716763
     0.372416176  0.400329481  0.000000000
     0.439099602  0.533638981  0.000290518
     0.572443676  0.000312125  0.000699475
     0.639110207  0.133631751  0.000684093
     0.972452703  0.600305653  0.000800361
     0.039124495  0.733640359  0.000818141
     0.572433471  0.600306242  0.000503618
     0.639111888  0.733641879  0.000659881
     0.172454630  0.400318228  0.000361306
     0.239120185  0.533636548  0.000473136
     0.372459750  0.200295993  0.000111246
     0.439107096  0.333673419  0.000069702
     0.172452155  0.600311506  0.000655425
     0.239123371  0.733638574  0.000718912
     0.572431082  0.200289171  0.000516621
     0.639112773  0.333618630  0.000577970
     0.372439808  0.600308022  0.000453556
     0.439116090  0.733637858  0.000617737
     0.572469358  0.400320504  0.000424897
     0.639119408  0.533650873  0.000574513
     0.772445723  0.000315427  0.000745201
     0.839116277  0.133640203  0.000719132
     0.772440513  0.200307432  0.000726291
     0.839120241  0.333635728  0.000731834
     0.772446320  0.400298367  0.000728722
     0.839118980  0.533633964  0.000776376
     0.772456143  0.600308173  0.000744639
     0.839115033  0.733643180  0.000789390
     0.972455313  0.800305582  0.000815291
     0.039114714  0.933643289  0.000747563
     0.172457971  0.800312211  0.000779216
     0.239134551  0.933647193  0.000681063
     0.372451396  0.800316674  0.000689249
     0.439124489  0.933644769  0.000676788
     0.572441101  0.800310054  0.000668168
     0.639115067  0.933638985  0.000734556
     0.772445098  0.800313187  0.000752577
     0.839116614  0.933644338  0.000758538
     0.373021009  0.251226878  0.396850263
     0.420879805  0.189313152  0.400071356
     0.325156981  0.313167186  0.393877520

  ion indices of the primitive-cell ions
   primitive index   ion index
                 1           1
                 2           2
                 3           3
                 4           4
                 5           5
                 6           6
                 7           7
                 8           8
                 9           9
                10          10
                11          11
                12          12
                13          13
                14          14
                15          15
                16          16
                17          17
                18          18
                19          19
                20          20
                21          21
                22          22
                23          23
                24          24
                25          25
                26          26
                27          27
                28          28
                29          29
                30          30
                31          31
                32          32
                33          33
                34          34
                35          35
                36          36
                37          37
                38          38
                39          39
                40          40
                41          41
                42          42
                43          43
                44          44
                45          45
                46          46
                47          47
                48          48
                49          49
                50          50
                51          51
                52          52
                53          53

----------------------------------------------------------------------------------------

 
 
 KPOINTS: auto                                    

Automatic generation of k-mesh.
 Grid dimensions read from file:
 generate k-points for:    1    1    1

 Generating k-lattice:

  Cartesian coordinates                     Fractional coordinates (reciprocal lattice)
     0.081135903  0.046843835  0.000000000     1.000000000 -0.000000000  0.000000000
     0.000000000  0.093687670  0.000000000     0.000000000  1.000000000  0.000000000
     0.000000000  0.000000000  0.050000000     0.000000000  0.000000000  1.000000000

  Length of vectors
     0.093687670  0.093687670  0.050000000

  Shift w.r.t. Gamma in fractional coordinates (k-lattice)
     0.000000000  0.000000000  0.000000000

 
 Subroutine IBZKPT returns following result:
 ===========================================
 
 Found      1 irreducible k-points:
 
 Following reciprocal coordinates:
            Coordinates               Weight
  0.000000  0.000000  0.000000      1.000000
 
 Following cartesian coordinates:
            Coordinates               Weight
  0.000000  0.000000  0.000000      1.000000
 


--------------------------------------------------------------------------------------------------------




 Dimension of arrays:
   k-points           NKPTS =      1   k-points in BZ     NKDIM =      1   number of bands    NBANDS=    168
   number of dos      NEDOS =    301   number of ions     NIONS =     53
   non local maximal  LDIM  =      4   non local SUM 2l+1 LMDIM =      8
   total plane-waves  NPLWV = ******
   max r-space proj   IRMAX =      1   max aug-charges    IRDMAX=   9736
   dimension x,y,z NGX =   128 NGY =  128 NGZ =  210
   dimension x,y,z NGXF=   256 NGYF=  256 NGZF=  420
   support grid    NGXF=   256 NGYF=  256 NGZF=  420
   ions per type =              51   2
   NGX,Y,Z   is equivalent  to a cutoff of  17.27, 17.27, 17.46 a.u.
   NGXF,Y,Z  is equivalent  to a cutoff of  34.53, 34.53, 34.91 a.u.

 SYSTEM =  unknown system                          
 POSCAR =   C  O                                   

 Startparameter for this run:
   NWRITE =      2    write-flag & timer
   PREC   = accura    normal or accurate (medium, high low for compatibility)
   ISTART =      0    job   : 0-new  1-cont  2-samecut
   ICHARG =      2    charge: 1-file 2-atom 10-const
   ISPIN  =      1    spin polarized calculation?
   LNONCOLLINEAR =      F non collinear calculations
   LSORBIT =      F    spin-orbit coupling
   INIWAV =      1    electr: 0-lowe 1-rand  2-diag
   LASPH  =      T    aspherical Exc in radial PAW
 Electronic Relaxation 1
   ENCUT  = 1000.0 eV  73.50 Ry    8.57 a.u.  31.78 31.78 51.57*2*pi/ulx,y,z
   ENINI  = 1000.0     initial cutoff
   ENAUG  =  946.8 eV  augmentation charge cutoff
   NELM   =     60;   NELMIN=  2; NELMDL= -5     # of ELM steps 
   EDIFF  = 0.1E-06   stopping-criterion for ELM
   LREAL  =      F    real-space projection
   NLSPLINE    = F    spline interpolate recip. space projectors
   LCOMPAT=      F    compatible to vasp.4.4
   GGA_COMPAT  = T    GGA compatible to vasp.4.4-vasp.4.6
   LMAXPAW     = -100 max onsite density
   LMAXMIX     =    2 max onsite mixed and CHGCAR
   VOSKOWN=      0    Vosko Wilk Nusair interpolation
   ROPT   =    0.00000   0.00000
 Ionic relaxation
   EDIFFG = 0.1E-05   stopping-criterion for IOM
   NSW    =      0    number of steps for IOM
   NBLOCK =      1;   KBLOCK =      1    inner block; outer block 
   IBRION =     -1    ionic relax: 0-MD 1-quasi-New 2-CG
   NFREE  =      0    steps in history (QN), initial steepest desc. (CG)
   ISIF   =      0    stress and relaxation
   IWAVPR =     10    prediction:  0-non 1-charg 2-wave 3-comb
   ISYM   =      2    0-nonsym 1-usesym 2-fastsym
   LCORR  =      T    Harris-Foulkes like correction to forces

   POTIM  = 0.5000    time-step for ionic-motion
   TEIN   =    0.0    initial temperature
   TEBEG  =    0.0;   TEEND  =   0.0 temperature during run
   SMASS  =  -3.00    Nose mass-parameter (am)
   estimated Nose-frequenzy (Omega)   =  0.10E-29 period in steps = 0.13E+47 mass=  -0.347E-26a.u.
   SCALEE = 1.0000    scale energy and forces
   NPACO  =    256;   APACO  = 16.0  distance and # of slots for P.C.
   PSTRESS=    0.0 pullay stress

  Mass of Ions in am
   POMASS =  12.01 16.00
  Ionic Valenz
   ZVAL   =   4.00  6.00
  Atomic Wigner-Seitz radii
   RWIGS  =  -1.00 -1.00
  virtual crystal weights 
   VCA    =   1.00  1.00
   NELECT =     216.0000    total number of electrons
   NUPDOWN=      -1.0000    fix difference up-down

 DOS related values:
   EMIN   =  10.00;   EMAX   =-10.00  energy-range for DOS
   EFERMI =   0.00
   ISMEAR =     0;   SIGMA  =   0.01  broadening in eV -4-tet -1-fermi 0-gaus

 Electronic relaxation 2 (details)
   IALGO  =     58    algorithm
   LDIAG  =      T    sub-space diagonalisation (order eigenvalues)
   LSUBROT=      F    optimize rotation matrix (better conditioning)
   TURBO    =      0    0=normal 1=particle mesh
   IRESTART =      0    0=no restart 2=restart with 2 vectors
   NREBOOT  =      0    no. of reboots
   NMIN     =      0    reboot dimension
   EREF     =   0.00    reference energy to select bands
   IMIX   =      4    mixing-type and parameters
     AMIX     =   0.40;   BMIX     =  1.00
     AMIX_MAG =   1.60;   BMIX_MAG =  1.00
     AMIN     =   0.10
     WC   =   100.;   INIMIX=   1;  MIXPRE=   1;  MAXMIX= -45

 Intra band minimization:
   WEIMIN = 0.0000     energy-eigenvalue tresh-hold
   EBREAK =  0.15E-09  absolut break condition
   DEPER  =   0.30     relativ break condition  

   TIME   =   0.40     timestep for ELM

  volume/ion in A,a.u.               =      49.64       335.01
  Fermi-wavevector in a.u.,A,eV,Ry     =   0.711510  1.344560  6.887909  0.506247
  Thomas-Fermi vector in A             =   1.798641
 
 Write flags
   LWAVE        =      T    write WAVECAR
   LDOWNSAMPLE  =      F    k-point downsampling of WAVECAR
   LCHARG       =      T    write CHGCAR
   LVTOT        =      F    write LOCPOT, total local potential
   LVHAR        =      F    write LOCPOT, Hartree potential only
   LELF         =      F    write electronic localiz. function (ELF)
   LORBIT       =      0    0 simple, 1 ext, 2 COOP (PROOUT), +10 PAW based schemes


 Dipole corrections
   LMONO  =      F    monopole corrections only (constant potential shift)
   LDIPOL =      F    correct potential (dipole corrections)
   IDIPOL =      0    1-x, 2-y, 3-z, 4-all directions 
   EPSILON=  1.0000000 bulk dielectric constant

 Exchange correlation treatment:
   GGA     =    --    GGA type
   LEXCH   =     8    internal setting for exchange type
   VOSKOWN=      0    Vosko Wilk Nusair interpolation
   LHFCALC =     F    Hartree Fock is set to
   LHFONE  =     F    Hartree Fock one center treatment
   AEXX    =    0.0000 exact exchange contribution

 Linear response parameters
   LEPSILON=     F    determine dielectric tensor
   LRPA    =     F    only Hartree local field effects (RPA)
   LNABLA  =     F    use nabla operator in PAW spheres
   LVEL    =     F    velocity operator in full k-point grid
   LINTERFAST=   F  fast interpolation
   KINTER  =     0    interpolate to denser k-point grid
   CSHIFT  =0.1000    complex shift for real part using Kramers Kronig
   OMEGAMAX=  -1.0    maximum frequency
   DEG_THRESHOLD= 0.2000000E-02 threshold for treating states as degnerate
   RTIME   =   -0.100 relaxation time in fs
  (WPLASMAI=    0.000 imaginary part of plasma frequency in eV, 0.658/RTIME)
   DFIELD  = 0.0000000 0.0000000 0.0000000 field for delta impulse in time
 
 Orbital magnetization related:
   ORBITALMAG=     F  switch on orbital magnetization
   LCHIMAG   =     F  perturbation theory with respect to B field
   DQ        =  0.001000  dq finite difference perturbation B field
   LLRAUG    =     F  two centre corrections for induced B field



--------------------------------------------------------------------------------------------------------


 Static calculation
 charge density and potential will be updated during run
 non-spin polarized calculation
 Conjugate gradient for all bands (Freysoldt, et al. PRB 79, 241103 (2009))
 preconditioned conjugated gradient                                        
 perform sub-space diagonalisation
    before iterative eigenvector-optimisation
 modified Broyden-mixing scheme, WC =      100.0
 initial mixing is a Kerker type mixing with AMIX =  0.4000 and BMIX =      1.0000
 Hartree-type preconditioning will be used
 using additional bands           60
 reciprocal scheme for non local part
 use partial core corrections
 no Harris-corrections to forces 
 use gradient corrections 
 use of overlap-Matrix (Vanderbilt PP)
 Gauss-broadening in eV      SIGMA  =   0.01


--------------------------------------------------------------------------------------------------------


  energy-cutoff  :     1000.00
  volume of cell :     2631.08
      direct lattice vectors                 reciprocal lattice vectors
    12.325000000  0.000000000  0.000000000     0.081135903  0.046843835  0.000000000
    -6.162500000 10.673763102  0.000000000     0.000000000  0.093687670  0.000000000
     0.000000000  0.000000000 20.000000000     0.000000000  0.000000000  0.050000000

  length of vectors
    12.325000000 12.325000000 20.000000000     0.093687670  0.093687670  0.050000000


 
 k-points in units of 2pi/SCALE and weight: auto                                    
   0.00000000  0.00000000  0.00000000       1.000
 
 k-points in reciprocal lattice and weights: auto                                    
   0.00000000  0.00000000  0.00000000       1.000
 
 position of ions in fractional coordinates (direct lattice) 
   0.97245084  0.00032082  0.00070839
   0.03911838  0.13365950  0.00055022
   0.17244363  0.00029545  0.00062454
   0.23909628  0.13364792  0.00032058
   0.97245206  0.20032201  0.00060652
   0.03912836  0.33364377  0.00055519
   0.17245176  0.20035455  0.00027396
   0.23912436  0.33366572  0.00009033
   0.37246557  0.00032440  0.00056739
   0.43913747  0.13361994  0.00032292
   0.97244982  0.40030936  0.00068451
   0.03912498  0.53363679  0.00071676
   0.37241618  0.40032948  0.00000000
   0.43909960  0.53363898  0.00029052
   0.57244368  0.00031213  0.00069947
   0.63911021  0.13363175  0.00068409
   0.97245270  0.60030565  0.00080036
   0.03912449  0.73364036  0.00081814
   0.57243347  0.60030624  0.00050362
   0.63911189  0.73364188  0.00065988
   0.17245463  0.40031823  0.00036131
   0.23912018  0.53363655  0.00047314
   0.37245975  0.20029599  0.00011125
   0.43910710  0.33367342  0.00006970
   0.17245216  0.60031151  0.00065542
   0.23912337  0.73363857  0.00071891
   0.57243108  0.20028917  0.00051662
   0.63911277  0.33361863  0.00057797
   0.37243981  0.60030802  0.00045356
   0.43911609  0.73363786  0.00061774
   0.57246936  0.40032050  0.00042490
   0.63911941  0.53365087  0.00057451
   0.77244572  0.00031543  0.00074520
   0.83911628  0.13364020  0.00071913
   0.77244051  0.20030743  0.00072629
   0.83912024  0.33363573  0.00073183
   0.77244632  0.40029837  0.00072872
   0.83911898  0.53363396  0.00077638
   0.77245614  0.60030817  0.00074464
   0.83911503  0.73364318  0.00078939
   0.97245531  0.80030558  0.00081529
   0.03911471  0.93364329  0.00074756
   0.17245797  0.80031221  0.00077922
   0.23913455  0.93364719  0.00068106
   0.37245140  0.80031667  0.00068925
   0.43912449  0.93364477  0.00067679
   0.57244110  0.80031005  0.00066817
   0.63911507  0.93363899  0.00073456
   0.77244510  0.80031319  0.00075258
   0.83911661  0.93364434  0.00075854
   0.37302101  0.25122688  0.39685026
   0.42087980  0.18931315  0.40007136
   0.32515698  0.31316719  0.39387752
 
 position of ions in cartesian coordinates  (Angst):
  11.98347958  0.00342433  0.01416777
  -0.34154264  1.42664989  0.01100432
   2.12354700  0.00315355  0.01249070
   2.12325634  1.42652621  0.00641170
  10.75098721  2.13818970  0.01213047
  -1.57382270  3.56123457  0.01110375
   0.89078307  2.13853702  0.00547917
   0.89099273  3.56146885  0.00180651
   4.58863896  0.00346260  0.01134782
   4.58893648  1.42622757  0.00645846
   9.51853763  4.27280730  0.01369027
  -2.80632132  5.69591267  0.01433526
   2.12299894  4.27302204  0.00000000
   2.12335237  5.69593607  0.00581036
   7.05344483  0.00333155  0.01398950
   7.05352764  1.42635365  0.01368187
   8.28609598  6.40752033  0.01600723
  -4.03884931  7.83070339  0.01636283
   3.35585531  6.40752662  0.01007237
   3.35598594  7.83071962  0.01319763
  -0.34145776  4.27290193  0.00722612
  -0.34137895  5.69591010  0.00946273
   3.35624236  2.13791198  0.00222492
   3.35573251  3.56155103  0.00139405
  -1.57394684  6.40758280  0.01310850
  -1.57385216  7.83068434  0.01437823
   5.82093107  2.13783916  0.01033241
   5.82114012  3.56096622  0.01155939
   0.89092245  6.40754561  0.00907111
   0.89106251  7.83067670  0.01235474
   4.58870974  4.27292622  0.00849795
   4.58852320  5.69606300  0.01149026
   9.51844972  0.00336679  0.01490402
   9.51855036  1.42644387  0.01438264
   8.28593477  2.13803408  0.01452582
   8.28612680  3.56114872  0.01463668
   7.05356221  4.27268994  0.01457444
   7.05362213  5.69588251  0.01552751
   5.82112285  6.40754723  0.01489279
   5.82101669  7.83073350  0.01578780
   7.05362858  8.54227219  0.01630582
  -5.27148792  9.96548729  0.01495127
  -2.80637951  8.54234295  0.01558431
  -2.80626749  9.96552896  0.01362126
  -0.34148805  8.54239058  0.01378498
  -0.34137657  9.96550309  0.01353576
   2.12342586  8.54231992  0.01336337
   2.12354296  9.96544135  0.01469111
   4.58845581  8.54235337  0.01505154
   4.58852904  9.96549848  0.01517076
   3.04929830  2.68153618  7.93700526
   4.02070129  2.02068374  8.00142712
   2.07766701  3.34267235  7.87755039
 


--------------------------------------------------------------------------------------------------------


 k-point   1 :   0.0000 0.0000 0.0000  plane waves:  189031

 maximum and minimum number of plane-waves per node :    189031   189031

 maximum number of plane-waves:    189031
 maximum index in each direction: 
   IXMAX=   31   IYMAX=   31   IZMAX=   51
   IXMIN=  -31   IYMIN=  -31   IZMIN=  -51


 serial   3D FFT for wavefunctions
 parallel 3D FFT for charge:
    minimum data exchange during FFTs selected (reduces bandwidth)


 total amount of memory used by VASP MPI-rank0   556209. kBytes
=======================================================================

   base      :      30000. kBytes
   nonl-proj :     184518. kBytes
   fftplans  :      31725. kBytes
   grid      :     282516. kBytes
   one-center:        162. kBytes
   wavefun   :      27288. kBytes
 
     INWAV:  cpu time    0.0000: real time    0.0000
 Broyden mixing: mesh for mixing (old mesh)
   NGX = 63   NGY = 63   NGZ =103
  (NGX  =256   NGY  =256   NGZ  =420)
  gives a total of 408807 points

 initial charge density was supplied:
 charge density of overlapping atoms calculated
 number of electron     216.0000000 magnetization 
 keeping initial charge density in first step


--------------------------------------------------------------------------------------------------------


 Maximum index for augmentation-charges          459 (set IRDMAX)


--------------------------------------------------------------------------------------------------------


 First call to EWALD:  gamma=   0.128
 Maximum number of real-space cells 3x 3x 2
 Maximum number of reciprocal cells 3x 3x 4

    FEWALD:  cpu time    0.0023: real time    0.0023


--------------------------------------- Iteration      1(   1)  ---------------------------------------


    POTLOK:  cpu time    1.2813: real time    1.2893
    SETDIJ:  cpu time    0.1678: real time    0.1684
    TRIAL :  cpu time   21.9000: real time   22.0611
    CORREC:  cpu time    0.0006: real time    0.0008
    --------------------------------------------
      LOOP:  cpu time   23.3547: real time   23.5593

 eigenvalue-minimisations  :   336
 total energy-change (2. order) : 0.2407811E+04  (-0.1180623E+05)
 number of electron     216.0000000 magnetization 
 augmentation part      216.0000000 magnetization 

 Free energy of the ion-electron system (eV)
  ---------------------------------------------------
  alpha Z        PSCENC =        59.93625244
  Ewald energy   TEWEN  =     29682.55906172
  -Hartree energ DENC   =    -35858.01537060
  -exchange      EXHF   =         0.00000000
  -V(xc)+E(xc)   XCENC  =       605.05776975
  PAW double counting   =      6340.10990386    -6200.63067283
  entropy T*S    EENTRO =        -0.00000000
  eigenvalues    EBANDS =      -590.72993322
  atomic energy  EATOM  =      8369.52358910
  ---------------------------------------------------
  free energy    TOTEN  =      2407.81060021 eV

  energy without entropy =     2407.81060021  energy(sigma->0) =     2407.81060021


--------------------------------------------------------------------------------------------------------




--------------------------------------- Iteration      1(   2)  ---------------------------------------


    TRIAL :  cpu time   31.0529: real time   31.2964
    CORREC:  cpu time    0.0001: real time    0.0003
    --------------------------------------------
      LOOP:  cpu time   31.1091: real time   31.3555

 eigenvalue-minimisations  :   560
 total energy-change (2. order) :-0.2432256E+04  (-0.2300895E+04)
 number of electron     216.0000000 magnetization 
 augmentation part      216.0000000 magnetization 

 Free energy of the ion-electron system (eV)
  ---------------------------------------------------
  alpha Z        PSCENC =        59.93625244
  Ewald energy   TEWEN  =     29682.55906172
  -Hartree energ DENC   =    -35858.01537060
  -exchange      EXHF   =         0.00000000
  -V(xc)+E(xc)   XCENC  =       605.05776975
  PAW double counting   =      6340.10990386    -6200.63067283
  entropy T*S    EENTRO =        -0.00000000
  eigenvalues    EBANDS =     -3022.98573906
  atomic energy  EATOM  =      8369.52358910
  ---------------------------------------------------
  free energy    TOTEN  =       -24.44520562 eV

  energy without entropy =      -24.44520562  energy(sigma->0) =      -24.44520562


--------------------------------------------------------------------------------------------------------




--------------------------------------- Iteration      1(   3)  ---------------------------------------


    TRIAL :  cpu time   24.1253: real time   24.3200
    CORREC:  cpu time    0.0001: real time    0.0001
    --------------------------------------------
      LOOP:  cpu time   24.1861: real time   24.3820

 eigenvalue-minimisations  :   392
 total energy-change (2. order) :-0.5567479E+03  (-0.5539916E+03)
 number of electron     216.0000000 magnetization 
 augmentation part      216.0000000 magnetization 

 Free energy of the ion-electron system (eV)
  ---------------------------------------------------
  alpha Z        PSCENC =        59.93625244
  Ewald energy   TEWEN  =     29682.55906172
  -Hartree energ DENC   =    -35858.01537060
  -exchange      EXHF   =         0.00000000
  -V(xc)+E(xc)   XCENC  =       605.05776975
  PAW double counting   =      6340.10990386    -6200.63067283
  entropy T*S    EENTRO =        -0.00000000
  eigenvalues    EBANDS =     -3579.73363414
  atomic energy  EATOM  =      8369.52358910
  ---------------------------------------------------
  free energy    TOTEN  =      -581.19310070 eV

  energy without entropy =     -581.19310070  energy(sigma->0) =     -581.19310070


--------------------------------------------------------------------------------------------------------




--------------------------------------- Iteration      1(   4)  ---------------------------------------


    TRIAL :  cpu time   26.4638: real time   26.6659
    CORREC:  cpu time    0.0001: real time    0.0003
    --------------------------------------------
      LOOP:  cpu time   26.4766: real time   26.7150

 eigenvalue-minimisations  :   448
 total energy-change (2. order) :-0.2564257E+02  (-0.2548920E+02)
 number of electron     216.0000000 magnetization 
 augmentation part      216.0000000 magnetization 

 Free energy of the ion-electron system (eV)
  ---------------------------------------------------
  alpha Z        PSCENC =        59.93625244
  Ewald energy   TEWEN  =     29682.55906172
  -Hartree energ DENC   =    -35858.01537060
  -exchange      EXHF   =         0.00000000
  -V(xc)+E(xc)   XCENC  =       605.05776975
  PAW double counting   =      6340.10990386    -6200.63067283
  entropy T*S    EENTRO =        -0.00000000
  eigenvalues    EBANDS =     -3605.37620624
  atomic energy  EATOM  =      8369.52358910
  ---------------------------------------------------
  free energy    TOTEN  =      -606.83567280 eV

  energy without entropy =     -606.83567280  energy(sigma->0) =     -606.83567280


--------------------------------------------------------------------------------------------------------




--------------------------------------- Iteration      1(   5)  ---------------------------------------


    TRIAL :  cpu time   21.8027: real time   21.9888
    CORREC:  cpu time    0.0001: real time    0.0001
    CHARGE:  cpu time    2.2876: real time    2.3050
    --------------------------------------------
      LOOP:  cpu time   24.1464: real time   24.3507

 eigenvalue-minimisations  :   336
 total energy-change (2. order) :-0.9043736E+00  (-0.9038827E+00)
 number of electron     216.0000000 magnetization 
 augmentation part       -0.4471852 magnetization 

 Free energy of the ion-electron system (eV)
  ---------------------------------------------------
  alpha Z        PSCENC =        59.93625244
  Ewald energy   TEWEN  =     29682.55906172
  -Hartree energ DENC   =    -35858.01537060
  -exchange      EXHF   =         0.00000000
  -V(xc)+E(xc)   XCENC  =       605.05776975
  PAW double counting   =      6340.10990386    -6200.63067283
  entropy T*S    EENTRO =        -0.00000000
  eigenvalues    EBANDS =     -3606.28057986
  atomic energy  EATOM  =      8369.52358910
  ---------------------------------------------------
  free energy    TOTEN  =      -607.74004642 eV

  energy without entropy =     -607.74004642  energy(sigma->0) =     -607.74004642


--------------------------------------------------------------------------------------------------------




--------------------------------------- Iteration      1(   6)  ---------------------------------------


    POTLOK:  cpu time    1.2604: real time    1.2676
    SETDIJ:  cpu time    0.1863: real time    0.1869
    TRIAL :  cpu time   15.5818: real time   15.7029
    CORREC:  cpu time    6.8777: real time    6.9312
    CHARGE:  cpu time    2.2805: real time    2.2958
    --------------------------------------------
      LOOP:  cpu time   26.2150: real time   26.4247

 eigenvalue-minimisations  :     0
 total energy-change (2. order) : 0.9800163E+02  (-0.1124042E+02)
 number of electron     216.0000000 magnetization 
 augmentation part       -0.5092653 magnetization 

 Free energy of the ion-electron system (eV)
  ---------------------------------------------------
  alpha Z        PSCENC =        59.93625244
  Ewald energy   TEWEN  =     29682.55906172
  -Hartree energ DENC   =    -37172.63080952
  -exchange      EXHF   =         0.00000000
  -V(xc)+E(xc)   XCENC  =       676.78101785
  PAW double counting   =    119372.53060019  -119232.94444154
  entropy T*S    EENTRO =        -0.00000000
  eigenvalues    EBANDS =     -2265.49369082
  atomic energy  EATOM  =      8369.52358910
  ---------------------------------------------------
  free energy    TOTEN  =      -509.73842058 eV

  energy without entropy =     -509.73842058  energy(sigma->0) =     -509.73842058


--------------------------------------------------------------------------------------------------------




--------------------------------------- Iteration      1(   7)  ---------------------------------------


    POTLOK:  cpu time    1.2584: real time    1.2654
    SETDIJ:  cpu time    0.1821: real time    0.1827
    TRIAL :  cpu time   15.5820: real time   15.7135
    CORREC:  cpu time    6.8696: real time    6.9256
    CHARGE:  cpu time    2.2885: real time    2.3079
    --------------------------------------------
      LOOP:  cpu time   26.2355: real time   26.4552

 eigenvalue-minimisations  :     0
 total energy-change (2. order) :-0.1125439E+02  (-0.1493282E+01)
 number of electron     216.0000000 magnetization 
 augmentation part       -0.5428174 magnetization 

 Free energy of the ion-electron system (eV)
  ---------------------------------------------------
  alpha Z        PSCENC =        59.93625244
  Ewald energy   TEWEN  =     29682.55906172
  -Hartree energ DENC   =    -36773.33865035
  -exchange      EXHF   =         0.00000000
  -V(xc)+E(xc)   XCENC  =       659.20858653
  PAW double counting   =    138725.98189334  -138584.65838862
  entropy T*S    EENTRO =        -0.00000000
  eigenvalues    EBANDS =     -2660.20515901
  atomic energy  EATOM  =      8369.52358910
  ---------------------------------------------------
  free energy    TOTEN  =      -520.99281485 eV

  energy without entropy =     -520.99281485  energy(sigma->0) =     -520.99281485


--------------------------------------------------------------------------------------------------------




--------------------------------------- Iteration      1(   8)  ---------------------------------------


    POTLOK:  cpu time    1.2590: real time    1.2674
    SETDIJ:  cpu time    0.1720: real time    0.1726
    TRIAL :  cpu time   15.5941: real time   15.7124
    CORREC:  cpu time    6.8925: real time    6.9380
    CHARGE:  cpu time    2.2807: real time    2.2963
    --------------------------------------------
      LOOP:  cpu time   26.2356: real time   26.4372

 eigenvalue-minimisations  :     0
 total energy-change (2. order) :-0.1492849E+01  (-0.4914149E+00)
 number of electron     216.0000000 magnetization 
 augmentation part       -0.5439274 magnetization 

 Free energy of the ion-electron system (eV)
  ---------------------------------------------------
  alpha Z        PSCENC =        59.93625244
  Ewald energy   TEWEN  =     29682.55906172
  -Hartree energ DENC   =    -36742.52573786
  -exchange      EXHF   =         0.00000000
  -V(xc)+E(xc)   XCENC  =       658.10374475
  PAW double counting   =    148329.45327476  -148188.00423683
  entropy T*S    EENTRO =        -0.00000000
  eigenvalues    EBANDS =     -2691.53161159
  atomic energy  EATOM  =      8369.52358910
  ---------------------------------------------------
  free energy    TOTEN  =      -522.48566351 eV

  energy without entropy =     -522.48566351  energy(sigma->0) =     -522.48566351


--------------------------------------------------------------------------------------------------------




--------------------------------------- Iteration      1(   9)  ---------------------------------------


    POTLOK:  cpu time    1.2609: real time    1.2682
    SETDIJ:  cpu time    0.1713: real time    0.1719
    TRIAL :  cpu time   15.5827: real time   15.7160
    CORREC:  cpu time    6.8895: real time    6.9418
    CHARGE:  cpu time    2.2867: real time    2.3032
    --------------------------------------------
      LOOP:  cpu time   26.2516: real time   26.4807

 eigenvalue-minimisations  :     0
 total energy-change (2. order) :-0.4910410E+00  (-0.2005930E+00)
 number of electron     216.0000000 magnetization 
 augmentation part       -0.5405306 magnetization 

 Free energy of the ion-electron system (eV)
  ---------------------------------------------------
  alpha Z        PSCENC =        59.93625244
  Ewald energy   TEWEN  =     29682.55906172
  -Hartree energ DENC   =    -36748.65317165
  -exchange      EXHF   =         0.00000000
  -V(xc)+E(xc)   XCENC  =       658.03486982
  PAW double counting   =    156425.49252858  -156283.96995550
  entropy T*S    EENTRO =        -0.00000000
  eigenvalues    EBANDS =     -2685.89987900
  atomic energy  EATOM  =      8369.52358910
  ---------------------------------------------------
  free energy    TOTEN  =      -522.97670448 eV

  energy without entropy =     -522.97670448  energy(sigma->0) =     -522.97670448


--------------------------------------------------------------------------------------------------------




--------------------------------------- Iteration      1(  10)  ---------------------------------------


    POTLOK:  cpu time    1.2561: real time    1.2633
    SETDIJ:  cpu time    0.1767: real time    0.1772
    TRIAL :  cpu time   15.5961: real time   15.7153
    CORREC:  cpu time    6.8843: real time    6.9340
    CHARGE:  cpu time    2.2850: real time    2.3028
    --------------------------------------------
      LOOP:  cpu time   26.2588: real time   26.4612

 eigenvalue-minimisations  :     0
 total energy-change (2. order) :-0.2002667E+00  (-0.8832708E-01)
 number of electron     216.0000000 magnetization 
 augmentation part       -0.5346125 magnetization 

 Free energy of the ion-electron system (eV)
  ---------------------------------------------------
  alpha Z        PSCENC =        59.93625244
  Ewald energy   TEWEN  =     29682.55906172
  -Hartree energ DENC   =    -36747.81639730
  -exchange      EXHF   =         0.00000000
  -V(xc)+E(xc)   XCENC  =       657.92986580
  PAW double counting   =    160399.25682410  -160257.68234355
  entropy T*S    EENTRO =        -0.00000000
  eigenvalues    EBANDS =     -2686.88382352
  atomic energy  EATOM  =      8369.52358910
  ---------------------------------------------------
  free energy    TOTEN  =      -523.17697120 eV

  energy without entropy =     -523.17697120  energy(sigma->0) =     -523.17697120


--------------------------------------------------------------------------------------------------------




--------------------------------------- Iteration      1(  11)  ---------------------------------------


    POTLOK:  cpu time    1.2604: real time    1.2676
    SETDIJ:  cpu time    0.1715: real time    0.1721
    TRIAL :  cpu time   15.5974: real time   15.7219
    CORREC:  cpu time    6.8964: real time    6.9451
    CHARGE:  cpu time    2.2919: real time    2.3082
    --------------------------------------------
      LOOP:  cpu time   26.2758: real time   26.4762

 eigenvalue-minimisations  :     0
 total energy-change (2. order) :-0.8813216E-01  (-0.3363345E-01)
 number of electron     216.0000000 magnetization 
 augmentation part       -0.5306607 magnetization 

 Free energy of the ion-electron system (eV)
  ---------------------------------------------------
  alpha Z        PSCENC =        59.93625244
  Ewald energy   TEWEN  =     29682.55906172
  -Hartree energ DENC   =    -36741.85819530
  -exchange      EXHF   =         0.00000000
  -V(xc)+E(xc)   XCENC  =       657.85927607
  PAW double counting   =    160950.68578286  -160809.13253906
  entropy T*S    EENTRO =        -0.00000000
  eigenvalues    EBANDS =     -2692.83833120
  atomic energy  EATOM  =      8369.52358910
  ---------------------------------------------------
  free energy    TOTEN  =      -523.26510336 eV

  energy without entropy =     -523.26510336  energy(sigma->0) =     -523.26510336


--------------------------------------------------------------------------------------------------------




--------------------------------------- Iteration      1(  12)  ---------------------------------------


    POTLOK:  cpu time    1.2592: real time    1.2665
    SETDIJ:  cpu time    0.1765: real time    0.1771
    TRIAL :  cpu time   15.6133: real time   15.7230
    CORREC:  cpu time    6.8919: real time    6.9396
    CHARGE:  cpu time    2.2843: real time    2.2998
    --------------------------------------------
      LOOP:  cpu time   26.2301: real time   26.4237

 eigenvalue-minimisations  :     0
 total energy-change (2. order) :-0.3358247E-01  (-0.1031553E-01)
 number of electron     216.0000000 magnetization 
 augmentation part       -0.5303584 magnetization 

 Free energy of the ion-electron system (eV)
  ---------------------------------------------------
  alpha Z        PSCENC =        59.93625244
  Ewald energy   TEWEN  =     29682.55906172
  -Hartree energ DENC   =    -36737.29965683
  -exchange      EXHF   =         0.00000000
  -V(xc)+E(xc)   XCENC  =       657.78647949
  PAW double counting   =    160260.05868681  -160118.53243657
  entropy T*S    EENTRO =        -0.00000000
  eigenvalues    EBANDS =     -2697.33066199
  atomic energy  EATOM  =      8369.52358910
  ---------------------------------------------------
  free energy    TOTEN  =      -523.29868583 eV

  energy without entropy =     -523.29868583  energy(sigma->0) =     -523.29868583


--------------------------------------------------------------------------------------------------------




--------------------------------------- Iteration      1(  13)  ---------------------------------------


    POTLOK:  cpu time    1.2595: real time    1.2670
    SETDIJ:  cpu time    0.1765: real time    0.1772
    TRIAL :  cpu time   15.6081: real time   15.7232
    CORREC:  cpu time    6.8796: real time    6.9276
    CHARGE:  cpu time    2.2866: real time    2.3026
    --------------------------------------------
      LOOP:  cpu time   26.2432: real time   26.4435

 eigenvalue-minimisations  :     0
 total energy-change (2. order) :-0.1029559E-01  (-0.2858707E-02)
 number of electron     216.0000000 magnetization 
 augmentation part       -0.5308894 magnetization 

 Free energy of the ion-electron system (eV)
  ---------------------------------------------------
  alpha Z        PSCENC =        59.93625244
  Ewald energy   TEWEN  =     29682.55906172
  -Hartree energ DENC   =    -36736.12849920
  -exchange      EXHF   =         0.00000000
  -V(xc)+E(xc)   XCENC  =       657.74169303
  PAW double counting   =    159506.33899437  -159364.81760572
  entropy T*S    EENTRO =        -0.00000000
  eigenvalues    EBANDS =     -2698.46246715
  atomic energy  EATOM  =      8369.52358910
  ---------------------------------------------------
  free energy    TOTEN  =      -523.30898142 eV

  energy without entropy =     -523.30898142  energy(sigma->0) =     -523.30898142


--------------------------------------------------------------------------------------------------------




--------------------------------------- Iteration      1(  14)  ---------------------------------------


    POTLOK:  cpu time    1.2593: real time    1.2672
    SETDIJ:  cpu time    0.1724: real time    0.1730
    TRIAL :  cpu time   15.5653: real time   15.7152
    CORREC:  cpu time    6.8856: real time    6.9424
    CHARGE:  cpu time    2.2785: real time    2.2999
    --------------------------------------------
      LOOP:  cpu time   26.2447: real time   26.4855

 eigenvalue-minimisations  :     0
 total energy-change (2. order) :-0.2847207E-02  (-0.7967211E-03)
 number of electron     216.0000000 magnetization 
 augmentation part       -0.5311986 magnetization 

 Free energy of the ion-electron system (eV)
  ---------------------------------------------------
  alpha Z        PSCENC =        59.93625244
  Ewald energy   TEWEN  =     29682.55906172
  -Hartree energ DENC   =    -36736.27048116
  -exchange      EXHF   =         0.00000000
  -V(xc)+E(xc)   XCENC  =       657.73013583
  PAW double counting   =    159069.25735347  -158927.73445822
  entropy T*S    EENTRO =        -0.00000000
  eigenvalues    EBANDS =     -2698.31328180
  atomic energy  EATOM  =      8369.52358910
  ---------------------------------------------------
  free energy    TOTEN  =      -523.31182863 eV

  energy without entropy =     -523.31182863  energy(sigma->0) =     -523.31182863


--------------------------------------------------------------------------------------------------------




--------------------------------------- Iteration      1(  15)  ---------------------------------------


    POTLOK:  cpu time    1.2720: real time    1.2809
    SETDIJ:  cpu time    0.1585: real time    0.1591
    TRIAL :  cpu time   15.5747: real time   15.7125
    CORREC:  cpu time    6.8944: real time    6.9476
    CHARGE:  cpu time    2.2837: real time    2.3000
    --------------------------------------------
      LOOP:  cpu time   26.2369: real time   26.4806

 eigenvalue-minimisations  :     0
 total energy-change (2. order) :-0.7916582E-03  (-0.2518494E-03)
 number of electron     216.0000000 magnetization 
 augmentation part       -0.5314290 magnetization 

 Free energy of the ion-electron system (eV)
  ---------------------------------------------------
  alpha Z        PSCENC =        59.93625244
  Ewald energy   TEWEN  =     29682.55906172
  -Hartree energ DENC   =    -36736.20996629
  -exchange      EXHF   =         0.00000000
  -V(xc)+E(xc)   XCENC  =       657.72418688
  PAW double counting   =    158856.99097069  -158715.46677771
  entropy T*S    EENTRO =        -0.00000000
  eigenvalues    EBANDS =     -2698.36993712
  atomic energy  EATOM  =      8369.52358910
  ---------------------------------------------------
  free energy    TOTEN  =      -523.31262029 eV

  energy without entropy =     -523.31262029  energy(sigma->0) =     -523.31262029


--------------------------------------------------------------------------------------------------------




--------------------------------------- Iteration      1(  16)  ---------------------------------------


    POTLOK:  cpu time    1.2592: real time    1.2665
    SETDIJ:  cpu time    0.1742: real time    0.1748
    TRIAL :  cpu time   15.5935: real time   15.7119
    CORREC:  cpu time    6.8867: real time    6.9351
    CHARGE:  cpu time    2.2853: real time    2.3016
    --------------------------------------------
      LOOP:  cpu time   26.2612: real time   26.4563

 eigenvalue-minimisations  :     0
 total energy-change (2. order) :-0.2492719E-03  (-0.9302571E-04)
 number of electron     216.0000000 magnetization 
 augmentation part       -0.5315367 magnetization 

 Free energy of the ion-electron system (eV)
  ---------------------------------------------------
  alpha Z        PSCENC =        59.93625244
  Ewald energy   TEWEN  =     29682.55906172
  -Hartree energ DENC   =    -36736.13676640
  -exchange      EXHF   =         0.00000000
  -V(xc)+E(xc)   XCENC  =       657.71902022
  PAW double counting   =    158734.37347841  -158592.84760521
  entropy T*S    EENTRO =        -0.00000000
  eigenvalues    EBANDS =     -2698.43989984
  atomic energy  EATOM  =      8369.52358910
  ---------------------------------------------------
  free energy    TOTEN  =      -523.31286956 eV

  energy without entropy =     -523.31286956  energy(sigma->0) =     -523.31286956


--------------------------------------------------------------------------------------------------------




--------------------------------------- Iteration      1(  17)  ---------------------------------------


    POTLOK:  cpu time    1.2583: real time    1.2653
    SETDIJ:  cpu time    0.1747: real time    0.1753
    TRIAL :  cpu time   15.5799: real time   15.6938
    CORREC:  cpu time    6.8816: real time    6.9269
    CHARGE:  cpu time    2.2844: real time    2.3002
    --------------------------------------------
      LOOP:  cpu time   26.2265: real time   26.4246

 eigenvalue-minimisations  :     0
 total energy-change (2. order) :-0.9156810E-04  (-0.3879024E-04)
 number of electron     216.0000000 magnetization 
 augmentation part       -0.5315796 magnetization 

 Free energy of the ion-electron system (eV)
  ---------------------------------------------------
  alpha Z        PSCENC =        59.93625244
  Ewald energy   TEWEN  =     29682.55906172
  -Hartree energ DENC   =    -36736.31112651
  -exchange      EXHF   =         0.00000000
  -V(xc)+E(xc)   XCENC  =       657.72612421
  PAW double counting   =    158660.03776269  -158518.51172428
  entropy T*S    EENTRO =        -0.00000000
  eigenvalues    EBANDS =     -2698.27290050
  atomic energy  EATOM  =      8369.52358910
  ---------------------------------------------------
  free energy    TOTEN  =      -523.31296113 eV

  energy without entropy =     -523.31296113  energy(sigma->0) =     -523.31296113


--------------------------------------------------------------------------------------------------------




--------------------------------------- Iteration      1(  18)  ---------------------------------------


    POTLOK:  cpu time    1.2588: real time    1.2661
    SETDIJ:  cpu time    0.1759: real time    0.1765
    TRIAL :  cpu time   15.6047: real time   15.7223
    CORREC:  cpu time    6.8861: real time    6.9400
    CHARGE:  cpu time    2.2837: real time    2.2999
    --------------------------------------------
      LOOP:  cpu time   26.2719: real time   26.4689

 eigenvalue-minimisations  :     0
 total energy-change (2. order) :-0.3906499E-04  (-0.1480178E-04)
 number of electron     216.0000000 magnetization 
 augmentation part       -0.5315978 magnetization 

 Free energy of the ion-electron system (eV)
  ---------------------------------------------------
  alpha Z        PSCENC =        59.93625244
  Ewald energy   TEWEN  =     29682.55906172
  -Hartree energ DENC   =    -36736.37856794
  -exchange      EXHF   =         0.00000000
  -V(xc)+E(xc)   XCENC  =       657.72876536
  PAW double counting   =    158636.17311522  -158494.64680735
  entropy T*S    EENTRO =        -0.00000000
  eigenvalues    EBANDS =     -2698.20840875
  atomic energy  EATOM  =      8369.52358910
  ---------------------------------------------------
  free energy    TOTEN  =      -523.31300019 eV

  energy without entropy =     -523.31300019  energy(sigma->0) =     -523.31300019


--------------------------------------------------------------------------------------------------------




--------------------------------------- Iteration      1(  19)  ---------------------------------------


    POTLOK:  cpu time    1.2631: real time    1.2704
    SETDIJ:  cpu time    0.1703: real time    0.1708
    TRIAL :  cpu time   15.5926: real time   15.7141
    CORREC:  cpu time    6.8877: real time    6.9362
    CHARGE:  cpu time    2.2804: real time    2.2984
    --------------------------------------------
      LOOP:  cpu time   26.2492: real time   26.4512

 eigenvalue-minimisations  :     0
 total energy-change (2. order) :-0.1530035E-04  (-0.5451288E-05)
 number of electron     216.0000000 magnetization 
 augmentation part       -0.5315908 magnetization 

 Free energy of the ion-electron system (eV)
  ---------------------------------------------------
  alpha Z        PSCENC =        59.93625244
  Ewald energy   TEWEN  =     29682.55906172
  -Hartree energ DENC   =    -36736.37263601
  -exchange      EXHF   =         0.00000000
  -V(xc)+E(xc)   XCENC  =       657.72828251
  PAW double counting   =    158645.57055875  -158504.04398040
  entropy T*S    EENTRO =        -0.00000000
  eigenvalues    EBANDS =     -2698.21414360
  atomic energy  EATOM  =      8369.52358910
  ---------------------------------------------------
  free energy    TOTEN  =      -523.31301549 eV

  energy without entropy =     -523.31301549  energy(sigma->0) =     -523.31301549


--------------------------------------------------------------------------------------------------------




--------------------------------------- Iteration      1(  20)  ---------------------------------------


    POTLOK:  cpu time    1.2599: real time    1.2673
    SETDIJ:  cpu time    0.1758: real time    0.1764
    TRIAL :  cpu time   15.6121: real time   15.7261
    CORREC:  cpu time    6.8829: real time    6.9308
    CHARGE:  cpu time    2.2845: real time    2.3030
    --------------------------------------------
      LOOP:  cpu time   26.2457: real time   26.4366

 eigenvalue-minimisations  :     0
 total energy-change (2. order) :-0.5637063E-05  (-0.1938385E-05)
 number of electron     216.0000000 magnetization 
 augmentation part       -0.5315809 magnetization 

 Free energy of the ion-electron system (eV)
  ---------------------------------------------------
  alpha Z        PSCENC =        59.93625244
  Ewald energy   TEWEN  =     29682.55906172
  -Hartree energ DENC   =    -36736.39504166
  -exchange      EXHF   =         0.00000000
  -V(xc)+E(xc)   XCENC  =       657.72921117
  PAW double counting   =    158661.59893085  -158520.07244759
  entropy T*S    EENTRO =        -0.00000000
  eigenvalues    EBANDS =     -2698.19257716
  atomic energy  EATOM  =      8369.52358910
  ---------------------------------------------------
  free energy    TOTEN  =      -523.31302113 eV

  energy without entropy =     -523.31302113  energy(sigma->0) =     -523.31302113


--------------------------------------------------------------------------------------------------------




--------------------------------------- Iteration      1(  21)  ---------------------------------------


    POTLOK:  cpu time    1.2604: real time    1.2680
    SETDIJ:  cpu time    0.1755: real time    0.1761
    TRIAL :  cpu time   15.5993: real time   15.7116
    CORREC:  cpu time    6.9002: real time    6.9509
    CHARGE:  cpu time    2.2863: real time    2.3047
    --------------------------------------------
      LOOP:  cpu time   26.2434: real time   26.4378

 eigenvalue-minimisations  :     0
 total energy-change (2. order) :-0.1997221E-05  (-0.7069764E-06)
 number of electron     216.0000000 magnetization 
 augmentation part       -0.5315664 magnetization 

 Free energy of the ion-electron system (eV)
  ---------------------------------------------------
  alpha Z        PSCENC =        59.93625244
  Ewald energy   TEWEN  =     29682.55906172
  -Hartree energ DENC   =    -36736.39848785
  -exchange      EXHF   =         0.00000000
  -V(xc)+E(xc)   XCENC  =       657.72914647
  PAW double counting   =    158673.58887121  -158532.06244184
  entropy T*S    EENTRO =        -0.00000000
  eigenvalues    EBANDS =     -2698.18901439
  atomic energy  EATOM  =      8369.52358910
  ---------------------------------------------------
  free energy    TOTEN  =      -523.31302313 eV

  energy without entropy =     -523.31302313  energy(sigma->0) =     -523.31302313


--------------------------------------------------------------------------------------------------------




--------------------------------------- Iteration      1(  22)  ---------------------------------------


    POTLOK:  cpu time    1.2571: real time    1.2647
    SETDIJ:  cpu time    0.1794: real time    0.1801
    TRIAL :  cpu time   15.5949: real time   15.7068
    CORREC:  cpu time    6.8917: real time    6.9379
    CHARGE:  cpu time    2.2819: real time    2.2993
    --------------------------------------------
      LOOP:  cpu time   26.2156: real time   26.4206

 eigenvalue-minimisations  :     0
 total energy-change (2. order) :-0.7196504E-06  (-0.3061775E-06)
 number of electron     216.0000000 magnetization 
 augmentation part       -0.5315566 magnetization 

 Free energy of the ion-electron system (eV)
  ---------------------------------------------------
  alpha Z        PSCENC =        59.93625244
  Ewald energy   TEWEN  =     29682.55906172
  -Hartree energ DENC   =    -36736.39359106
  -exchange      EXHF   =         0.00000000
  -V(xc)+E(xc)   XCENC  =       657.72896215
  PAW double counting   =    158680.07587201  -158538.54952944
  entropy T*S    EENTRO =        -0.00000000
  eigenvalues    EBANDS =     -2698.19364076
  atomic energy  EATOM  =      8369.52358910
  ---------------------------------------------------
  free energy    TOTEN  =      -523.31302385 eV

  energy without entropy =     -523.31302385  energy(sigma->0) =     -523.31302385


--------------------------------------------------------------------------------------------------------




--------------------------------------- Iteration      1(  23)  ---------------------------------------


    POTLOK:  cpu time    1.2644: real time    1.2713
    SETDIJ:  cpu time    0.1709: real time    0.1715
    TRIAL :  cpu time   15.6010: real time   15.7149
    CORREC:  cpu time    6.8887: real time    6.9340
    CHARGE:  cpu time    2.2728: real time    2.2933
    --------------------------------------------
      LOOP:  cpu time   26.2335: real time   26.4260

 eigenvalue-minimisations  :     0
 total energy-change (2. order) :-0.2871384E-06  (-0.1803333E-06)
 number of electron     216.0000000 magnetization 
 augmentation part       -0.5315554 magnetization 

 Free energy of the ion-electron system (eV)
  ---------------------------------------------------
  alpha Z        PSCENC =        59.93625244
  Ewald energy   TEWEN  =     29682.55906172
  -Hartree energ DENC   =    -36736.38984581
  -exchange      EXHF   =         0.00000000
  -V(xc)+E(xc)   XCENC  =       657.72887166
  PAW double counting   =    158683.35318902  -158541.82690993
  entropy T*S    EENTRO =        -0.00000000
  eigenvalues    EBANDS =     -2698.19723233
  atomic energy  EATOM  =      8369.52358910
  ---------------------------------------------------
  free energy    TOTEN  =      -523.31302413 eV

  energy without entropy =     -523.31302413  energy(sigma->0) =     -523.31302413


--------------------------------------------------------------------------------------------------------




--------------------------------------- Iteration      1(  24)  ---------------------------------------


    POTLOK:  cpu time    1.2567: real time    1.2640
    SETDIJ:  cpu time    0.1761: real time    0.1766
    TRIAL :  cpu time   15.6006: real time   15.7169
    CORREC:  cpu time    6.8820: real time    6.9294
    CHARGE:  cpu time    2.2842: real time    2.3020
    --------------------------------------------
      LOOP:  cpu time   26.2759: real time   26.4709

 eigenvalue-minimisations  :     0
 total energy-change (2. order) :-0.8320785E-07  (-0.1222127E-06)
 number of electron     216.0000000 magnetization 
 augmentation part       -0.5315562 magnetization 

 Free energy of the ion-electron system (eV)
  ---------------------------------------------------
  alpha Z        PSCENC =        59.93625244
  Ewald energy   TEWEN  =     29682.55906172
  -Hartree energ DENC   =    -36736.38398904
  -exchange      EXHF   =         0.00000000
  -V(xc)+E(xc)   XCENC  =       657.72867310
  PAW double counting   =    158685.47161106  -158543.94534148
  entropy T*S    EENTRO =        -0.00000000
  eigenvalues    EBANDS =     -2698.20288112
  atomic energy  EATOM  =      8369.52358910
  ---------------------------------------------------
  free energy    TOTEN  =      -523.31302422 eV

  energy without entropy =     -523.31302422  energy(sigma->0) =     -523.31302422


--------------------------------------------------------------------------------------------------------




--------------------------------------- Iteration      1(  25)  ---------------------------------------


    POTLOK:  cpu time    1.2589: real time    1.2662
    SETDIJ:  cpu time    0.1769: real time    0.1775
    TRIAL :  cpu time   15.6107: real time   15.7250
    CORREC:  cpu time    6.8847: real time    6.9316
    EDDIAG:  cpu time    3.2187: real time    3.2418
    CHARGE:  cpu time    2.2792: real time    2.2951
    --------------------------------------------
      LOOP:  cpu time   29.4956: real time   29.7076

 eigenvalue-minimisations  :     0
 total energy-change (2. order) :-0.4103640E-07  (-0.7397013E-07)
 number of electron     216.0000000 magnetization 
 augmentation part       -0.5315602 magnetization 

 Free energy of the ion-electron system (eV)
  ---------------------------------------------------
  alpha Z        PSCENC =        59.93625244
  Ewald energy   TEWEN  =     29682.55906172
  -Hartree energ DENC   =    -36736.38698250
  -exchange      EXHF   =         0.00000000
  -V(xc)+E(xc)   XCENC  =       657.72888807
  PAW double counting   =    158684.80181919  -158543.27557275
  entropy T*S    EENTRO =        -0.00000000
  eigenvalues    EBANDS =     -2698.20007953
  atomic energy  EATOM  =      8369.52358910
  ---------------------------------------------------
  free energy    TOTEN  =      -523.31302426 eV

  energy without entropy =     -523.31302426  energy(sigma->0) =     -523.31302426


--------------------------------------------------------------------------------------------------------


  average scaling for gradient   0.8917


 average (electrostatic) potential at core
  the test charge radii are     0.5770  0.5955
  (the norm of the test charge is              1.0000)
       1 -87.6320       2 -87.6315       3 -87.6320       4 -87.6325       5 -87.6308
       6 -87.6307       7 -87.6319       8 -87.6309       9 -87.6312      10 -87.6314
      11 -87.6307      12 -87.6307      13 -87.6314      14 -87.6311      15 -87.6306
      16 -87.6308      17 -87.6312      18 -87.6316      19 -87.6318      20 -87.6313
      21 -87.6306      22 -87.6305      23 -87.6328      24 -87.6327      25 -87.6305
      26 -87.6307      27 -87.6312      28 -87.6320      29 -87.6305      30 -87.6305
      31 -87.6321      32 -87.6317      33 -87.6309      34 -87.6308      35 -87.6308
      36 -87.6309      37 -87.6314      38 -87.6317      39 -87.6316      40 -87.6316
      41 -87.6316      42 -87.6317      43 -87.6313      44 -87.6319      45 -87.6306
      46 -87.6307      47 -87.6307      48 -87.6307      49 -87.6317      50 -87.6314
      51 -91.5281      52-123.9114      53-123.9107
 
 
 
 E-fermi :  -4.0376     XC(G=0):  -2.3564     alpha+bet : -2.1113

 Fermi energy:        -4.0375978012

 k-point     1 :       0.0000    0.0000    0.0000
  band No.  band energies     occupation 
      1     -28.8080      2.00000
      2     -27.6994      2.00000
      3     -23.3379      2.00000
      4     -22.3457      2.00000
      5     -22.3443      2.00000
      6     -22.3440      2.00000
      7     -22.3438      2.00000
      8     -22.3438      2.00000
      9     -22.3432      2.00000
     10     -20.3985      2.00000
     11     -20.3985      2.00000
     12     -20.3982      2.00000
     13     -20.3975      2.00000
     14     -20.3970      2.00000
     15     -20.3968      2.00000
     16     -19.4558      2.00000
     17     -19.4556      2.00000
     18     -19.4551      2.00000
     19     -19.4549      2.00000
     20     -19.4541      2.00000
     21     -19.4538      2.00000
     22     -17.2152      2.00000
     23     -17.2148      2.00000
     24     -17.2141      2.00000
     25     -17.2139      2.00000
     26     -17.2133      2.00000
     27     -17.2132      2.00000
     28     -16.0468      2.00000
     29     -16.0468      2.00000
     30     -16.0457      2.00000
     31     -16.0456      2.00000
     32     -16.0452      2.00000
     33     -16.0451      2.00000
     34     -14.6399      2.00000
     35     -14.6398      2.00000
     36     -14.6391      2.00000
     37     -14.6390      2.00000
     38     -14.6389      2.00000
     39     -14.6386      2.00000
     40     -12.8685      2.00000
     41     -12.1481      2.00000
     42     -12.1478      2.00000
     43     -12.1473      2.00000
     44     -12.1472      2.00000
     45     -12.1461      2.00000
     46     -12.1458      2.00000
     47     -11.9405      2.00000
     48     -11.9404      2.00000
     49     -11.9396      2.00000
     50     -11.9396      2.00000
     51     -11.9395      2.00000
     52     -11.9393      2.00000
     53     -11.5233      2.00000
     54     -11.3282      2.00000
     55     -11.3281      2.00000
     56     -10.6314      2.00000
     57     -10.4780      2.00000
     58     -10.4778      2.00000
     59     -10.4762      2.00000
     60     -10.4758      2.00000
     61     -10.4756      2.00000
     62     -10.4755      2.00000
     63      -9.4548      2.00000
     64      -9.4538      2.00000
     65      -9.4536      2.00000
     66      -9.4532      2.00000
     67      -9.4530      2.00000
     68      -9.4529      2.00000
     69      -9.1463      2.00000
     70      -9.1453      2.00000
     71      -9.1449      2.00000
     72      -9.1448      2.00000
     73      -9.1444      2.00000
     74      -9.1442      2.00000
     75      -9.1398      2.00000
     76      -9.1395      2.00000
     77      -9.1387      2.00000
     78      -9.1385      2.00000
     79      -9.1384      2.00000
     80      -9.1377      2.00000
     81      -7.6906      2.00000
     82      -7.6905      2.00000
     83      -7.4014      2.00000
     84      -7.3996      2.00000
     85      -7.3994      2.00000
     86      -7.3990      2.00000
     87      -7.3981      2.00000
     88      -7.3980      2.00000
     89      -7.2067      2.00000
     90      -7.2064      2.00000
     91      -7.2063      2.00000
     92      -7.2058      2.00000
     93      -7.2054      2.00000
     94      -7.2052      2.00000
     95      -6.2612      2.00000
     96      -6.2612      2.00000
     97      -6.2608      2.00000
     98      -6.2607      2.00000
     99      -6.2600      2.00000
    100      -6.2598      2.00000
    101      -5.8292      2.00000
    102      -5.8269      2.00000
    103      -4.1617      2.00000
    104      -4.1613      2.00000
    105      -4.1608      2.00000
    106      -4.1607      2.00000
    107      -4.1601      2.00000
    108      -4.1600      2.00000
    109      -1.1679      0.00000
    110      -1.1677      0.00000
    111      -1.1674      0.00000
    112      -1.1672      0.00000
    113      -1.1665      0.00000
    114      -1.1662      0.00000
    115       0.8240      0.00000
    116       0.8243      0.00000
    117       0.8247      0.00000
    118       0.8248      0.00000
    119       0.8250      0.00000
    120       0.8264      0.00000
    121       1.0471      0.00000
    122       1.3583      0.00000
    123       1.5308      0.00000
    124       1.5315      0.00000
    125       1.8240      0.00000
    126       2.2861      0.00000
    127       2.3728      0.00000
    128       2.3850      0.00000
    129       2.3905      0.00000
    130       2.3946      0.00000
    131       2.3960      0.00000
    132       2.4890      0.00000
    133       2.6913      0.00000
    134       2.6914      0.00000
    135       2.6919      0.00000
    136       2.6922      0.00000
    137       2.6928      0.00000
    138       2.6935      0.00000
    139       2.9770      0.00000
    140       3.0091      0.00000
    141       3.0706      0.00000
    142       3.1059      0.00000
    143       3.1229      0.00000
    144       3.1259      0.00000
    145       3.1309      0.00000
    146       3.1375      0.00000
    147       3.2207      0.00000
    148       3.2442      0.00000
    149       3.2653      0.00000
    150       3.3144      0.00000
    151       3.3353      0.00000
    152       4.3014      0.00000
    153       4.7831      0.00000
    154       4.8072      0.00000
    155       4.9016      0.00000
    156       4.9403      0.00000
    157       5.0263      0.00000
    158       5.0639      0.00000
    159       5.1855      0.00000
    160       5.2135      0.00000
    161       5.2161      0.00000
    162       5.2208      0.00000
    163       5.2217      0.00000
    164       5.2218      0.00000
    165       5.2231      0.00000
    166       5.2288      0.00000
    167       5.2571      0.00000
    168       5.3037      0.00000


--------------------------------------------------------------------------------------------------------


 soft charge-density along one line, spin component           1
         0         1         2         3         4         5         6         7         8         9
 total charge-density along one line
 
 pseudopotential strength for first ion, spin component:           1
 12.626  21.244   0.000   0.000   0.000   0.000   0.000   0.000
 21.244  35.745   0.000   0.000   0.000   0.000   0.000   0.000
  0.000   0.000  -3.230  -0.000   0.000  -5.784   0.000   0.000
  0.000   0.000  -0.000  -3.230  -0.000   0.000  -5.784  -0.000
  0.000   0.000   0.000  -0.000  -3.230   0.000  -0.000  -5.784
  0.000   0.000  -5.784   0.000   0.000 -10.336   0.000   0.000
  0.000   0.000   0.000  -5.784  -0.000   0.000 -10.335  -0.000
  0.000   0.000   0.000  -0.000  -5.784   0.000  -0.000 -10.336
 total augmentation occupancy for first ion, spin component:           1
 10.264  -3.894  -0.000  -0.002  -0.000   0.000   0.001   0.000
 -3.894   1.507   0.000   0.001   0.000  -0.000  -0.000  -0.000
 -0.000   0.000   8.469  -0.009   0.000  -3.024   0.003  -0.000
 -0.002   0.001  -0.009   4.016  -0.000   0.003  -1.207   0.000
 -0.000   0.000   0.000  -0.000   8.468  -0.000   0.000  -3.024
  0.000  -0.000  -3.024   0.003  -0.000   1.093  -0.001   0.000
  0.001  -0.000   0.003  -1.207   0.000  -0.001   0.368  -0.000
  0.000  -0.000  -0.000   0.000  -3.024   0.000  -0.000   1.093


------------------------ aborting loop because EDIFF is reached ----------------------------------------


    FORLOC:  cpu time    0.1045: real time    0.1054
    FORNL :  cpu time    2.9733: real time    2.9962
    FORCOR:  cpu time    1.2769: real time    1.2843
    OFIELD:  cpu time    0.0024: real time    0.0024
 WARNING: Using user supplied parameters
     VDW_A1 = 0.495
     VDW_A2 = 5.731
     VDW_S8 = 0.79
     because the xc functional is not supported. Required parameters not
     defined in the INCAR file will be replaced with PBE defaults ones.


 ---------------------------------------------------------------------------------------------

         DFTD3 V3.0 Rev 1        
 IVDW         = 12
 DF unknown   
 parameters
 VDW_S6       =    1.0000
 VDW_S8       =    0.7898
 VDW_A1       =    0.4948
 VDW_A2       =    5.7308
 k1-k3        =   16.0000    1.3333   -4.0000
 VDW_RADIUS   =   50.2022 A
 VDW_CNRADIUS =   21.1671 A
 Edisp (eV)   -1.69465

 E6    (eV) :    -1.3088
 E8    (eV) :    -0.3858
 % E8        : 22.77
    FORVDW:  cpu time    0.1550: real time    0.1567

 VOLUME and BASIS-vectors are now :
 -----------------------------------------------------------------------------
  energy-cutoff  :     1000.00
  volume of cell :     2631.08
      direct lattice vectors                 reciprocal lattice vectors
    12.325000000  0.000000000  0.000000000     0.081135903  0.046843835  0.000000000
    -6.162500000 10.673763102  0.000000000     0.000000000  0.093687670  0.000000000
     0.000000000  0.000000000 20.000000000     0.000000000  0.000000000  0.050000000

  length of vectors
    12.325000000 12.325000000 20.000000000     0.093687670  0.093687670  0.050000000


 FORCES acting on ions:
    Electron-Ion                     Ewald-Force                    Non-Local-Force
 -----------------------------------------------------------------------------------------------
   0.905E+00 0.795E+00 0.828E+01   -.906E+00 -.796E+00 -.829E+01   0.477E-02 -.759E-03 0.625E-02
   0.124E+01 0.661E+00 0.935E+01   -.125E+01 -.658E+00 -.935E+01   0.321E-02 -.334E-02 -.592E-02
   0.499E+00 0.136E+01 0.942E+01   -.501E+00 -.136E+01 -.942E+01   -.362E-03 0.116E-01 -.154E-02
   0.625E+00 0.906E+00 0.117E+02   -.623E+00 -.905E+00 -.117E+02   0.118E-01 0.556E-03 -.167E-01
   0.994E+00 0.255E+00 0.871E+01   -.993E+00 -.256E+00 -.871E+01   -.364E-03 -.543E-02 0.387E-02
   0.101E+01 -.226E+00 0.888E+01   -.102E+01 0.228E+00 -.887E+01   -.634E-02 0.323E-02 -.230E-02
   0.120E+01 0.500E+00 0.117E+02   -.120E+01 -.500E+00 -.117E+02   0.120E-01 -.194E-01 -.701E-02
   0.121E+01 -.397E+00 0.129E+02   -.122E+01 0.400E+00 -.129E+02   -.691E-02 -.562E-02 -.607E-02
   -.598E+00 0.131E+01 0.983E+01   0.602E+00 -.131E+01 -.983E+01   -.312E-03 -.130E-01 -.515E-02
   -.783E+00 0.680E+00 0.120E+02   0.785E+00 -.681E+00 -.120E+02   -.260E-01 0.149E-01 0.248E-02
   0.262E+00 -.276E+00 0.797E+01   -.259E+00 0.275E+00 -.797E+01   0.388E-02 -.266E-02 0.787E-03
   0.255E+00 -.213E+00 0.776E+01   -.255E+00 0.214E+00 -.776E+01   -.685E-02 0.335E-02 0.691E-02
   0.377E+00 -.959E+00 0.137E+02   -.378E+00 0.961E+00 -.137E+02   0.267E-01 -.781E-02 -.252E-02
   0.239E+00 -.144E+01 0.110E+02   -.243E+00 0.144E+01 -.109E+02   0.383E-02 0.668E-02 -.168E-01
   -.933E+00 0.560E+00 0.831E+01   0.935E+00 -.562E+00 -.832E+01   0.735E-02 -.406E-02 0.828E-02
   -.119E+01 0.333E+00 0.854E+01   0.119E+01 -.333E+00 -.854E+01   -.156E-02 0.522E-02 -.432E-02
   -.170E+00 -.693E-01 0.734E+01   0.174E+00 0.673E-01 -.735E+01   -.190E-03 0.565E-03 0.243E-02
   0.772E-01 0.584E+00 0.745E+01   -.765E-01 -.584E+00 -.746E+01   -.307E-02 0.169E-02 0.976E-02
   -.241E+00 -.138E+01 0.951E+01   0.241E+00 0.138E+01 -.951E+01   0.602E-02 -.161E-02 0.268E-03
   -.144E+00 -.853E+00 0.815E+01   0.141E+00 0.854E+00 -.815E+01   0.163E-03 -.901E-03 -.496E-03
   0.129E+01 -.553E+00 0.103E+02   -.129E+01 0.553E+00 -.102E+02   -.176E-02 -.223E-02 -.167E-01
   0.924E+00 -.739E+00 0.934E+01   -.927E+00 0.741E+00 -.934E+01   -.680E-02 0.526E-02 -.168E-02
   -.215E+00 0.380E+00 0.136E+02   0.212E+00 -.378E+00 -.136E+02   -.105E-01 0.104E-01 0.537E-05
   -.309E+00 -.605E+00 0.136E+02   0.311E+00 0.603E+00 -.136E+02   0.122E-01 -.150E-01 -.121E-01
   0.504E+00 -.182E+00 0.805E+01   -.502E+00 0.180E+00 -.805E+01   0.364E-02 -.257E-02 -.236E-02
   0.146E+00 0.433E+00 0.790E+01   -.146E+00 -.432E+00 -.791E+01   -.521E-02 0.343E-02 0.644E-02
   -.141E+01 0.146E+00 0.103E+02   0.142E+01 -.148E+00 -.103E+02   0.117E-01 0.784E-02 -.271E-02
   -.132E+01 -.543E+00 0.967E+01   0.132E+01 0.543E+00 -.968E+01   -.863E-02 0.912E-02 0.560E-03
   0.507E+00 -.105E+01 0.949E+01   -.506E+00 0.105E+01 -.948E+01   0.428E-02 0.227E-02 -.637E-02
   0.455E-01 -.463E+00 0.833E+01   -.478E-01 0.465E+00 -.833E+01   -.476E-02 0.244E-02 -.158E-02
   -.936E+00 -.942E+00 0.107E+02   0.935E+00 0.943E+00 -.107E+02   -.119E-01 -.790E-02 -.144E-01
   -.691E+00 -.131E+01 0.931E+01   0.693E+00 0.131E+01 -.931E+01   0.782E-03 -.100E-02 0.159E-02
   0.543E-01 0.290E+00 0.764E+01   -.544E-01 -.290E+00 -.765E+01   0.511E-02 -.472E-02 0.793E-02
   0.164E+00 0.257E+00 0.783E+01   -.168E+00 -.257E+00 -.783E+01   -.227E-02 0.457E-02 -.338E-03
   -.629E+00 0.118E+00 0.801E+01   0.632E+00 -.119E+00 -.802E+01   0.420E-02 -.247E-02 0.686E-02
   -.556E+00 -.259E+00 0.794E+01   0.556E+00 0.259E+00 -.794E+01   -.387E-02 0.226E-02 0.464E-02
   -.104E+01 -.570E+00 0.821E+01   0.105E+01 0.567E+00 -.822E+01   -.874E-03 0.110E-02 0.362E-02
   -.698E+00 -.561E+00 0.776E+01   0.700E+00 0.562E+00 -.777E+01   -.388E-02 0.132E-02 0.946E-02
   -.636E+00 -.803E+00 0.797E+01   0.636E+00 0.805E+00 -.798E+01   -.293E-02 0.518E-03 0.483E-02
   -.935E-01 -.226E+00 0.757E+01   0.945E-01 0.226E+00 -.758E+01   0.199E-02 0.734E-03 0.750E-02
   0.243E+00 0.604E+00 0.754E+01   -.244E+00 -.605E+00 -.755E+01   -.399E-02 0.176E-02 0.715E-02
   0.727E+00 0.110E+01 0.825E+01   -.726E+00 -.110E+01 -.826E+01   -.721E-03 -.971E-03 0.754E-02
   0.844E-01 0.993E+00 0.778E+01   -.809E-01 -.995E+00 -.778E+01   -.243E-03 0.706E-03 0.272E-02
   -.481E-03 0.143E+01 0.896E+01   0.145E-02 -.143E+01 -.897E+01   -.819E-02 0.179E-02 0.515E-02
   -.193E+00 0.356E+00 0.808E+01   0.195E+00 -.359E+00 -.809E+01   0.401E-02 -.307E-02 0.244E-02
   -.686E+00 0.869E+00 0.854E+01   0.686E+00 -.869E+00 -.854E+01   -.603E-02 0.226E-03 -.651E-03
   -.203E+00 -.441E+00 0.805E+01   0.203E+00 0.441E+00 -.806E+01   0.614E-02 -.130E-02 0.684E-02
   -.401E+00 0.139E+00 0.764E+01   0.399E+00 -.139E+00 -.764E+01   -.353E-02 0.334E-02 -.229E-02
   0.380E-01 -.269E+00 0.764E+01   -.384E-01 0.269E+00 -.764E+01   0.428E-02 -.307E-02 0.611E-02
   0.430E+00 0.308E+00 0.761E+01   -.433E+00 -.306E+00 -.761E+01   -.118E-03 0.172E-02 0.361E-02
   -.201E-02 0.271E-01 -.113E+03   -.232E-02 -.231E-01 0.113E+03   -.280E-02 0.176E-02 -.105E-02
   -.228E+03 0.155E+03 -.181E+03   0.279E+03 -.190E+03 0.185E+03   -.523E+02 0.356E+02 -.351E+01
   0.228E+03 -.155E+03 -.162E+03   -.279E+03 0.190E+03 0.158E+03   0.523E+02 -.356E+02 0.316E+01
 -----------------------------------------------------------------------------------------------
   -.787E-02 0.146E-01 0.357E+00   0.000E+00 0.284E-13 0.284E-13   0.785E-02 -.147E-01 -.348E+00
 
 
 POSITION                                       TOTAL-FORCE (eV/Angst)
 -----------------------------------------------------------------------------------
     11.98348      0.00342      0.01417         0.003479     -0.001914     -0.001405
     -0.34154      1.42665      0.01100        -0.000870     -0.000103     -0.003651
      2.12355      0.00315      0.01249        -0.002251      0.010980     -0.007195
      2.12326      1.42653      0.00641         0.014094      0.000996     -0.008528
     10.75099      2.13819      0.01213         0.000905     -0.005860     -0.000135
     -1.57382      3.56123      0.01110        -0.009418      0.004499     -0.001466
      0.89078      2.13854      0.00548         0.009875     -0.019725      0.002967
      0.89099      3.56147      0.00181        -0.012052     -0.002718      0.013493
      4.58864      0.00346      0.01135         0.003545     -0.016276     -0.003838
      4.58894      1.42623      0.00646        -0.023992      0.013601      0.015343
      9.51854      4.27281      0.01369         0.007041     -0.002894      0.000114
     -2.80632      5.69591      0.01434        -0.007072      0.003376      0.000697
      2.12300      4.27302      0.00000         0.025528     -0.005110      0.022952
      2.12335      5.69594      0.00581        -0.000597      0.009222     -0.002364
      7.05344      0.00333      0.01399         0.009495     -0.005726     -0.000613
      7.05353      1.42635      0.01368        -0.001710      0.005133     -0.004115
      8.28610      6.40752      0.01601         0.003162     -0.001217     -0.001056
     -4.03885      7.83070      0.01636        -0.002576      0.001021     -0.000382
      3.35586      6.40753      0.01007         0.005599      0.000690     -0.001195
      3.35599      7.83072      0.01320        -0.003016      0.000221     -0.000815
     -0.34146      4.27290      0.00723        -0.001677     -0.001369     -0.004295
     -0.34138      5.69591      0.00946        -0.009432      0.006585     -0.001082
      3.35624      2.13791      0.00222        -0.014634      0.012305      0.017837
      3.35573      3.56155      0.00139         0.014391     -0.016703      0.009948
     -1.57395      6.40758      0.01311         0.005626     -0.003920     -0.000551
     -1.57385      7.83068      0.01438        -0.005222      0.004075     -0.000221
      5.82093      2.13784      0.01033         0.016106      0.005095     -0.003159
      5.82114      3.56097      0.01156        -0.006395      0.008840     -0.004141
      0.89092      6.40755      0.00907         0.004714      0.002280     -0.002068
      0.89106      7.83068      0.01235        -0.006931      0.004295      0.000276
      4.58871      4.27293      0.00850        -0.013758     -0.006232     -0.011429
      4.58852      5.69606      0.01149         0.002512     -0.001536     -0.004379
      9.51845      0.00337      0.01490         0.005084     -0.005009     -0.000043
      9.51855      1.42644      0.01438        -0.005441      0.005498     -0.000401
      8.28593      2.13803      0.01453         0.007181     -0.003501      0.000315
      8.28613      3.56115      0.01464        -0.004667      0.002166     -0.000146
      7.05356      4.27269      0.01457         0.002770     -0.000950     -0.001119
      7.05362      5.69588      0.01553        -0.002641      0.001574     -0.000320
      5.82112      6.40755      0.01489        -0.003309      0.002030     -0.000373
      5.82102      7.83073      0.01579         0.003085      0.000230     -0.000531
      7.05363      8.54227      0.01631        -0.004849      0.001545      0.000823
     -5.27149      9.96549      0.01495         0.000405     -0.002123     -0.002738
     -2.80638      8.54234      0.01558         0.003254     -0.001504     -0.001602
     -2.80627      9.96553      0.01362        -0.007240      0.000050     -0.004433
     -0.34149      8.54239      0.01378         0.005886     -0.005345      0.000174
     -0.34138      9.96550      0.01354        -0.006000      0.000289     -0.001468
      2.12343      8.54232      0.01336         0.006019     -0.001806      0.000803
      2.12354      9.96544      0.01469        -0.005150      0.004231     -0.002102
      4.58846      8.54235      0.01505         0.003832     -0.002866      0.000893
      4.58853      9.96550      0.01517        -0.002691      0.003543     -0.000065
      3.04930      2.68154      7.93701        -0.007216      0.005818      0.038580
      4.02070      2.02068      8.00143        -1.424912      0.969173     -0.111893
      2.07767      3.34267      7.87755         1.432133     -0.974953      0.070106
 -----------------------------------------------------------------------------------
    total drift:                               -0.000022     -0.000132      0.009167


--------------------------------------------------------------------------------------------------------



  FREE ENERGIE OF THE ION-ELECTRON SYSTEM (eV)
  ---------------------------------------------------
  free  energy   TOTEN  =      -525.00767869 eV

  energy  without entropy=     -525.00767869  energy(sigma->0) =     -525.00767869
 


--------------------------------------------------------------------------------------------------------


    POTLOK:  cpu time    1.4386: real time    1.4460


--------------------------------------------------------------------------------------------------------


 writing wavefunctions
     LOOP+:  cpu time  687.3302: real time  693.0774
    4ORBIT:  cpu time    0.0000: real time    0.0000

 total amount of memory used by VASP MPI-rank0   556209. kBytes
=======================================================================

   base      :      30000. kBytes
   nonl-proj :     184518. kBytes
   fftplans  :      31725. kBytes
   grid      :     282516. kBytes
   one-center:        162. kBytes
   wavefun   :      27288. kBytes
 
  
  
 General timing and accounting informations for this job:
 ========================================================
  
                  Total CPU time used (sec):      724.725
                            User time (sec):      704.663
                          System time (sec):       20.062
                         Elapsed time (sec):      731.655
  
                   Maximum memory used (kb):     1038864.
                   Average memory used (kb):          N/A
  
                          Minor page faults:       146029
                          Major page faults:          235
                 Voluntary context switches:         3762
