 vasp.6.2.1 16May21 (build Nov 06 2021 14:46:37) complex                        
  
 executed on             LinuxIFC date 2025.04.06  10:29:02
 running on  112 total cores
 distrk:  each k-point on   56 cores,    2 groups
 distr:  one band on NCORE=   1 cores,   56 groups


--------------------------------------------------------------------------------------------------------


 INCAR:
   ALGO = Conjugate
   KPAR = 2
   NCORE = 32
   ISMEAR = 0
   SIGMA = 0.01
   PREC = Accurate
   EDIFF = 1E-7
   ENCUT = 1000
   ISIF = 0
   METAGGA = R2SCAN
   LASPH = .TRUE.
   IVDW = 12
   VDW_S8 = 0.7898
   VDW_A1 = 0.4948
   VDW_A2 = 5.7308
   SYMPREC = 1E-7

 POTCAR:    PAW_PBE C_h 06Feb2004                 
 POTCAR:    PAW_PBE O_h 06Feb2004                 
 -----------------------------------------------------------------------------
|                                                                             |
|           W    W    AA    RRRRR   N    N  II  N    N   GGGG   !!!           |
|           W    W   A  A   R    R  NN   N  II  NN   N  G    G  !!!           |
|           W    W  A    A  R    R  N N  N  II  N N  N  G       !!!           |
|           W WW W  AAAAAA  RRRRR   N  N N  II  N  N N  G  GGG   !            |
|           WW  WW  A    A  R   R   N   NN  II  N   NN  G    G                |
|           W    W  A    A  R    R  N    N  II  N    N   GGGG   !!!           |
|                                                                             |
|     The value NCORE = 32 specified in the INCAR file was overwritten,       |
|     because it was not compatible with the 56 processes available:          |
|     NCORE = 1                                                               |
|     was used instead, please check that this makes sense for your           |
|     machine.                                                                |
|                                                                             |
 -----------------------------------------------------------------------------

 -----------------------------------------------------------------------------
|                                                                             |
|           W    W    AA    RRRRR   N    N  II  N    N   GGGG   !!!           |
|           W    W   A  A   R    R  NN   N  II  NN   N  G    G  !!!           |
|           W    W  A    A  R    R  N N  N  II  N N  N  G       !!!           |
|           W WW W  AAAAAA  RRRRR   N  N N  II  N  N N  G  GGG   !            |
|           WW  WW  A    A  R   R   N   NN  II  N   NN  G    G                |
|           W    W  A    A  R    R  N    N  II  N    N   GGGG   !!!           |
|                                                                             |
|     For optimal performance we recommend to set                             |
|       NCORE = 2 up to number-of-cores-per-socket                            |
|     NCORE specifies how many cores store one orbital (NPAR=cpu/NCORE).      |
|     This setting can greatly improve the performance of VASP for DFT.       |
|     The default, NCORE=1 might be grossly inefficient on modern             |
|     multi-core architectures or massively parallel machines. Do your        |
|     own testing! More info at https://www.vasp.at/wiki/index.php/NCORE      |
|     Unfortunately you need to use the default for GW and RPA                |
|     calculations (for HF NCORE is supported but not extensively tested      |
|     yet).                                                                   |
|                                                                             |
 -----------------------------------------------------------------------------

 POTCAR:    PAW_PBE C_h 06Feb2004                 
   VRHFIN =C: s2p2                                                                                  
   LEXCH  = PE                                                                                      
   EATOM  =   147.1560 eV,   10.8157 Ry                                                             
                                                                                                    
   TITEL  = PAW_PBE C_h 06Feb2004                                                                   
   LULTRA =        F    use ultrasoft PP ?                                                          
   IUNSCR =        1    unscreen: 0-lin 1-nonlin 2-no                                               
   RPACOR =    0.800    partial core radius                                                         
   POMASS =   12.011; ZVAL   =    4.000    mass and valenz                                          
   RCORE  =    1.100    outmost cutoff radius                                                       
   RWIGS  =    1.630; RWIGS  =    0.863    wigner-seitz radius (au A)                               
   ENMAX  =  700.000; ENMIN  =  500.000 eV                                                          
   ICORE  =        2    local potential                                                             
   LCOR   =        T    correct aug charges                                                         
   LPAW   =        T    paw PP                                                                      
   EAUG   =  946.768                                                                                
   DEXC   =    0.000                                                                                
   RMAX   =    1.128    core radius for proj-oper                                                   
   RAUG   =    1.300    factor for augmentation sphere                                              
   RDEP   =    1.162    radius for radial grids                                                     
   RDEPT  =    1.088    core radius for aug-charge                                                  
                                                                                                    
   Atomic configuration                                                                             
    4 entries                                                                                       
     n  l   j            E        occ.                                                              
     1  0  0.50      -273.3789   2.0000                                                             
     2  0  0.50       -13.7508   2.0000                                                             
     2  1  0.50        -5.2854   2.0000                                                             
     3  2  1.50        -5.4423   0.0000                                                             
   Description                                                                                      
     l       E           TYP  RCUT    TYP  RCUT                                                     
     0    -13.7508458     23  1.100                                                                 
     0     -8.2022199     23  1.100                                                                 
     1     -5.2854383     23  1.100                                                                 
     1      1.1560700     23  1.100                                                                 
     2     -5.4423304      7  1.100                                                                 
  local pseudopotential read in
  partial core-charges read in
  partial kinetic energy density read in
  atomic valenz-charges read in
  non local Contribution for L=           0  read in
    real space projection operators read in
  non local Contribution for L=           0  read in
    real space projection operators read in
  non local Contribution for L=           1  read in
    real space projection operators read in
  non local Contribution for L=           1  read in
    real space projection operators read in
    PAW grid and wavefunctions read in
 
   number of l-projection  operators is LMAX  =           4
   number of lm-projection operators is LMMAX =           8
 
 POTCAR:    PAW_PBE O_h 06Feb2004                 
   VRHFIN =O: s2p4                                                                                  
   LEXCH  = PE                                                                                      
   EATOM  =   432.3788 eV,   31.7789 Ry                                                             
                                                                                                    
   TITEL  = PAW_PBE O_h 06Feb2004                                                                   
   LULTRA =        F    use ultrasoft PP ?                                                          
   IUNSCR =        1    unscreen: 0-lin 1-nonlin 2-no                                               
   RPACOR =    0.800    partial core radius                                                         
   POMASS =   16.000; ZVAL   =    6.000    mass and valenz                                          
   RCORE  =    1.100    outmost cutoff radius                                                       
   RWIGS  =    1.400; RWIGS  =    0.741    wigner-seitz radius (au A)                               
   ENMAX  =  700.000; ENMIN  =  500.000 eV                                                          
   ICORE  =        2    local potential                                                             
   LCOR   =        T    correct aug charges                                                         
   LPAW   =        T    paw PP                                                                      
   EAUG   =  888.804                                                                                
   DEXC   =    0.000                                                                                
   RMAX   =    1.128    core radius for proj-oper                                                   
   RAUG   =    1.300    factor for augmentation sphere                                              
   RDEP   =    1.125    radius for radial grids                                                     
   RDEPT  =    1.088    core radius for aug-charge                                                  
                                                                                                    
   Atomic configuration                                                                             
    4 entries                                                                                       
     n  l   j            E        occ.                                                              
     1  0  0.50      -514.6923   2.0000                                                             
     2  0  0.50       -23.9615   2.0000                                                             
     2  1  0.50        -9.0305   4.0000                                                             
     3  2  1.50        -9.5241   0.0000                                                             
   Description                                                                                      
     l       E           TYP  RCUT    TYP  RCUT                                                     
     0    -23.9615319     23  1.100                                                                 
     0    -25.3221145     23  1.100                                                                 
     1     -9.0304911     23  1.100                                                                 
     1     -5.4802209     23  1.100                                                                 
     2     -9.5240782      7  1.100                                                                 
  local pseudopotential read in
  partial core-charges read in
  partial kinetic energy density read in
  atomic valenz-charges read in
  non local Contribution for L=           0  read in
    real space projection operators read in
  non local Contribution for L=           0  read in
    real space projection operators read in
  non local Contribution for L=           1  read in
    real space projection operators read in
  non local Contribution for L=           1  read in
    real space projection operators read in
    PAW grid and wavefunctions read in
 
   number of l-projection  operators is LMAX  =           4
   number of lm-projection operators is LMMAX =           8
 
 -----------------------------------------------------------------------------
|                                                                             |
|               ----> ADVICE to this user running VASP <----                  |
|                                                                             |
|     You have a (more or less) 'large supercell' and for larger cells it     |
|     might be more efficient to use real-space projection operators.         |
|     Therefore, try LREAL= Auto in the INCAR file.                           |
|     Mind: For very accurate calculation, you might also keep the            |
|     reciprocal projection scheme (i.e. LREAL=.FALSE.).                      |
|                                                                             |
 -----------------------------------------------------------------------------

  PAW_PBE C_h 06Feb2004                 :
 energy of atom  1       EATOM= -147.1560
 kinetic energy error for atom=    0.0031 (will be added to EATOM!!)
  PAW_PBE O_h 06Feb2004                 :
 energy of atom  2       EATOM= -432.3788
 kinetic energy error for atom=    0.0171 (will be added to EATOM!!)
 
 
 POSCAR:  C  O
  positions in cartesian coordinates
  No initial velocities read in

 METAGGA = R2SCA    LMAXTAU =  6    LMIXTAU =  F

 exchange correlation table for  LEXCH =        8
   RHO(1)=    0.500       N(1)  =     2000
   RHO(2)=  100.500       N(2)  =     4000
 


--------------------------------------------------------------------------------------------------------


 ion  position               nearest neighbor table
   1  0.972  0.000  0.001-  50 1.42   2 1.42  42 1.42
   2  0.039  0.134  0.001-   5 1.42   7 1.42   1 1.42
   3  0.172  0.000  0.001-  42 1.42  44 1.42   4 1.42
   4  0.239  0.134  0.000-   7 1.42   3 1.42  23 1.42
   5  0.972  0.200  0.001-   6 1.42   2 1.42  34 1.42
   6  0.039  0.334  0.001-   5 1.42  21 1.42  11 1.42
   7  0.172  0.200  0.000-   8 1.42   2 1.42   4 1.42
   8  0.239  0.334  0.000-  13 1.42   7 1.42  21 1.42
   9  0.372  0.000  0.001-  10 1.42  44 1.42  46 1.42
  10  0.439  0.134  0.000-  27 1.42   9 1.42  23 1.42
  11  0.972  0.400  0.001-  12 1.42  36 1.42   6 1.42
  12  0.039  0.534  0.001-  25 1.42  11 1.42  17 1.42
  13  0.372  0.400  0.000-   8 1.42  14 1.42  24 1.42
  14  0.439  0.534  0.000-  13 1.42  29 1.42  19 1.42
  15  0.572  0.000  0.001-  46 1.42  16 1.42  48 1.42
  16  0.639  0.134  0.001-  15 1.42  35 1.42  27 1.42
  17  0.972  0.600  0.001-  38 1.42  18 1.42  12 1.42
  18  0.039  0.734  0.001-  43 1.42  41 1.42  17 1.42
  19  0.572  0.600  0.001-  14 1.42  20 1.42  32 1.42
  20  0.639  0.734  0.001-  49 1.42  19 1.42  47 1.42
  21  0.172  0.400  0.000-  22 1.42   8 1.42   6 1.42
  22  0.239  0.534  0.000-  21 1.42  29 1.42  25 1.42
  23  0.372  0.200  0.000-  10 1.42   4 1.42  24 1.42
  24  0.439  0.334  0.000-  13 1.42  31 1.42  23 1.42
  25  0.172  0.600  0.001-  26 1.42  12 1.42  22 1.42
  26  0.239  0.734  0.001-  25 1.42  45 1.42  43 1.42
  27  0.572  0.200  0.001-  10 1.42  28 1.42  16 1.42
  28  0.639  0.334  0.001-  27 1.42  37 1.42  31 1.42
  29  0.372  0.600  0.000-  22 1.42  14 1.42  30 1.42
  30  0.439  0.734  0.001-  47 1.42  29 1.42  45 1.42
  31  0.572  0.400  0.000-  32 1.42  28 1.42  24 1.42
  32  0.639  0.534  0.001-  31 1.42  39 1.42  19 1.42
  33  0.772  0.000  0.001-  34 1.42  48 1.42  50 1.42
  34  0.839  0.134  0.001-  33 1.42   5 1.42  35 1.42
  35  0.772  0.200  0.001-  36 1.42  16 1.42  34 1.42
  36  0.839  0.334  0.001-  35 1.42  11 1.42  37 1.42
  37  0.772  0.400  0.001-  28 1.42  38 1.42  36 1.42
  38  0.839  0.534  0.001-  17 1.42  37 1.42  39 1.42
  39  0.772  0.600  0.001-  40 1.42  38 1.42  32 1.42
  40  0.839  0.734  0.001-  39 1.42  49 1.42  41 1.42
  41  0.972  0.800  0.001-  18 1.42  42 1.42  40 1.42
  42  0.039  0.934  0.001-   3 1.42  41 1.42   1 1.42
  43  0.172  0.800  0.001-  18 1.42  44 1.42  26 1.42
  44  0.239  0.934  0.001-   9 1.42  43 1.42   3 1.42
  45  0.372  0.800  0.001-  26 1.42  46 1.42  30 1.42
  46  0.439  0.934  0.001-  15 1.42  45 1.42   9 1.42
  47  0.572  0.800  0.001-  30 1.42  48 1.42  20 1.42
  48  0.639  0.934  0.001-  47 1.42  33 1.42  15 1.42
  49  0.772  0.800  0.001-  50 1.42  20 1.42  40 1.42
  50  0.839  0.934  0.001-  49 1.42   1 1.42  33 1.42
  51  0.373  0.251  0.149-  52 1.18  53 1.18
  52  0.421  0.189  0.152-  51 1.18
  53  0.325  0.313  0.146-  51 1.18
 
  LATTYP: Found a hexagonal cell.
 ALAT       =    12.3250000000
 C/A-ratio  =     1.6227180527
  
  Lattice vectors:
  
 A1 = (  12.3250000000,   0.0000000000,   0.0000000000)
 A2 = (  -6.1625000000,  10.6737631016,   0.0000000000)
 A3 = (   0.0000000000,   0.0000000000,  20.0000000000)


Analysis of symmetry for initial positions (statically):
=====================================================================
 Subroutine PRICEL returns:
 Original cell was already a primitive cell.
 

 Routine SETGRP: Setting up the symmetry group for a 
 hexagonal supercell.


 Subroutine GETGRP returns: Found  1 space group operations
 (whereof  1 operations were pure point group operations)
 out of a pool of 24 trial point group operations.


The static configuration has the point symmetry C_1 .


Analysis of symmetry for dynamics (positions and initial velocities):
=====================================================================
 Subroutine PRICEL returns:
 Original cell was already a primitive cell.
 

 Routine SETGRP: Setting up the symmetry group for a 
 hexagonal supercell.


 Subroutine GETGRP returns: Found  1 space group operations
 (whereof  1 operations were pure point group operations)
 out of a pool of 24 trial point group operations.


The dynamic configuration has the point symmetry C_1 .


 Subroutine INISYM returns: Found  1 space group operations
 (whereof  1 operations are pure point group operations),
 and found     1 'primitive' translations


----------------------------------------------------------------------------------------

                                     Primitive cell                                     

  volume of cell :    2631.0826

  direct lattice vectors                    reciprocal lattice vectors
    12.325000000  0.000000000  0.000000000     0.081135903  0.046843835  0.000000000
    -6.162500000 10.673763102  0.000000000     0.000000000  0.093687670  0.000000000
     0.000000000  0.000000000 20.000000000     0.000000000  0.000000000  0.050000000

  length of vectors
    12.325000000 12.325000000 20.000000000     0.093687670  0.093687670  0.050000000

  position of ions in fractional coordinates (direct lattice)
     0.972450841  0.000320818  0.000708389
     0.039118382  0.133659505  0.000550216
     0.172443627  0.000295449  0.000624535
     0.239096278  0.133647917  0.000320585
     0.972452058  0.200322012  0.000606523
     0.039128360  0.333643771  0.000555187
     0.172451764  0.200354552  0.000273959
     0.239124359  0.333665720  0.000090325
     0.372465565  0.000324403  0.000567391
     0.439137473  0.133619939  0.000322923
     0.972449824  0.400309362  0.000684513
     0.039124981  0.533636789  0.000716763
     0.372416176  0.400329481  0.000000000
     0.439099602  0.533638981  0.000290518
     0.572443676  0.000312125  0.000699475
     0.639110207  0.133631751  0.000684093
     0.972452703  0.600305653  0.000800361
     0.039124495  0.733640359  0.000818141
     0.572433471  0.600306242  0.000503618
     0.639111888  0.733641879  0.000659881
     0.172454630  0.400318228  0.000361306
     0.239120185  0.533636548  0.000473136
     0.372459750  0.200295993  0.000111246
     0.439107096  0.333673419  0.000069702
     0.172452155  0.600311506  0.000655425
     0.239123371  0.733638574  0.000718912
     0.572431082  0.200289171  0.000516621
     0.639112773  0.333618630  0.000577970
     0.372439808  0.600308022  0.000453556
     0.439116090  0.733637858  0.000617737
     0.572469358  0.400320504  0.000424897
     0.639119408  0.533650873  0.000574513
     0.772445723  0.000315427  0.000745201
     0.839116277  0.133640203  0.000719132
     0.772440513  0.200307432  0.000726291
     0.839120241  0.333635728  0.000731834
     0.772446320  0.400298367  0.000728722
     0.839118980  0.533633964  0.000776376
     0.772456143  0.600308173  0.000744639
     0.839115033  0.733643180  0.000789390
     0.972455313  0.800305582  0.000815291
     0.039114714  0.933643289  0.000747563
     0.172457971  0.800312211  0.000779216
     0.239134551  0.933647193  0.000681063
     0.372451396  0.800316674  0.000689249
     0.439124489  0.933644769  0.000676788
     0.572441101  0.800310054  0.000668168
     0.639115067  0.933638985  0.000734556
     0.772445098  0.800313187  0.000752577
     0.839116614  0.933644338  0.000758538
     0.373021009  0.251226878  0.148650889
     0.420879805  0.189313152  0.151871982
     0.325156981  0.313167186  0.145678146

  ion indices of the primitive-cell ions
   primitive index   ion index
                 1           1
                 2           2
                 3           3
                 4           4
                 5           5
                 6           6
                 7           7
                 8           8
                 9           9
                10          10
                11          11
                12          12
                13          13
                14          14
                15          15
                16          16
                17          17
                18          18
                19          19
                20          20
                21          21
                22          22
                23          23
                24          24
                25          25
                26          26
                27          27
                28          28
                29          29
                30          30
                31          31
                32          32
                33          33
                34          34
                35          35
                36          36
                37          37
                38          38
                39          39
                40          40
                41          41
                42          42
                43          43
                44          44
                45          45
                46          46
                47          47
                48          48
                49          49
                50          50
                51          51
                52          52
                53          53

----------------------------------------------------------------------------------------

 
 
 KPOINTS: auto                                    

Automatic generation of k-mesh.
 Grid dimensions read from file:
 generate k-points for:    1    1    1

 Generating k-lattice:

  Cartesian coordinates                     Fractional coordinates (reciprocal lattice)
     0.081135903  0.046843835  0.000000000     1.000000000 -0.000000000  0.000000000
     0.000000000  0.093687670  0.000000000     0.000000000  1.000000000  0.000000000
     0.000000000  0.000000000  0.050000000     0.000000000  0.000000000  1.000000000

  Length of vectors
     0.093687670  0.093687670  0.050000000

  Shift w.r.t. Gamma in fractional coordinates (k-lattice)
     0.000000000  0.000000000  0.000000000

 
 Subroutine IBZKPT returns following result:
 ===========================================
 
 Found      1 irreducible k-points:
 
 Following reciprocal coordinates:
            Coordinates               Weight
  0.000000  0.000000  0.000000      1.000000
 
 Following cartesian coordinates:
            Coordinates               Weight
  0.000000  0.000000  0.000000      1.000000
 


--------------------------------------------------------------------------------------------------------




 Dimension of arrays:
   k-points           NKPTS =      1   k-points in BZ     NKDIM =      1   number of bands    NBANDS=    168
   number of dos      NEDOS =    301   number of ions     NIONS =     53
   non local maximal  LDIM  =      4   non local SUM 2l+1 LMDIM =      8
   total plane-waves  NPLWV = ******
   max r-space proj   IRMAX =      1   max aug-charges    IRDMAX=   9736
   dimension x,y,z NGX =   128 NGY =  128 NGZ =  210
   dimension x,y,z NGXF=   256 NGYF=  256 NGZF=  420
   support grid    NGXF=   256 NGYF=  256 NGZF=  420
   ions per type =              51   2
   NGX,Y,Z   is equivalent  to a cutoff of  17.27, 17.27, 17.46 a.u.
   NGXF,Y,Z  is equivalent  to a cutoff of  34.53, 34.53, 34.91 a.u.

 SYSTEM =  unknown system                          
 POSCAR =   C  O                                   

 Startparameter for this run:
   NWRITE =      2    write-flag & timer
   PREC   = accura    normal or accurate (medium, high low for compatibility)
   ISTART =      0    job   : 0-new  1-cont  2-samecut
   ICHARG =      2    charge: 1-file 2-atom 10-const
   ISPIN  =      1    spin polarized calculation?
   LNONCOLLINEAR =      F non collinear calculations
   LSORBIT =      F    spin-orbit coupling
   INIWAV =      1    electr: 0-lowe 1-rand  2-diag
   LASPH  =      T    aspherical Exc in radial PAW
 Electronic Relaxation 1
   ENCUT  = 1000.0 eV  73.50 Ry    8.57 a.u.  31.78 31.78 51.57*2*pi/ulx,y,z
   ENINI  = 1000.0     initial cutoff
   ENAUG  =  946.8 eV  augmentation charge cutoff
   NELM   =     60;   NELMIN=  2; NELMDL= -5     # of ELM steps 
   EDIFF  = 0.1E-06   stopping-criterion for ELM
   LREAL  =      F    real-space projection
   NLSPLINE    = F    spline interpolate recip. space projectors
   LCOMPAT=      F    compatible to vasp.4.4
   GGA_COMPAT  = T    GGA compatible to vasp.4.4-vasp.4.6
   LMAXPAW     = -100 max onsite density
   LMAXMIX     =    2 max onsite mixed and CHGCAR
   VOSKOWN=      0    Vosko Wilk Nusair interpolation
   ROPT   =    0.00000   0.00000
 Ionic relaxation
   EDIFFG = 0.1E-05   stopping-criterion for IOM
   NSW    =      0    number of steps for IOM
   NBLOCK =      1;   KBLOCK =      1    inner block; outer block 
   IBRION =     -1    ionic relax: 0-MD 1-quasi-New 2-CG
   NFREE  =      0    steps in history (QN), initial steepest desc. (CG)
   ISIF   =      0    stress and relaxation
   IWAVPR =     10    prediction:  0-non 1-charg 2-wave 3-comb
   ISYM   =      2    0-nonsym 1-usesym 2-fastsym
   LCORR  =      T    Harris-Foulkes like correction to forces

   POTIM  = 0.5000    time-step for ionic-motion
   TEIN   =    0.0    initial temperature
   TEBEG  =    0.0;   TEEND  =   0.0 temperature during run
   SMASS  =  -3.00    Nose mass-parameter (am)
   estimated Nose-frequenzy (Omega)   =  0.10E-29 period in steps = 0.13E+47 mass=  -0.347E-26a.u.
   SCALEE = 1.0000    scale energy and forces
   NPACO  =    256;   APACO  = 16.0  distance and # of slots for P.C.
   PSTRESS=    0.0 pullay stress

  Mass of Ions in am
   POMASS =  12.01 16.00
  Ionic Valenz
   ZVAL   =   4.00  6.00
  Atomic Wigner-Seitz radii
   RWIGS  =  -1.00 -1.00
  virtual crystal weights 
   VCA    =   1.00  1.00
   NELECT =     216.0000    total number of electrons
   NUPDOWN=      -1.0000    fix difference up-down

 DOS related values:
   EMIN   =  10.00;   EMAX   =-10.00  energy-range for DOS
   EFERMI =   0.00
   ISMEAR =     0;   SIGMA  =   0.01  broadening in eV -4-tet -1-fermi 0-gaus

 Electronic relaxation 2 (details)
   IALGO  =     58    algorithm
   LDIAG  =      T    sub-space diagonalisation (order eigenvalues)
   LSUBROT=      F    optimize rotation matrix (better conditioning)
   TURBO    =      0    0=normal 1=particle mesh
   IRESTART =      0    0=no restart 2=restart with 2 vectors
   NREBOOT  =      0    no. of reboots
   NMIN     =      0    reboot dimension
   EREF     =   0.00    reference energy to select bands
   IMIX   =      4    mixing-type and parameters
     AMIX     =   0.40;   BMIX     =  1.00
     AMIX_MAG =   1.60;   BMIX_MAG =  1.00
     AMIN     =   0.10
     WC   =   100.;   INIMIX=   1;  MIXPRE=   1;  MAXMIX= -45

 Intra band minimization:
   WEIMIN = 0.0000     energy-eigenvalue tresh-hold
   EBREAK =  0.15E-09  absolut break condition
   DEPER  =   0.30     relativ break condition  

   TIME   =   0.40     timestep for ELM

  volume/ion in A,a.u.               =      49.64       335.01
  Fermi-wavevector in a.u.,A,eV,Ry     =   0.711510  1.344560  6.887909  0.506247
  Thomas-Fermi vector in A             =   1.798641
 
 Write flags
   LWAVE        =      T    write WAVECAR
   LDOWNSAMPLE  =      F    k-point downsampling of WAVECAR
   LCHARG       =      T    write CHGCAR
   LVTOT        =      F    write LOCPOT, total local potential
   LVHAR        =      F    write LOCPOT, Hartree potential only
   LELF         =      F    write electronic localiz. function (ELF)
   LORBIT       =      0    0 simple, 1 ext, 2 COOP (PROOUT), +10 PAW based schemes


 Dipole corrections
   LMONO  =      F    monopole corrections only (constant potential shift)
   LDIPOL =      F    correct potential (dipole corrections)
   IDIPOL =      0    1-x, 2-y, 3-z, 4-all directions 
   EPSILON=  1.0000000 bulk dielectric constant

 Exchange correlation treatment:
   GGA     =    --    GGA type
   LEXCH   =     8    internal setting for exchange type
   VOSKOWN=      0    Vosko Wilk Nusair interpolation
   LHFCALC =     F    Hartree Fock is set to
   LHFONE  =     F    Hartree Fock one center treatment
   AEXX    =    0.0000 exact exchange contribution

 Linear response parameters
   LEPSILON=     F    determine dielectric tensor
   LRPA    =     F    only Hartree local field effects (RPA)
   LNABLA  =     F    use nabla operator in PAW spheres
   LVEL    =     F    velocity operator in full k-point grid
   LINTERFAST=   F  fast interpolation
   KINTER  =     0    interpolate to denser k-point grid
   CSHIFT  =0.1000    complex shift for real part using Kramers Kronig
   OMEGAMAX=  -1.0    maximum frequency
   DEG_THRESHOLD= 0.2000000E-02 threshold for treating states as degnerate
   RTIME   =   -0.100 relaxation time in fs
  (WPLASMAI=    0.000 imaginary part of plasma frequency in eV, 0.658/RTIME)
   DFIELD  = 0.0000000 0.0000000 0.0000000 field for delta impulse in time
 
 Orbital magnetization related:
   ORBITALMAG=     F  switch on orbital magnetization
   LCHIMAG   =     F  perturbation theory with respect to B field
   DQ        =  0.001000  dq finite difference perturbation B field
   LLRAUG    =     F  two centre corrections for induced B field



--------------------------------------------------------------------------------------------------------


 Static calculation
 charge density and potential will be updated during run
 non-spin polarized calculation
 Conjugate gradient for all bands (Freysoldt, et al. PRB 79, 241103 (2009))
 preconditioned conjugated gradient                                        
 perform sub-space diagonalisation
    before iterative eigenvector-optimisation
 modified Broyden-mixing scheme, WC =      100.0
 initial mixing is a Kerker type mixing with AMIX =  0.4000 and BMIX =      1.0000
 Hartree-type preconditioning will be used
 using additional bands           60
 reciprocal scheme for non local part
 use partial core corrections
 no Harris-corrections to forces 
 use gradient corrections 
 use of overlap-Matrix (Vanderbilt PP)
 Gauss-broadening in eV      SIGMA  =   0.01


--------------------------------------------------------------------------------------------------------


  energy-cutoff  :     1000.00
  volume of cell :     2631.08
      direct lattice vectors                 reciprocal lattice vectors
    12.325000000  0.000000000  0.000000000     0.081135903  0.046843835  0.000000000
    -6.162500000 10.673763102  0.000000000     0.000000000  0.093687670  0.000000000
     0.000000000  0.000000000 20.000000000     0.000000000  0.000000000  0.050000000

  length of vectors
    12.325000000 12.325000000 20.000000000     0.093687670  0.093687670  0.050000000


 
 k-points in units of 2pi/SCALE and weight: auto                                    
   0.00000000  0.00000000  0.00000000       1.000
 
 k-points in reciprocal lattice and weights: auto                                    
   0.00000000  0.00000000  0.00000000       1.000
 
 position of ions in fractional coordinates (direct lattice) 
   0.97245084  0.00032082  0.00070839
   0.03911838  0.13365950  0.00055022
   0.17244363  0.00029545  0.00062454
   0.23909628  0.13364792  0.00032058
   0.97245206  0.20032201  0.00060652
   0.03912836  0.33364377  0.00055519
   0.17245176  0.20035455  0.00027396
   0.23912436  0.33366572  0.00009033
   0.37246557  0.00032440  0.00056739
   0.43913747  0.13361994  0.00032292
   0.97244982  0.40030936  0.00068451
   0.03912498  0.53363679  0.00071676
   0.37241618  0.40032948  0.00000000
   0.43909960  0.53363898  0.00029052
   0.57244368  0.00031213  0.00069947
   0.63911021  0.13363175  0.00068409
   0.97245270  0.60030565  0.00080036
   0.03912449  0.73364036  0.00081814
   0.57243347  0.60030624  0.00050362
   0.63911189  0.73364188  0.00065988
   0.17245463  0.40031823  0.00036131
   0.23912018  0.53363655  0.00047314
   0.37245975  0.20029599  0.00011125
   0.43910710  0.33367342  0.00006970
   0.17245216  0.60031151  0.00065542
   0.23912337  0.73363857  0.00071891
   0.57243108  0.20028917  0.00051662
   0.63911277  0.33361863  0.00057797
   0.37243981  0.60030802  0.00045356
   0.43911609  0.73363786  0.00061774
   0.57246936  0.40032050  0.00042490
   0.63911941  0.53365087  0.00057451
   0.77244572  0.00031543  0.00074520
   0.83911628  0.13364020  0.00071913
   0.77244051  0.20030743  0.00072629
   0.83912024  0.33363573  0.00073183
   0.77244632  0.40029837  0.00072872
   0.83911898  0.53363396  0.00077638
   0.77245614  0.60030817  0.00074464
   0.83911503  0.73364318  0.00078939
   0.97245531  0.80030558  0.00081529
   0.03911471  0.93364329  0.00074756
   0.17245797  0.80031221  0.00077922
   0.23913455  0.93364719  0.00068106
   0.37245140  0.80031667  0.00068925
   0.43912449  0.93364477  0.00067679
   0.57244110  0.80031005  0.00066817
   0.63911507  0.93363899  0.00073456
   0.77244510  0.80031319  0.00075258
   0.83911661  0.93364434  0.00075854
   0.37302101  0.25122688  0.14865089
   0.42087980  0.18931315  0.15187198
   0.32515698  0.31316719  0.14567815
 
 position of ions in cartesian coordinates  (Angst):
  11.98347958  0.00342433  0.01416777
  -0.34154264  1.42664989  0.01100432
   2.12354700  0.00315355  0.01249070
   2.12325634  1.42652621  0.00641170
  10.75098721  2.13818970  0.01213047
  -1.57382270  3.56123457  0.01110375
   0.89078307  2.13853702  0.00547917
   0.89099273  3.56146885  0.00180651
   4.58863896  0.00346260  0.01134782
   4.58893648  1.42622757  0.00645846
   9.51853763  4.27280730  0.01369027
  -2.80632132  5.69591267  0.01433526
   2.12299894  4.27302204  0.00000000
   2.12335237  5.69593607  0.00581036
   7.05344483  0.00333155  0.01398950
   7.05352764  1.42635365  0.01368187
   8.28609598  6.40752033  0.01600723
  -4.03884931  7.83070339  0.01636283
   3.35585531  6.40752662  0.01007237
   3.35598594  7.83071962  0.01319763
  -0.34145776  4.27290193  0.00722612
  -0.34137895  5.69591010  0.00946273
   3.35624236  2.13791198  0.00222492
   3.35573251  3.56155103  0.00139405
  -1.57394684  6.40758280  0.01310850
  -1.57385216  7.83068434  0.01437823
   5.82093107  2.13783916  0.01033241
   5.82114012  3.56096622  0.01155939
   0.89092245  6.40754561  0.00907111
   0.89106251  7.83067670  0.01235474
   4.58870974  4.27292622  0.00849795
   4.58852320  5.69606300  0.01149026
   9.51844972  0.00336679  0.01490402
   9.51855036  1.42644387  0.01438264
   8.28593477  2.13803408  0.01452582
   8.28612680  3.56114872  0.01463668
   7.05356221  4.27268994  0.01457444
   7.05362213  5.69588251  0.01552751
   5.82112285  6.40754723  0.01489279
   5.82101669  7.83073350  0.01578780
   7.05362858  8.54227219  0.01630582
  -5.27148792  9.96548729  0.01495127
  -2.80637951  8.54234295  0.01558431
  -2.80626749  9.96552896  0.01362126
  -0.34148805  8.54239058  0.01378498
  -0.34137657  9.96550309  0.01353576
   2.12342586  8.54231992  0.01336337
   2.12354296  9.96544135  0.01469111
   4.58845581  8.54235337  0.01505154
   4.58852904  9.96549848  0.01517076
   3.04929830  2.68153618  2.97301779
   4.02070129  2.02068374  3.03743965
   2.07766701  3.34267235  2.91356292
 


--------------------------------------------------------------------------------------------------------


 k-point   1 :   0.0000 0.0000 0.0000  plane waves:  189031

 maximum and minimum number of plane-waves per node :    189031   189031

 maximum number of plane-waves:    189031
 maximum index in each direction: 
   IXMAX=   31   IYMAX=   31   IZMAX=   51
   IXMIN=  -31   IYMIN=  -31   IZMIN=  -51


 serial   3D FFT for wavefunctions
 parallel 3D FFT for charge:
    minimum data exchange during FFTs selected (reduces bandwidth)


 total amount of memory used by VASP MPI-rank0   556209. kBytes
=======================================================================

   base      :      30000. kBytes
   nonl-proj :     184518. kBytes
   fftplans  :      31725. kBytes
   grid      :     282516. kBytes
   one-center:        162. kBytes
   wavefun   :      27288. kBytes
 
     INWAV:  cpu time    0.0000: real time    0.0000
 Broyden mixing: mesh for mixing (old mesh)
   NGX = 63   NGY = 63   NGZ =103
  (NGX  =256   NGY  =256   NGZ  =420)
  gives a total of 408807 points

 initial charge density was supplied:
 charge density of overlapping atoms calculated
 number of electron     216.0000000 magnetization 
 keeping initial charge density in first step


--------------------------------------------------------------------------------------------------------


 Maximum index for augmentation-charges          459 (set IRDMAX)


--------------------------------------------------------------------------------------------------------


 First call to EWALD:  gamma=   0.128
 Maximum number of real-space cells 3x 3x 2
 Maximum number of reciprocal cells 3x 3x 4

    FEWALD:  cpu time    0.0022: real time    0.0022


--------------------------------------- Iteration      1(   1)  ---------------------------------------


    POTLOK:  cpu time    1.2798: real time    1.2892
    SETDIJ:  cpu time    0.1899: real time    0.1908
    TRIAL :  cpu time   21.8020: real time   21.9767
    CORREC:  cpu time    0.0008: real time    0.0008
    --------------------------------------------
      LOOP:  cpu time   23.2814: real time   23.4793

 eigenvalue-minimisations  :   336
 total energy-change (2. order) : 0.2430575E+04  (-0.1181261E+05)
 number of electron     216.0000000 magnetization 
 augmentation part      216.0000000 magnetization 

 Free energy of the ion-electron system (eV)
  ---------------------------------------------------
  alpha Z        PSCENC =        59.93625244
  Ewald energy   TEWEN  =     34655.38404633
  -Hartree energ DENC   =    -40829.90294674
  -exchange      EXHF   =         0.00000000
  -V(xc)+E(xc)   XCENC  =       605.39278798
  PAW double counting   =      6340.10990386    -6200.63067283
  entropy T*S    EENTRO =        -0.00000000
  eigenvalues    EBANDS =      -569.23746565
  atomic energy  EATOM  =      8369.52358910
  ---------------------------------------------------
  free energy    TOTEN  =      2430.57549449 eV

  energy without entropy =     2430.57549449  energy(sigma->0) =     2430.57549449


--------------------------------------------------------------------------------------------------------




--------------------------------------- Iteration      1(   2)  ---------------------------------------


    TRIAL :  cpu time   35.6473: real time   35.9298
    CORREC:  cpu time    0.0001: real time    0.0001
    --------------------------------------------
      LOOP:  cpu time   35.6586: real time   35.9842

 eigenvalue-minimisations  :   672
 total energy-change (2. order) :-0.2481638E+04  (-0.2367898E+04)
 number of electron     216.0000000 magnetization 
 augmentation part      216.0000000 magnetization 

 Free energy of the ion-electron system (eV)
  ---------------------------------------------------
  alpha Z        PSCENC =        59.93625244
  Ewald energy   TEWEN  =     34655.38404633
  -Hartree energ DENC   =    -40829.90294674
  -exchange      EXHF   =         0.00000000
  -V(xc)+E(xc)   XCENC  =       605.39278798
  PAW double counting   =      6340.10990386    -6200.63067283
  entropy T*S    EENTRO =        -0.00000000
  eigenvalues    EBANDS =     -3050.87530590
  atomic energy  EATOM  =      8369.52358910
  ---------------------------------------------------
  free energy    TOTEN  =       -51.06234576 eV

  energy without entropy =      -51.06234576  energy(sigma->0) =      -51.06234576


--------------------------------------------------------------------------------------------------------




--------------------------------------- Iteration      1(   3)  ---------------------------------------


    TRIAL :  cpu time   24.1121: real time   24.2921
    CORREC:  cpu time    0.0001: real time    0.0001
    --------------------------------------------
      LOOP:  cpu time   24.1876: real time   24.3746

 eigenvalue-minimisations  :   392
 total energy-change (2. order) :-0.5315758E+03  (-0.5287175E+03)
 number of electron     216.0000000 magnetization 
 augmentation part      216.0000000 magnetization 

 Free energy of the ion-electron system (eV)
  ---------------------------------------------------
  alpha Z        PSCENC =        59.93625244
  Ewald energy   TEWEN  =     34655.38404633
  -Hartree energ DENC   =    -40829.90294674
  -exchange      EXHF   =         0.00000000
  -V(xc)+E(xc)   XCENC  =       605.39278798
  PAW double counting   =      6340.10990386    -6200.63067283
  entropy T*S    EENTRO =        -0.00000000
  eigenvalues    EBANDS =     -3582.45105940
  atomic energy  EATOM  =      8369.52358910
  ---------------------------------------------------
  free energy    TOTEN  =      -582.63809926 eV

  energy without entropy =     -582.63809926  energy(sigma->0) =     -582.63809926


--------------------------------------------------------------------------------------------------------




--------------------------------------- Iteration      1(   4)  ---------------------------------------


    TRIAL :  cpu time   26.3879: real time   26.6154
    CORREC:  cpu time    0.0001: real time    0.0001
    --------------------------------------------
      LOOP:  cpu time   26.4671: real time   26.6970

 eigenvalue-minimisations  :   448
 total energy-change (2. order) :-0.2412225E+02  (-0.2397520E+02)
 number of electron     216.0000000 magnetization 
 augmentation part      216.0000000 magnetization 

 Free energy of the ion-electron system (eV)
  ---------------------------------------------------
  alpha Z        PSCENC =        59.93625244
  Ewald energy   TEWEN  =     34655.38404633
  -Hartree energ DENC   =    -40829.90294674
  -exchange      EXHF   =         0.00000000
  -V(xc)+E(xc)   XCENC  =       605.39278798
  PAW double counting   =      6340.10990386    -6200.63067283
  entropy T*S    EENTRO =        -0.00000000
  eigenvalues    EBANDS =     -3606.57330877
  atomic energy  EATOM  =      8369.52358910
  ---------------------------------------------------
  free energy    TOTEN  =      -606.76034863 eV

  energy without entropy =     -606.76034863  energy(sigma->0) =     -606.76034863


--------------------------------------------------------------------------------------------------------




--------------------------------------- Iteration      1(   5)  ---------------------------------------


    TRIAL :  cpu time   26.3844: real time   26.6290
    CORREC:  cpu time    0.0001: real time    0.0001
    CHARGE:  cpu time    2.2910: real time    2.3108
    --------------------------------------------
      LOOP:  cpu time   28.7255: real time   28.9917

 eigenvalue-minimisations  :   448
 total energy-change (2. order) :-0.8460458E+00  (-0.8424955E+00)
 number of electron     216.0000000 magnetization 
 augmentation part       -0.4480745 magnetization 

 Free energy of the ion-electron system (eV)
  ---------------------------------------------------
  alpha Z        PSCENC =        59.93625244
  Ewald energy   TEWEN  =     34655.38404633
  -Hartree energ DENC   =    -40829.90294674
  -exchange      EXHF   =         0.00000000
  -V(xc)+E(xc)   XCENC  =       605.39278798
  PAW double counting   =      6340.10990386    -6200.63067283
  entropy T*S    EENTRO =        -0.00000000
  eigenvalues    EBANDS =     -3607.41935453
  atomic energy  EATOM  =      8369.52358910
  ---------------------------------------------------
  free energy    TOTEN  =      -607.60639440 eV

  energy without entropy =     -607.60639440  energy(sigma->0) =     -607.60639440


--------------------------------------------------------------------------------------------------------




--------------------------------------- Iteration      1(   6)  ---------------------------------------


    POTLOK:  cpu time    1.2575: real time    1.2661
    SETDIJ:  cpu time    0.1839: real time    0.1846
    TRIAL :  cpu time   15.5604: real time   15.6767
    CORREC:  cpu time    6.8877: real time    6.9365
    CHARGE:  cpu time    2.2870: real time    2.3026
    --------------------------------------------
      LOOP:  cpu time   26.2414: real time   26.4338

 eigenvalue-minimisations  :     0
 total energy-change (2. order) : 0.9770449E+02  (-0.1127481E+02)
 number of electron     216.0000000 magnetization 
 augmentation part       -0.5081311 magnetization 

 Free energy of the ion-electron system (eV)
  ---------------------------------------------------
  alpha Z        PSCENC =        59.93625244
  Ewald energy   TEWEN  =     34655.38404633
  -Hartree energ DENC   =    -42145.74877957
  -exchange      EXHF   =         0.00000000
  -V(xc)+E(xc)   XCENC  =       676.64623587
  PAW double counting   =    119313.91455765  -119174.30906438
  entropy T*S    EENTRO =        -0.00000000
  eigenvalues    EBANDS =     -2265.24873933
  atomic energy  EATOM  =      8369.52358910
  ---------------------------------------------------
  free energy    TOTEN  =      -509.90190189 eV

  energy without entropy =     -509.90190189  energy(sigma->0) =     -509.90190189


--------------------------------------------------------------------------------------------------------




--------------------------------------- Iteration      1(   7)  ---------------------------------------


    POTLOK:  cpu time    1.2584: real time    1.2656
    SETDIJ:  cpu time    0.1786: real time    0.1792
    TRIAL :  cpu time   15.5791: real time   15.6911
    CORREC:  cpu time    6.8813: real time    6.9300
    CHARGE:  cpu time    2.2905: real time    2.3068
    --------------------------------------------
      LOOP:  cpu time   26.2279: real time   26.4172

 eigenvalue-minimisations  :     0
 total energy-change (2. order) :-0.1128383E+02  (-0.1416298E+01)
 number of electron     216.0000000 magnetization 
 augmentation part       -0.5401524 magnetization 

 Free energy of the ion-electron system (eV)
  ---------------------------------------------------
  alpha Z        PSCENC =        59.93625244
  Ewald energy   TEWEN  =     34655.38404633
  -Hartree energ DENC   =    -41738.89301983
  -exchange      EXHF   =         0.00000000
  -V(xc)+E(xc)   XCENC  =       659.07373573
  PAW double counting   =    138863.04706943  -138721.71062815
  entropy T*S    EENTRO =        -0.00000000
  eigenvalues    EBANDS =     -2667.54677222
  atomic energy  EATOM  =      8369.52358910
  ---------------------------------------------------
  free energy    TOTEN  =      -521.18572717 eV

  energy without entropy =     -521.18572717  energy(sigma->0) =     -521.18572717


--------------------------------------------------------------------------------------------------------




--------------------------------------- Iteration      1(   8)  ---------------------------------------


    POTLOK:  cpu time    1.2575: real time    1.2650
    SETDIJ:  cpu time    0.1792: real time    0.1798
    TRIAL :  cpu time   15.5796: real time   15.6916
    CORREC:  cpu time    6.8903: real time    6.9408
    CHARGE:  cpu time    2.2883: real time    2.3046
    --------------------------------------------
      LOOP:  cpu time   26.2295: real time   26.4200

 eigenvalue-minimisations  :     0
 total energy-change (2. order) :-0.1416992E+01  (-0.4484165E+00)
 number of electron     216.0000000 magnetization 
 augmentation part       -0.5415820 magnetization 

 Free energy of the ion-electron system (eV)
  ---------------------------------------------------
  alpha Z        PSCENC =        59.93625244
  Ewald energy   TEWEN  =     34655.38404633
  -Hartree energ DENC   =    -41715.86963430
  -exchange      EXHF   =         0.00000000
  -V(xc)+E(xc)   XCENC  =       658.11511891
  PAW double counting   =    148738.81706447  -148597.35994981
  entropy T*S    EENTRO =        -0.00000000
  eigenvalues    EBANDS =     -2691.14920642
  atomic energy  EATOM  =      8369.52358910
  ---------------------------------------------------
  free energy    TOTEN  =      -522.60271929 eV

  energy without entropy =     -522.60271929  energy(sigma->0) =     -522.60271929


--------------------------------------------------------------------------------------------------------




--------------------------------------- Iteration      1(   9)  ---------------------------------------


    POTLOK:  cpu time    1.2579: real time    1.2654
    SETDIJ:  cpu time    0.1791: real time    0.1797
    TRIAL :  cpu time   15.5777: real time   15.6970
    CORREC:  cpu time    6.8858: real time    6.9356
    CHARGE:  cpu time    2.2861: real time    2.3043
    --------------------------------------------
      LOOP:  cpu time   26.2260: real time   26.4289

 eigenvalue-minimisations  :     0
 total energy-change (2. order) :-0.4480717E+00  (-0.1768461E+00)
 number of electron     216.0000000 magnetization 
 augmentation part       -0.5386966 magnetization 

 Free energy of the ion-electron system (eV)
  ---------------------------------------------------
  alpha Z        PSCENC =        59.93625244
  Ewald energy   TEWEN  =     34655.38404633
  -Hartree energ DENC   =    -41721.48020908
  -exchange      EXHF   =         0.00000000
  -V(xc)+E(xc)   XCENC  =       658.07951683
  PAW double counting   =    156475.92207267  -156334.39700935
  entropy T*S    EENTRO =        -0.00000000
  eigenvalues    EBANDS =     -2686.01904996
  atomic energy  EATOM  =      8369.52358910
  ---------------------------------------------------
  free energy    TOTEN  =      -523.05079102 eV

  energy without entropy =     -523.05079102  energy(sigma->0) =     -523.05079102


--------------------------------------------------------------------------------------------------------




--------------------------------------- Iteration      1(  10)  ---------------------------------------


    POTLOK:  cpu time    1.2608: real time    1.2682
    SETDIJ:  cpu time    0.1736: real time    0.1743
    TRIAL :  cpu time   15.5660: real time   15.6799
    CORREC:  cpu time    6.8922: real time    6.9393
    CHARGE:  cpu time    2.2983: real time    2.3144
    --------------------------------------------
      LOOP:  cpu time   26.2197: real time   26.4305

 eigenvalue-minimisations  :     0
 total energy-change (2. order) :-0.1766762E+00  (-0.7733388E-01)
 number of electron     216.0000000 magnetization 
 augmentation part       -0.5340758 magnetization 

 Free energy of the ion-electron system (eV)
  ---------------------------------------------------
  alpha Z        PSCENC =        59.93625244
  Ewald energy   TEWEN  =     34655.38404633
  -Hartree energ DENC   =    -41719.89632090
  -exchange      EXHF   =         0.00000000
  -V(xc)+E(xc)   XCENC  =       657.99725327
  PAW double counting   =    160152.47724145  -160010.90924467
  entropy T*S    EENTRO =        -0.00000000
  eigenvalues    EBANDS =     -2687.74028428
  atomic energy  EATOM  =      8369.52358910
  ---------------------------------------------------
  free energy    TOTEN  =      -523.22746725 eV

  energy without entropy =     -523.22746725  energy(sigma->0) =     -523.22746725


--------------------------------------------------------------------------------------------------------




--------------------------------------- Iteration      1(  11)  ---------------------------------------


    POTLOK:  cpu time    1.2593: real time    1.2664
    SETDIJ:  cpu time    0.1769: real time    0.1795
    TRIAL :  cpu time   15.5825: real time   15.6990
    CORREC:  cpu time    6.8798: real time    6.9254
    CHARGE:  cpu time    2.2819: real time    2.2982
    --------------------------------------------
      LOOP:  cpu time   26.2415: real time   26.4307

 eigenvalue-minimisations  :     0
 total energy-change (2. order) :-0.7719518E-01  (-0.2983531E-01)
 number of electron     216.0000000 magnetization 
 augmentation part       -0.5308838 magnetization 

 Free energy of the ion-electron system (eV)
  ---------------------------------------------------
  alpha Z        PSCENC =        59.93625244
  Ewald energy   TEWEN  =     34655.38404633
  -Hartree energ DENC   =    -41714.28674449
  -exchange      EXHF   =         0.00000000
  -V(xc)+E(xc)   XCENC  =       657.93368077
  PAW double counting   =    160770.06909938  -160628.51942717
  entropy T*S    EENTRO =        -0.00000000
  eigenvalues    EBANDS =     -2693.34515879
  atomic energy  EATOM  =      8369.52358910
  ---------------------------------------------------
  free energy    TOTEN  =      -523.30466243 eV

  energy without entropy =     -523.30466243  energy(sigma->0) =     -523.30466243


--------------------------------------------------------------------------------------------------------




--------------------------------------- Iteration      1(  12)  ---------------------------------------


    POTLOK:  cpu time    1.2571: real time    1.2664
    SETDIJ:  cpu time    0.1755: real time    0.1761
    TRIAL :  cpu time   15.5499: real time   15.6716
    CORREC:  cpu time    6.8778: real time    6.9251
    CHARGE:  cpu time    2.2883: real time    2.3051
    --------------------------------------------
      LOOP:  cpu time   26.1990: real time   26.3974

 eigenvalue-minimisations  :     0
 total energy-change (2. order) :-0.2978734E-01  (-0.9284512E-02)
 number of electron     216.0000000 magnetization 
 augmentation part       -0.5307316 magnetization 

 Free energy of the ion-electron system (eV)
  ---------------------------------------------------
  alpha Z        PSCENC =        59.93625244
  Ewald energy   TEWEN  =     34655.38404633
  -Hartree energ DENC   =    -41710.05264962
  -exchange      EXHF   =         0.00000000
  -V(xc)+E(xc)   XCENC  =       657.86844153
  PAW double counting   =    160172.69133157  -160031.16708755
  entropy T*S    EENTRO =        -0.00000000
  eigenvalues    EBANDS =     -2697.51837357
  atomic energy  EATOM  =      8369.52358910
  ---------------------------------------------------
  free energy    TOTEN  =      -523.33444977 eV

  energy without entropy =     -523.33444977  energy(sigma->0) =     -523.33444977


--------------------------------------------------------------------------------------------------------




--------------------------------------- Iteration      1(  13)  ---------------------------------------


    POTLOK:  cpu time    1.2583: real time    1.2654
    SETDIJ:  cpu time    0.1758: real time    0.1764
    TRIAL :  cpu time   15.5499: real time   15.6663
    CORREC:  cpu time    6.8879: real time    6.9336
    CHARGE:  cpu time    2.2795: real time    2.2952
    --------------------------------------------
      LOOP:  cpu time   26.2272: real time   26.4183

 eigenvalue-minimisations  :     0
 total energy-change (2. order) :-0.9265663E-02  (-0.2593688E-02)
 number of electron     216.0000000 magnetization 
 augmentation part       -0.5312378 magnetization 

 Free energy of the ion-electron system (eV)
  ---------------------------------------------------
  alpha Z        PSCENC =        59.93625244
  Ewald energy   TEWEN  =     34655.38404633
  -Hartree energ DENC   =    -41708.73435098
  -exchange      EXHF   =         0.00000000
  -V(xc)+E(xc)   XCENC  =       657.81963891
  PAW double counting   =    159507.30025331  -159365.78004276
  entropy T*S    EENTRO =        -0.00000000
  eigenvalues    EBANDS =     -2698.79310179
  atomic energy  EATOM  =      8369.52358910
  ---------------------------------------------------
  free energy    TOTEN  =      -523.34371543 eV

  energy without entropy =     -523.34371543  energy(sigma->0) =     -523.34371543


--------------------------------------------------------------------------------------------------------




--------------------------------------- Iteration      1(  14)  ---------------------------------------


    POTLOK:  cpu time    1.2602: real time    1.2677
    SETDIJ:  cpu time    0.1771: real time    0.1778
    TRIAL :  cpu time   15.5584: real time   15.6731
    CORREC:  cpu time    6.8760: real time    6.9245
    CHARGE:  cpu time    2.2880: real time    2.3041
    --------------------------------------------
      LOOP:  cpu time   26.2034: real time   26.3917

 eigenvalue-minimisations  :     0
 total energy-change (2. order) :-0.2583604E-02  (-0.7000693E-03)
 number of electron     216.0000000 magnetization 
 augmentation part       -0.5314926 magnetization 

 Free energy of the ion-electron system (eV)
  ---------------------------------------------------
  alpha Z        PSCENC =        59.93625244
  Ewald energy   TEWEN  =     34655.38404633
  -Hartree energ DENC   =    -41708.77884707
  -exchange      EXHF   =         0.00000000
  -V(xc)+E(xc)   XCENC  =       657.80765401
  PAW double counting   =    159119.28574751  -158977.76426423
  entropy T*S    EENTRO =        -0.00000000
  eigenvalues    EBANDS =     -2698.74047713
  atomic energy  EATOM  =      8369.52358910
  ---------------------------------------------------
  free energy    TOTEN  =      -523.34629904 eV

  energy without entropy =     -523.34629904  energy(sigma->0) =     -523.34629904


--------------------------------------------------------------------------------------------------------




--------------------------------------- Iteration      1(  15)  ---------------------------------------


    POTLOK:  cpu time    1.2611: real time    1.2687
    SETDIJ:  cpu time    0.1767: real time    0.1773
    TRIAL :  cpu time   15.5540: real time   15.6770
    CORREC:  cpu time    6.8649: real time    6.9192
    CHARGE:  cpu time    2.2861: real time    2.3041
    --------------------------------------------
      LOOP:  cpu time   26.1843: real time   26.3997

 eigenvalue-minimisations  :     0
 total energy-change (2. order) :-0.6957816E-03  (-0.1953052E-03)
 number of electron     216.0000000 magnetization 
 augmentation part       -0.5316625 magnetization 

 Free energy of the ion-electron system (eV)
  ---------------------------------------------------
  alpha Z        PSCENC =        59.93625244
  Ewald energy   TEWEN  =     34655.38404633
  -Hartree energ DENC   =    -41708.72582539
  -exchange      EXHF   =         0.00000000
  -V(xc)+E(xc)   XCENC  =       657.80331640
  PAW double counting   =    158927.99304952  -158786.47064063
  entropy T*S    EENTRO =        -0.00000000
  eigenvalues    EBANDS =     -2698.79078261
  atomic energy  EATOM  =      8369.52358910
  ---------------------------------------------------
  free energy    TOTEN  =      -523.34699482 eV

  energy without entropy =     -523.34699482  energy(sigma->0) =     -523.34699482


--------------------------------------------------------------------------------------------------------




--------------------------------------- Iteration      1(  16)  ---------------------------------------


    POTLOK:  cpu time    1.2599: real time    1.2671
    SETDIJ:  cpu time    0.1776: real time    0.1783
    TRIAL :  cpu time   15.5544: real time   15.6852
    CORREC:  cpu time    6.8840: real time    6.9330
    CHARGE:  cpu time    2.2877: real time    2.3037
    --------------------------------------------
      LOOP:  cpu time   26.1928: real time   26.4019

 eigenvalue-minimisations  :     0
 total energy-change (2. order) :-0.1934841E-03  (-0.6162792E-04)
 number of electron     216.0000000 magnetization 
 augmentation part       -0.5317215 magnetization 

 Free energy of the ion-electron system (eV)
  ---------------------------------------------------
  alpha Z        PSCENC =        59.93625244
  Ewald energy   TEWEN  =     34655.38404633
  -Hartree energ DENC   =    -41708.64047681
  -exchange      EXHF   =         0.00000000
  -V(xc)+E(xc)   XCENC  =       657.79791512
  PAW double counting   =    158821.10659575  -158679.58259195
  entropy T*S    EENTRO =        -0.00000000
  eigenvalues    EBANDS =     -2698.87251829
  atomic energy  EATOM  =      8369.52358910
  ---------------------------------------------------
  free energy    TOTEN  =      -523.34718830 eV

  energy without entropy =     -523.34718830  energy(sigma->0) =     -523.34718830


--------------------------------------------------------------------------------------------------------




--------------------------------------- Iteration      1(  17)  ---------------------------------------


    POTLOK:  cpu time    1.2581: real time    1.2666
    SETDIJ:  cpu time    0.1746: real time    0.1753
    TRIAL :  cpu time   15.5657: real time   15.6798
    CORREC:  cpu time    6.8842: real time    6.9331
    CHARGE:  cpu time    2.2828: real time    2.2990
    --------------------------------------------
      LOOP:  cpu time   26.1999: real time   26.4096

 eigenvalue-minimisations  :     0
 total energy-change (2. order) :-0.6061225E-04  (-0.2234039E-04)
 number of electron     216.0000000 magnetization 
 augmentation part       -0.5317446 magnetization 

 Free energy of the ion-electron system (eV)
  ---------------------------------------------------
  alpha Z        PSCENC =        59.93625244
  Ewald energy   TEWEN  =     34655.38404633
  -Hartree energ DENC   =    -41708.78914091
  -exchange      EXHF   =         0.00000000
  -V(xc)+E(xc)   XCENC  =       657.80316609
  PAW double counting   =    158755.47898895  -158613.95478716
  entropy T*S    EENTRO =        -0.00000000
  eigenvalues    EBANDS =     -2698.72936375
  atomic energy  EATOM  =      8369.52358910
  ---------------------------------------------------
  free energy    TOTEN  =      -523.34724892 eV

  energy without entropy =     -523.34724892  energy(sigma->0) =     -523.34724892


--------------------------------------------------------------------------------------------------------




--------------------------------------- Iteration      1(  18)  ---------------------------------------


    POTLOK:  cpu time    1.2604: real time    1.2676
    SETDIJ:  cpu time    0.1757: real time    0.1763
    TRIAL :  cpu time   15.5687: real time   15.6861
    CORREC:  cpu time    6.8810: real time    6.9276
    CHARGE:  cpu time    2.2863: real time    2.3022
    --------------------------------------------
      LOOP:  cpu time   26.2221: real time   26.4134

 eigenvalue-minimisations  :     0
 total energy-change (2. order) :-0.2239761E-04  (-0.7605946E-05)
 number of electron     216.0000000 magnetization 
 augmentation part       -0.5317625 magnetization 

 Free energy of the ion-electron system (eV)
  ---------------------------------------------------
  alpha Z        PSCENC =        59.93625244
  Ewald energy   TEWEN  =     34655.38404633
  -Hartree energ DENC   =    -41708.85951097
  -exchange      EXHF   =         0.00000000
  -V(xc)+E(xc)   XCENC  =       657.80548877
  PAW double counting   =    158728.08388386  -158586.55945719
  entropy T*S    EENTRO =        -0.00000000
  eigenvalues    EBANDS =     -2698.66156366
  atomic energy  EATOM  =      8369.52358910
  ---------------------------------------------------
  free energy    TOTEN  =      -523.34727131 eV

  energy without entropy =     -523.34727131  energy(sigma->0) =     -523.34727131


--------------------------------------------------------------------------------------------------------




--------------------------------------- Iteration      1(  19)  ---------------------------------------


    POTLOK:  cpu time    1.2619: real time    1.2716
    SETDIJ:  cpu time    0.1797: real time    0.1804
    TRIAL :  cpu time   15.5700: real time   15.6814
    CORREC:  cpu time    6.8786: real time    6.9258
    CHARGE:  cpu time    2.2874: real time    2.3037
    --------------------------------------------
      LOOP:  cpu time   26.1911: real time   26.4118

 eigenvalue-minimisations  :     0
 total energy-change (2. order) :-0.7852534E-05  (-0.2617684E-05)
 number of electron     216.0000000 magnetization 
 augmentation part       -0.5317637 magnetization 

 Free energy of the ion-electron system (eV)
  ---------------------------------------------------
  alpha Z        PSCENC =        59.93625244
  Ewald energy   TEWEN  =     34655.38404633
  -Hartree energ DENC   =    -41708.85800583
  -exchange      EXHF   =         0.00000000
  -V(xc)+E(xc)   XCENC  =       657.80512291
  PAW double counting   =    158728.04106116  -158586.51636680
  entropy T*S    EENTRO =        -0.00000000
  eigenvalues    EBANDS =     -2698.66297849
  atomic energy  EATOM  =      8369.52358910
  ---------------------------------------------------
  free energy    TOTEN  =      -523.34727917 eV

  energy without entropy =     -523.34727917  energy(sigma->0) =     -523.34727917


--------------------------------------------------------------------------------------------------------




--------------------------------------- Iteration      1(  20)  ---------------------------------------


    POTLOK:  cpu time    1.2596: real time    1.2671
    SETDIJ:  cpu time    0.1755: real time    0.1761
    TRIAL :  cpu time   15.5389: real time   15.6750
    CORREC:  cpu time    6.8987: real time    6.9458
    CHARGE:  cpu time    2.3199: real time    2.3364
    --------------------------------------------
      LOOP:  cpu time   26.2171: real time   26.4499

 eigenvalue-minimisations  :     0
 total energy-change (2. order) :-0.2707529E-05  (-0.8406659E-06)
 number of electron     216.0000000 magnetization 
 augmentation part       -0.5317626 magnetization 

 Free energy of the ion-electron system (eV)
  ---------------------------------------------------
  alpha Z        PSCENC =        59.93625244
  Ewald energy   TEWEN  =     34655.38404633
  -Hartree energ DENC   =    -41708.87594152
  -exchange      EXHF   =         0.00000000
  -V(xc)+E(xc)   XCENC  =       657.80579727
  PAW double counting   =    158735.73425597  -158594.20958582
  entropy T*S    EENTRO =        -0.00000000
  eigenvalues    EBANDS =     -2698.64569566
  atomic energy  EATOM  =      8369.52358910
  ---------------------------------------------------
  free energy    TOTEN  =      -523.34728187 eV

  energy without entropy =     -523.34728187  energy(sigma->0) =     -523.34728187


--------------------------------------------------------------------------------------------------------




--------------------------------------- Iteration      1(  21)  ---------------------------------------


    POTLOK:  cpu time    1.2575: real time    1.2651
    SETDIJ:  cpu time    0.2477: real time    0.2486
    TRIAL :  cpu time   15.5391: real time   15.6727
    CORREC:  cpu time    6.9440: real time    6.9915
    CHARGE:  cpu time    2.2884: real time    2.3046
    --------------------------------------------
      LOOP:  cpu time   26.3339: real time   26.5578

 eigenvalue-minimisations  :     0
 total energy-change (2. order) :-0.8518400E-06  (-0.3043744E-06)
 number of electron     216.0000000 magnetization 
 augmentation part       -0.5317584 magnetization 

 Free energy of the ion-electron system (eV)
  ---------------------------------------------------
  alpha Z        PSCENC =        59.93625244
  Ewald energy   TEWEN  =     34655.38404633
  -Hartree energ DENC   =    -41708.88436547
  -exchange      EXHF   =         0.00000000
  -V(xc)+E(xc)   XCENC  =       657.80598853
  PAW double counting   =    158742.37141617  -158600.84676977
  entropy T*S    EENTRO =        -0.00000000
  eigenvalues    EBANDS =     -2698.63744007
  atomic energy  EATOM  =      8369.52358910
  ---------------------------------------------------
  free energy    TOTEN  =      -523.34728273 eV

  energy without entropy =     -523.34728273  energy(sigma->0) =     -523.34728273


--------------------------------------------------------------------------------------------------------




--------------------------------------- Iteration      1(  22)  ---------------------------------------


    POTLOK:  cpu time    1.2617: real time    1.2691
    SETDIJ:  cpu time    0.1738: real time    0.1743
    TRIAL :  cpu time   15.5536: real time   15.6662
    CORREC:  cpu time    6.8858: real time    6.9368
    CHARGE:  cpu time    2.2928: real time    2.3090
    --------------------------------------------
      LOOP:  cpu time   26.2225: real time   26.4141

 eigenvalue-minimisations  :     0
 total energy-change (2. order) :-0.2958113E-06  (-0.1442119E-06)
 number of electron     216.0000000 magnetization 
 augmentation part       -0.5317522 magnetization 

 Free energy of the ion-electron system (eV)
  ---------------------------------------------------
  alpha Z        PSCENC =        59.93625244
  Ewald energy   TEWEN  =     34655.38404633
  -Hartree energ DENC   =    -41708.88291672
  -exchange      EXHF   =         0.00000000
  -V(xc)+E(xc)   XCENC  =       657.80588371
  PAW double counting   =    158746.64434142  -158605.11972576
  entropy T*S    EENTRO =        -0.00000000
  eigenvalues    EBANDS =     -2698.63875354
  atomic energy  EATOM  =      8369.52358910
  ---------------------------------------------------
  free energy    TOTEN  =      -523.34728302 eV

  energy without entropy =     -523.34728302  energy(sigma->0) =     -523.34728302


--------------------------------------------------------------------------------------------------------




--------------------------------------- Iteration      1(  23)  ---------------------------------------


    POTLOK:  cpu time    1.2608: real time    1.2679
    SETDIJ:  cpu time    0.1762: real time    0.1768
    TRIAL :  cpu time   15.5697: real time   15.6886
    CORREC:  cpu time    6.8837: real time    6.9308
    CHARGE:  cpu time    2.2874: real time    2.3030
    --------------------------------------------
      LOOP:  cpu time   26.2040: real time   26.4072

 eigenvalue-minimisations  :     0
 total energy-change (2. order) :-0.1193839E-06  (-0.1217110E-06)
 number of electron     216.0000000 magnetization 
 augmentation part       -0.5317488 magnetization 

 Free energy of the ion-electron system (eV)
  ---------------------------------------------------
  alpha Z        PSCENC =        59.93625244
  Ewald energy   TEWEN  =     34655.38404633
  -Hartree energ DENC   =    -41708.88139061
  -exchange      EXHF   =         0.00000000
  -V(xc)+E(xc)   XCENC  =       657.80588006
  PAW double counting   =    158749.27601315  -158607.75145081
  entropy T*S    EENTRO =        -0.00000000
  eigenvalues    EBANDS =     -2698.64022279
  atomic energy  EATOM  =      8369.52358910
  ---------------------------------------------------
  free energy    TOTEN  =      -523.34728314 eV

  energy without entropy =     -523.34728314  energy(sigma->0) =     -523.34728314


--------------------------------------------------------------------------------------------------------




--------------------------------------- Iteration      1(  24)  ---------------------------------------


    POTLOK:  cpu time    1.2665: real time    1.2736
    SETDIJ:  cpu time    0.1706: real time    0.1712
    TRIAL :  cpu time   15.5629: real time   15.6718
    CORREC:  cpu time    6.8896: real time    6.9357
    CHARGE:  cpu time    2.2910: real time    2.3068
    --------------------------------------------
      LOOP:  cpu time   26.2203: real time   26.4041

 eigenvalue-minimisations  :     0
 total energy-change (2. order) : 0.6810296E-08  (-0.1081830E-06)
 number of electron     216.0000000 magnetization 
 augmentation part       -0.5317519 magnetization 

 Free energy of the ion-electron system (eV)
  ---------------------------------------------------
  alpha Z        PSCENC =        59.93625244
  Ewald energy   TEWEN  =     34655.38404633
  -Hartree energ DENC   =    -41708.87791773
  -exchange      EXHF   =         0.00000000
  -V(xc)+E(xc)   XCENC  =       657.80578180
  PAW double counting   =    158752.02650341  -158610.50197151
  entropy T*S    EENTRO =        -0.00000000
  eigenvalues    EBANDS =     -2698.64356697
  atomic energy  EATOM  =      8369.52358910
  ---------------------------------------------------
  free energy    TOTEN  =      -523.34728314 eV

  energy without entropy =     -523.34728314  energy(sigma->0) =     -523.34728314


--------------------------------------------------------------------------------------------------------




--------------------------------------- Iteration      1(  25)  ---------------------------------------


    POTLOK:  cpu time    1.2642: real time    1.2723
    SETDIJ:  cpu time    0.1728: real time    0.1734
    TRIAL :  cpu time   15.5646: real time   15.6923
    CORREC:  cpu time    6.8829: real time    6.9339
    EDDIAG:  cpu time    3.2065: real time    3.2317
    CHARGE:  cpu time    2.2857: real time    2.3017
    --------------------------------------------
      LOOP:  cpu time   29.4086: real time   29.6384

 eigenvalue-minimisations  :     0
 total energy-change (2. order) :-0.3373134E-07  (-0.7760389E-07)
 number of electron     216.0000000 magnetization 
 augmentation part       -0.5317542 magnetization 

 Free energy of the ion-electron system (eV)
  ---------------------------------------------------
  alpha Z        PSCENC =        59.93625244
  Ewald energy   TEWEN  =     34655.38404633
  -Hartree energ DENC   =    -41708.87859815
  -exchange      EXHF   =         0.00000000
  -V(xc)+E(xc)   XCENC  =       657.80585879
  PAW double counting   =    158751.53319048  -158610.00865644
  entropy T*S    EENTRO =        -0.00000000
  eigenvalues    EBANDS =     -2698.64296572
  atomic energy  EATOM  =      8369.52358910
  ---------------------------------------------------
  free energy    TOTEN  =      -523.34728317 eV

  energy without entropy =     -523.34728317  energy(sigma->0) =     -523.34728317


--------------------------------------------------------------------------------------------------------


  average scaling for gradient   0.8471


 average (electrostatic) potential at core
  the test charge radii are     0.5770  0.5955
  (the norm of the test charge is              1.0000)
       1 -87.6414       2 -87.6352       3 -87.6489       4 -87.6574       5 -87.6318
       6 -87.6278       7 -87.6408       8 -87.6196       9 -87.6299      10 -87.6315
      11 -87.6314      12 -87.6369      13 -87.6292      14 -87.6278      15 -87.6286
      16 -87.6279      17 -87.6349      18 -87.6367      19 -87.6401      20 -87.6349
      21 -87.6217      22 -87.6251      23 -87.6538      24 -87.6514      25 -87.6305
      26 -87.6329      27 -87.6304      28 -87.6448      29 -87.6271      30 -87.6303
      31 -87.6550      32 -87.6431      33 -87.6385      34 -87.6325      35 -87.6302
      36 -87.6336      37 -87.6355      38 -87.6390      39 -87.6390      40 -87.6366
      41 -87.6376      42 -87.6410      43 -87.6341      44 -87.6411      45 -87.6296
      46 -87.6279      47 -87.6359      48 -87.6325      49 -87.6377      50 -87.6359
      51 -91.4886      52-123.8621      53-123.8672
 
 
 
 E-fermi :  -4.0456     XC(G=0):  -2.3067     alpha+bet : -2.1113

 Fermi energy:        -4.0455655767

 k-point     1 :       0.0000    0.0000    0.0000
  band No.  band energies     occupation 
      1     -28.7681      2.00000
      2     -27.6602      2.00000
      3     -23.3427      2.00000
      4     -22.3607      2.00000
      5     -22.3540      2.00000
      6     -22.3473      2.00000
      7     -22.3469      2.00000
      8     -22.3441      2.00000
      9     -22.3407      2.00000
     10     -20.4097      2.00000
     11     -20.4074      2.00000
     12     -20.4015      2.00000
     13     -20.4001      2.00000
     14     -20.3988      2.00000
     15     -20.3985      2.00000
     16     -19.4647      2.00000
     17     -19.4625      2.00000
     18     -19.4602      2.00000
     19     -19.4579      2.00000
     20     -19.4570      2.00000
     21     -19.4565      2.00000
     22     -17.2243      2.00000
     23     -17.2227      2.00000
     24     -17.2194      2.00000
     25     -17.2188      2.00000
     26     -17.2149      2.00000
     27     -17.2142      2.00000
     28     -16.0553      2.00000
     29     -16.0542      2.00000
     30     -16.0502      2.00000
     31     -16.0496      2.00000
     32     -16.0483      2.00000
     33     -16.0477      2.00000
     34     -14.6466      2.00000
     35     -14.6459      2.00000
     36     -14.6450      2.00000
     37     -14.6429      2.00000
     38     -14.6427      2.00000
     39     -14.6424      2.00000
     40     -12.8511      2.00000
     41     -12.1550      2.00000
     42     -12.1544      2.00000
     43     -12.1510      2.00000
     44     -12.1507      2.00000
     45     -12.1506      2.00000
     46     -12.1500      2.00000
     47     -11.9488      2.00000
     48     -11.9474      2.00000
     49     -11.9452      2.00000
     50     -11.9449      2.00000
     51     -11.9414      2.00000
     52     -11.9412      2.00000
     53     -11.5106      2.00000
     54     -11.4256      2.00000
     55     -11.3076      2.00000
     56     -10.5891      2.00000
     57     -10.4827      2.00000
     58     -10.4827      2.00000
     59     -10.4813      2.00000
     60     -10.4811      2.00000
     61     -10.4800      2.00000
     62     -10.4795      2.00000
     63      -9.4612      2.00000
     64      -9.4572      2.00000
     65      -9.4557      2.00000
     66      -9.4518      2.00000
     67      -9.4496      2.00000
     68      -9.3917      2.00000
     69      -9.1559      2.00000
     70      -9.1516      2.00000
     71      -9.1503      2.00000
     72      -9.1493      2.00000
     73      -9.1485      2.00000
     74      -9.1466      2.00000
     75      -9.1458      2.00000
     76      -9.1446      2.00000
     77      -9.1433      2.00000
     78      -9.1415      2.00000
     79      -9.1411      2.00000
     80      -9.1404      2.00000
     81      -7.7576      2.00000
     82      -7.6809      2.00000
     83      -7.4071      2.00000
     84      -7.4063      2.00000
     85      -7.4056      2.00000
     86      -7.4029      2.00000
     87      -7.4007      2.00000
     88      -7.4004      2.00000
     89      -7.2191      2.00000
     90      -7.2111      2.00000
     91      -7.2046      2.00000
     92      -7.2006      2.00000
     93      -7.1972      2.00000
     94      -7.1153      2.00000
     95      -6.2735      2.00000
     96      -6.2708      2.00000
     97      -6.2629      2.00000
     98      -6.2607      2.00000
     99      -6.2552      2.00000
    100      -6.2238      2.00000
    101      -5.8339      2.00000
    102      -5.8315      2.00000
    103      -4.1770      2.00000
    104      -4.1715      2.00000
    105      -4.1667      2.00000
    106      -4.1639      2.00000
    107      -4.1594      2.00000
    108      -4.1585      2.00000
    109      -1.1906      0.00000
    110      -1.1870      0.00000
    111      -1.1728      0.00000
    112      -1.1701      0.00000
    113      -1.1681      0.00000
    114      -1.1647      0.00000
    115       0.7911      0.00000
    116       0.8027      0.00000
    117       0.8109      0.00000
    118       0.8204      0.00000
    119       0.8228      0.00000
    120       0.8254      0.00000
    121       0.9763      0.00000
    122       1.5436      0.00000
    123       1.5763      0.00000
    124       1.6309      0.00000
    125       1.9587      0.00000
    126       2.0950      0.00000
    127       2.3508      0.00000
    128       2.3922      0.00000
    129       2.3967      0.00000
    130       2.4027      0.00000
    131       2.4936      0.00000
    132       2.6734      0.00000
    133       2.6784      0.00000
    134       2.6891      0.00000
    135       2.6907      0.00000
    136       2.6938      0.00000
    137       2.7082      0.00000
    138       2.8792      0.00000
    139       2.9725      0.00000
    140       3.0527      0.00000
    141       3.1236      0.00000
    142       3.1328      0.00000
    143       3.1344      0.00000
    144       3.1734      0.00000
    145       3.2655      0.00000
    146       3.2723      0.00000
    147       3.3046      0.00000
    148       3.3055      0.00000
    149       3.3116      0.00000
    150       3.3870      0.00000
    151       3.5305      0.00000
    152       4.4817      0.00000
    153       4.6647      0.00000
    154       4.6723      0.00000
    155       4.8757      0.00000
    156       5.0395      0.00000
    157       5.2056      0.00000
    158       5.2114      0.00000
    159       5.2145      0.00000
    160       5.2175      0.00000
    161       5.2187      0.00000
    162       5.2219      0.00000
    163       5.2767      0.00000
    164       5.3272      0.00000
    165       5.4368      0.00000
    166       5.4853      0.00000
    167       5.5363      0.00000
    168       5.6464      0.00000


--------------------------------------------------------------------------------------------------------


 soft charge-density along one line, spin component           1
         0         1         2         3         4         5         6         7         8         9
 total charge-density along one line
 
 pseudopotential strength for first ion, spin component:           1
 12.626  21.245  -0.000   0.000   0.000  -0.000   0.000   0.000
 21.245  35.746  -0.000   0.000   0.000  -0.000   0.000   0.000
 -0.000  -0.000  -3.230  -0.000   0.000  -5.784   0.000   0.000
  0.000   0.000  -0.000  -3.230  -0.000   0.000  -5.784  -0.000
  0.000   0.000   0.000  -0.000  -3.230   0.000  -0.000  -5.784
 -0.000  -0.000  -5.784   0.000   0.000 -10.337   0.000   0.000
  0.000   0.000   0.000  -5.784  -0.000   0.000 -10.335  -0.000
  0.000   0.000   0.000  -0.000  -5.784   0.000  -0.000 -10.337
 total augmentation occupancy for first ion, spin component:           1
 10.263  -3.894  -0.001  -0.002   0.001   0.000   0.001  -0.000
 -3.894   1.507   0.000   0.001  -0.000  -0.000  -0.000   0.000
 -0.001   0.000   8.468  -0.009   0.000  -3.024   0.004  -0.000
 -0.002   0.001  -0.009   4.015  -0.000   0.004  -1.207   0.000
  0.001  -0.000   0.000  -0.000   8.468  -0.000   0.000  -3.024
  0.000  -0.000  -3.024   0.004  -0.000   1.092  -0.001   0.000
  0.001  -0.000   0.004  -1.207   0.000  -0.001   0.368   0.000
 -0.000   0.000  -0.000   0.000  -3.024   0.000   0.000   1.092


------------------------ aborting loop because EDIFF is reached ----------------------------------------


    FORLOC:  cpu time    0.1053: real time    0.1062
    FORNL :  cpu time    2.9669: real time    2.9908
    FORCOR:  cpu time    1.2733: real time    1.2807
    OFIELD:  cpu time    0.0025: real time    0.0025
 WARNING: Using user supplied parameters
     VDW_A1 = 0.495
     VDW_A2 = 5.731
     VDW_S8 = 0.79
     because the xc functional is not supported. Required parameters not
     defined in the INCAR file will be replaced with PBE defaults ones.


 ---------------------------------------------------------------------------------------------

         DFTD3 V3.0 Rev 1        
 IVDW         = 12
 DF unknown   
 parameters
 VDW_S6       =    1.0000
 VDW_S8       =    0.7898
 VDW_A1       =    0.4948
 VDW_A2       =    5.7308
 k1-k3        =   16.0000    1.3333   -4.0000
 VDW_RADIUS   =   50.2022 A
 VDW_CNRADIUS =   21.1671 A
 Edisp (eV)   -1.80223

 E6    (eV) :    -1.3932
 E8    (eV) :    -0.4090
 % E8        : 22.70
    FORVDW:  cpu time    0.1545: real time    0.1560

 VOLUME and BASIS-vectors are now :
 -----------------------------------------------------------------------------
  energy-cutoff  :     1000.00
  volume of cell :     2631.08
      direct lattice vectors                 reciprocal lattice vectors
    12.325000000  0.000000000  0.000000000     0.081135903  0.046843835  0.000000000
    -6.162500000 10.673763102  0.000000000     0.000000000  0.093687670  0.000000000
     0.000000000  0.000000000 20.000000000     0.000000000  0.000000000  0.050000000

  length of vectors
    12.325000000 12.325000000 20.000000000     0.093687670  0.093687670  0.050000000


 FORCES acting on ions:
    Electron-Ion                     Ewald-Force                    Non-Local-Force
 -----------------------------------------------------------------------------------------------
   0.121E+02 0.106E+02 0.226E+02   -.121E+02 -.106E+02 -.226E+02   0.145E-01 -.727E-02 0.120E-01
   0.202E+02 0.101E+02 0.308E+02   -.203E+02 -.101E+02 -.308E+02   0.227E-01 -.149E-01 -.933E-02
   0.102E+02 0.259E+02 0.395E+02   -.102E+02 -.260E+02 -.395E+02   -.240E-02 0.530E-01 0.414E-01
   0.168E+02 0.247E+02 0.675E+02   -.169E+02 -.247E+02 -.676E+02   0.691E-01 0.294E-01 0.104E+00
   0.132E+02 0.314E+01 0.227E+02   -.132E+02 -.312E+01 -.226E+02   0.292E-02 -.193E-01 -.685E-02
   0.139E+02 -.234E+01 0.233E+02   -.139E+02 0.235E+01 -.232E+02   -.248E-01 -.518E-02 -.157E-01
   0.283E+02 0.118E+02 0.568E+02   -.284E+02 -.117E+02 -.568E+02   0.577E-01 -.784E-01 -.239E-01
   0.282E+02 -.941E+01 0.612E+02   -.282E+02 0.946E+01 -.610E+02   -.672E-02 -.326E-01 -.163E+00
   -.113E+02 0.242E+02 0.410E+02   0.113E+02 -.241E+02 -.410E+02   -.234E-01 -.860E-02 -.479E-01
   -.213E+02 0.182E+02 0.659E+02   0.213E+02 -.183E+02 -.659E+02   -.742E-01 0.386E-01 -.151E+00
   0.322E+01 -.282E+01 0.176E+02   -.320E+01 0.280E+01 -.176E+02   -.685E-02 0.535E-02 -.598E-02
   0.254E+01 -.205E+01 0.162E+02   -.254E+01 0.205E+01 -.162E+02   -.170E-01 0.722E-02 0.186E-02
   0.107E+02 -.262E+02 0.710E+02   -.108E+02 0.263E+02 -.709E+02   0.105E+00 -.117E-01 -.169E+00
   0.477E+01 -.263E+02 0.403E+02   -.480E+01 0.263E+02 -.403E+02   0.301E-01 0.274E-03 -.455E-01
   -.118E+02 0.746E+01 0.222E+02   0.118E+02 -.745E+01 -.222E+02   0.179E-01 -.991E-02 -.914E-02
   -.178E+02 0.497E+01 0.267E+02   0.178E+02 -.498E+01 -.267E+02   0.985E-03 0.103E-01 -.279E-01
   -.173E+01 -.711E+00 0.154E+02   0.174E+01 0.708E+00 -.154E+02   -.519E-02 -.601E-03 0.135E-02
   0.971E+00 0.641E+01 0.167E+02   -.966E+00 -.640E+01 -.167E+02   -.979E-02 0.425E-02 0.872E-02
   -.370E+01 -.212E+02 0.292E+02   0.367E+01 0.212E+02 -.292E+02   0.329E-01 -.431E-02 0.104E-01
   -.153E+01 -.998E+01 0.188E+02   0.152E+01 0.998E+01 -.188E+02   0.551E-02 -.568E-02 -.208E-02
   0.213E+02 -.922E+01 0.339E+02   -.212E+02 0.921E+01 -.338E+02   -.917E-02 -.507E-02 -.537E-01
   0.123E+02 -.107E+02 0.253E+02   -.123E+02 0.107E+02 -.253E+02   -.163E-01 0.210E-01 -.189E-01
   -.528E+01 0.123E+02 0.898E+02   0.539E+01 -.124E+02 -.899E+02   -.973E-01 0.709E-01 0.150E-01
   -.985E+01 -.196E+02 0.838E+02   0.978E+01 0.197E+02 -.839E+02   0.666E-01 -.840E-01 0.392E-01
   0.559E+01 -.249E+01 0.177E+02   -.557E+01 0.249E+01 -.177E+02   -.133E-01 0.300E-02 -.101E-01
   0.101E+01 0.503E+01 0.180E+02   -.100E+01 -.503E+01 -.180E+02   -.142E-01 0.643E-02 -.153E-02
   -.280E+02 0.311E+01 0.462E+02   0.280E+02 -.316E+01 -.461E+02   -.152E-03 0.335E-01 -.575E-01
   -.253E+02 -.109E+02 0.406E+02   0.253E+02 0.109E+02 -.406E+02   -.430E-01 0.391E-01 0.187E-01
   0.753E+01 -.155E+02 0.267E+02   -.754E+01 0.155E+02 -.267E+02   0.102E-01 0.130E-01 -.236E-01
   0.701E+00 -.560E+01 0.191E+02   -.715E+00 0.558E+01 -.191E+02   0.355E-02 0.116E-01 -.101E-01
   -.209E+02 -.226E+02 0.519E+02   0.209E+02 0.227E+02 -.519E+02   -.556E-01 -.362E-01 0.787E-01
   -.115E+02 -.208E+02 0.316E+02   0.115E+02 0.209E+02 -.317E+02   -.231E-03 -.317E-01 0.225E-01
   0.642E+00 0.266E+01 0.160E+02   -.648E+00 -.266E+01 -.160E+02   0.126E-01 -.949E-02 0.400E-02
   0.186E+01 0.270E+01 0.175E+02   -.186E+01 -.269E+01 -.175E+02   0.907E-03 -.590E-02 -.631E-02
   -.822E+01 0.991E+00 0.196E+02   0.822E+01 -.100E+01 -.196E+02   0.123E-01 0.246E-02 -.353E-02
   -.703E+01 -.280E+01 0.189E+02   0.704E+01 0.279E+01 -.189E+02   -.117E-01 0.963E-02 -.390E-02
   -.144E+02 -.755E+01 0.233E+02   0.145E+02 0.754E+01 -.233E+02   -.178E-01 0.446E-02 -.921E-03
   -.821E+01 -.667E+01 0.186E+02   0.822E+01 0.667E+01 -.186E+02   -.115E-01 0.365E-02 0.101E-01
   -.774E+01 -.101E+02 0.203E+02   0.775E+01 0.102E+02 -.203E+02   -.120E-01 -.895E-02 0.679E-02
   -.113E+01 -.238E+01 0.166E+02   0.113E+01 0.239E+01 -.166E+02   0.190E-02 -.218E-02 0.839E-02
   0.290E+01 0.692E+01 0.176E+02   -.290E+01 -.693E+01 -.176E+02   -.403E-02 0.110E-01 0.789E-02
   0.979E+01 0.153E+02 0.244E+02   -.980E+01 -.153E+02 -.244E+02   0.133E-01 0.146E-01 0.137E-01
   0.776E+00 0.125E+02 0.200E+02   -.765E+00 -.125E+02 -.200E+02   -.898E-02 0.981E-02 -.216E-02
   0.212E+00 0.241E+02 0.330E+02   -.177E+00 -.241E+02 -.330E+02   -.416E-01 0.116E-01 0.124E-01
   -.237E+01 0.472E+01 0.191E+02   0.237E+01 -.472E+01 -.191E+02   0.101E-02 -.901E-02 -.752E-02
   -.101E+02 0.130E+02 0.253E+02   0.101E+02 -.130E+02 -.253E+02   -.803E-02 -.376E-02 -.218E-01
   -.167E+01 -.471E+01 0.173E+02   0.166E+01 0.471E+01 -.173E+02   0.158E-01 -.122E-02 0.115E-02
   -.440E+01 0.180E+01 0.165E+02   0.438E+01 -.180E+01 -.165E+02   0.109E-01 -.153E-02 -.859E-02
   0.332E+00 -.292E+01 0.162E+02   -.333E+00 0.292E+01 -.162E+02   0.851E-02 -.337E-02 0.587E-02
   0.462E+01 0.340E+01 0.165E+02   -.462E+01 -.339E+01 -.165E+02   0.553E-02 0.412E-02 0.358E-02
   0.221E+00 -.141E+00 -.386E+03   -.204E+00 0.128E+00 0.386E+03   -.199E-01 0.974E-02 -.554E-01
   -.228E+03 0.155E+03 -.591E+03   0.279E+03 -.190E+03 0.594E+03   -.521E+02 0.355E+02 -.301E+01
   0.228E+03 -.155E+03 -.570E+03   -.279E+03 0.190E+03 0.567E+03   0.521E+02 -.355E+02 0.363E+01
 -----------------------------------------------------------------------------------------------
   0.487E-01 -.339E-02 -.727E-01   0.000E+00 0.284E-13 0.682E-12   -.489E-01 0.290E-02 0.846E-01
 
 
 POSITION                                       TOTAL-FORCE (eV/Angst)
 -----------------------------------------------------------------------------------
     11.98348      0.00342      0.01417         0.001893     -0.000608     -0.001106
     -0.34154      1.42665      0.01100         0.004507      0.004222      0.000584
      2.12355      0.00315      0.01249         0.003163     -0.011853      0.006281
      2.12326      1.42653      0.00641        -0.003548      0.005493     -0.001796
     10.75099      2.13819      0.01213         0.000794     -0.003602      0.002016
     -1.57382      3.56123      0.01110        -0.005677      0.006900      0.000761
      0.89078      2.13854      0.00548        -0.010805      0.008051     -0.007629
      0.89099      3.56147      0.00181        -0.009807      0.014155     -0.036229
      4.58864      0.00346      0.01135         0.008358      0.017147     -0.001393
      4.58894      1.42623      0.00646         0.009435     -0.008652     -0.050894
      9.51854      4.27281      0.01369         0.008726     -0.009921      0.000166
     -2.80632      5.69591      0.01434        -0.011379      0.006169      0.001017
      2.12300      4.27302      0.00000        -0.012432      0.022791     -0.064936
      2.12335      5.69594      0.00581        -0.004930     -0.024816     -0.000342
      7.05344      0.00333      0.01399         0.004485     -0.002098      0.001702
      7.05353      1.42635      0.01368        -0.006012      0.005362     -0.000098
      8.28610      6.40752      0.01601         0.004519     -0.003391     -0.000664
     -4.03885      7.83070      0.01636        -0.004407      0.005080     -0.000290
      3.35586      6.40753      0.01007         0.005705      0.001651      0.002602
      3.35599      7.83072      0.01320        -0.002475     -0.002109      0.000099
     -0.34146      4.27290      0.00723         0.019151     -0.012132      0.000282
     -0.34138      5.69591      0.00946        -0.006664      0.004482      0.003364
      3.35624      2.13791      0.00222         0.007991     -0.007523     -0.088850
      3.35573      3.56155      0.00139        -0.001678      0.011085     -0.055215
     -1.57395      6.40758      0.01311         0.012984     -0.003111     -0.000795
     -1.57385      7.83068      0.01438        -0.005484      0.004447      0.000151
      5.82093      2.13784      0.01033        -0.008212     -0.014417     -0.005548
      5.82114      3.56097      0.01156         0.000442     -0.000425      0.006233
      0.89092      6.40755      0.00907         0.002015     -0.000275      0.002993
      0.89106      7.83068      0.01235        -0.010295     -0.001923      0.000172
      4.58871      4.27293      0.00850         0.001981     -0.006573      0.008489
      4.58852      5.69606      0.01149         0.000477      0.012411      0.001459
      9.51845      0.00337      0.01490         0.007286     -0.007136      0.000241
      9.51855      1.42644      0.01438        -0.004470      0.011572     -0.000505
      8.28593      2.13803      0.01453         0.002740     -0.007074      0.000803
      8.28613      3.56115      0.01464        -0.005178      0.001799      0.000298
      7.05356      4.27269      0.01457         0.001673     -0.001020      0.000621
      7.05362      5.69588      0.01553        -0.003095      0.000542     -0.000419
      5.82112      6.40755      0.01489        -0.001749      0.000197     -0.000636
      5.82102      7.83073      0.01579        -0.001176      0.003152     -0.000521
      7.05363      8.54227      0.01631        -0.000489     -0.001533      0.000826
     -5.27149      9.96549      0.01495        -0.001158     -0.001524     -0.002407
     -2.80638      8.54234      0.01558         0.002094      0.000450     -0.000644
     -2.80627      9.96553      0.01362        -0.006252     -0.000124      0.002779
     -0.34149      8.54239      0.01378         0.006762     -0.000352      0.000485
     -0.34138      9.96550      0.01354        -0.006956      0.003977      0.001949
      2.12343      8.54232      0.01336         0.007384     -0.000904      0.001055
      2.12354      9.96544      0.01469        -0.008938      0.003966     -0.002297
      4.58846      8.54235      0.01505         0.007614     -0.006015      0.001028
      4.58853      9.96550      0.01517        -0.002441      0.005187      0.000552
      3.04930      2.68154      2.97302        -0.002493     -0.002869      0.029156
      4.02070      2.02068      3.03744        -1.392121      0.964266      0.017103
      2.07767      3.34267      2.91356         1.408145     -0.982575      0.227946
 -----------------------------------------------------------------------------------
    total drift:                               -0.000211     -0.000487      0.011919


--------------------------------------------------------------------------------------------------------



  FREE ENERGIE OF THE ION-ELECTRON SYSTEM (eV)
  ---------------------------------------------------
  free  energy   TOTEN  =      -525.14951326 eV

  energy  without entropy=     -525.14951326  energy(sigma->0) =     -525.14951326
 


--------------------------------------------------------------------------------------------------------


    POTLOK:  cpu time    1.4451: real time    1.4525


--------------------------------------------------------------------------------------------------------


 writing wavefunctions
     LOOP+:  cpu time  695.6576: real time  701.2879
    4ORBIT:  cpu time    0.0000: real time    0.0000

 total amount of memory used by VASP MPI-rank0   556209. kBytes
=======================================================================

   base      :      30000. kBytes
   nonl-proj :     184518. kBytes
   fftplans  :      31725. kBytes
   grid      :     282516. kBytes
   one-center:        162. kBytes
   wavefun   :      27288. kBytes
 
  
  
 General timing and accounting informations for this job:
 ========================================================
  
                  Total CPU time used (sec):      733.435
                            User time (sec):      711.283
                          System time (sec):       22.152
                         Elapsed time (sec):      740.142
  
                   Maximum memory used (kb):     1038372.
                   Average memory used (kb):          N/A
  
                          Minor page faults:       145720
                          Major page faults:          101
                 Voluntary context switches:         3788
