 vasp.6.2.1 16May21 (build Nov 06 2021 14:46:37) complex                        
  
 executed on             LinuxIFC date 2025.04.06  11:59:38
 running on  112 total cores
 distrk:  each k-point on   56 cores,    2 groups
 distr:  one band on NCORE=   1 cores,   56 groups


--------------------------------------------------------------------------------------------------------


 INCAR:
   ALGO = Conjugate
   KPAR = 2
   NCORE = 32
   ISMEAR = 0
   SIGMA = 0.01
   PREC = Accurate
   EDIFF = 1E-7
   ENCUT = 1000
   ISIF = 0
   METAGGA = R2SCAN
   LASPH = .TRUE.
   IVDW = 12
   VDW_S8 = 0.7898
   VDW_A1 = 0.4948
   VDW_A2 = 5.7308
   SYMPREC = 1E-7

 POTCAR:    PAW_PBE C_h 06Feb2004                 
 POTCAR:    PAW_PBE O_h 06Feb2004                 
 -----------------------------------------------------------------------------
|                                                                             |
|           W    W    AA    RRRRR   N    N  II  N    N   GGGG   !!!           |
|           W    W   A  A   R    R  NN   N  II  NN   N  G    G  !!!           |
|           W    W  A    A  R    R  N N  N  II  N N  N  G       !!!           |
|           W WW W  AAAAAA  RRRRR   N  N N  II  N  N N  G  GGG   !            |
|           WW  WW  A    A  R   R   N   NN  II  N   NN  G    G                |
|           W    W  A    A  R    R  N    N  II  N    N   GGGG   !!!           |
|                                                                             |
|     The value NCORE = 32 specified in the INCAR file was overwritten,       |
|     because it was not compatible with the 56 processes available:          |
|     NCORE = 1                                                               |
|     was used instead, please check that this makes sense for your           |
|     machine.                                                                |
|                                                                             |
 -----------------------------------------------------------------------------

 -----------------------------------------------------------------------------
|                                                                             |
|           W    W    AA    RRRRR   N    N  II  N    N   GGGG   !!!           |
|           W    W   A  A   R    R  NN   N  II  NN   N  G    G  !!!           |
|           W    W  A    A  R    R  N N  N  II  N N  N  G       !!!           |
|           W WW W  AAAAAA  RRRRR   N  N N  II  N  N N  G  GGG   !            |
|           WW  WW  A    A  R   R   N   NN  II  N   NN  G    G                |
|           W    W  A    A  R    R  N    N  II  N    N   GGGG   !!!           |
|                                                                             |
|     For optimal performance we recommend to set                             |
|       NCORE = 2 up to number-of-cores-per-socket                            |
|     NCORE specifies how many cores store one orbital (NPAR=cpu/NCORE).      |
|     This setting can greatly improve the performance of VASP for DFT.       |
|     The default, NCORE=1 might be grossly inefficient on modern             |
|     multi-core architectures or massively parallel machines. Do your        |
|     own testing! More info at https://www.vasp.at/wiki/index.php/NCORE      |
|     Unfortunately you need to use the default for GW and RPA                |
|     calculations (for HF NCORE is supported but not extensively tested      |
|     yet).                                                                   |
|                                                                             |
 -----------------------------------------------------------------------------

 POTCAR:    PAW_PBE C_h 06Feb2004                 
   VRHFIN =C: s2p2                                                                                  
   LEXCH  = PE                                                                                      
   EATOM  =   147.1560 eV,   10.8157 Ry                                                             
                                                                                                    
   TITEL  = PAW_PBE C_h 06Feb2004                                                                   
   LULTRA =        F    use ultrasoft PP ?                                                          
   IUNSCR =        1    unscreen: 0-lin 1-nonlin 2-no                                               
   RPACOR =    0.800    partial core radius                                                         
   POMASS =   12.011; ZVAL   =    4.000    mass and valenz                                          
   RCORE  =    1.100    outmost cutoff radius                                                       
   RWIGS  =    1.630; RWIGS  =    0.863    wigner-seitz radius (au A)                               
   ENMAX  =  700.000; ENMIN  =  500.000 eV                                                          
   ICORE  =        2    local potential                                                             
   LCOR   =        T    correct aug charges                                                         
   LPAW   =        T    paw PP                                                                      
   EAUG   =  946.768                                                                                
   DEXC   =    0.000                                                                                
   RMAX   =    1.128    core radius for proj-oper                                                   
   RAUG   =    1.300    factor for augmentation sphere                                              
   RDEP   =    1.162    radius for radial grids                                                     
   RDEPT  =    1.088    core radius for aug-charge                                                  
                                                                                                    
   Atomic configuration                                                                             
    4 entries                                                                                       
     n  l   j            E        occ.                                                              
     1  0  0.50      -273.3789   2.0000                                                             
     2  0  0.50       -13.7508   2.0000                                                             
     2  1  0.50        -5.2854   2.0000                                                             
     3  2  1.50        -5.4423   0.0000                                                             
   Description                                                                                      
     l       E           TYP  RCUT    TYP  RCUT                                                     
     0    -13.7508458     23  1.100                                                                 
     0     -8.2022199     23  1.100                                                                 
     1     -5.2854383     23  1.100                                                                 
     1      1.1560700     23  1.100                                                                 
     2     -5.4423304      7  1.100                                                                 
  local pseudopotential read in
  partial core-charges read in
  partial kinetic energy density read in
  atomic valenz-charges read in
  non local Contribution for L=           0  read in
    real space projection operators read in
  non local Contribution for L=           0  read in
    real space projection operators read in
  non local Contribution for L=           1  read in
    real space projection operators read in
  non local Contribution for L=           1  read in
    real space projection operators read in
    PAW grid and wavefunctions read in
 
   number of l-projection  operators is LMAX  =           4
   number of lm-projection operators is LMMAX =           8
 
 POTCAR:    PAW_PBE O_h 06Feb2004                 
   VRHFIN =O: s2p4                                                                                  
   LEXCH  = PE                                                                                      
   EATOM  =   432.3788 eV,   31.7789 Ry                                                             
                                                                                                    
   TITEL  = PAW_PBE O_h 06Feb2004                                                                   
   LULTRA =        F    use ultrasoft PP ?                                                          
   IUNSCR =        1    unscreen: 0-lin 1-nonlin 2-no                                               
   RPACOR =    0.800    partial core radius                                                         
   POMASS =   16.000; ZVAL   =    6.000    mass and valenz                                          
   RCORE  =    1.100    outmost cutoff radius                                                       
   RWIGS  =    1.400; RWIGS  =    0.741    wigner-seitz radius (au A)                               
   ENMAX  =  700.000; ENMIN  =  500.000 eV                                                          
   ICORE  =        2    local potential                                                             
   LCOR   =        T    correct aug charges                                                         
   LPAW   =        T    paw PP                                                                      
   EAUG   =  888.804                                                                                
   DEXC   =    0.000                                                                                
   RMAX   =    1.128    core radius for proj-oper                                                   
   RAUG   =    1.300    factor for augmentation sphere                                              
   RDEP   =    1.125    radius for radial grids                                                     
   RDEPT  =    1.088    core radius for aug-charge                                                  
                                                                                                    
   Atomic configuration                                                                             
    4 entries                                                                                       
     n  l   j            E        occ.                                                              
     1  0  0.50      -514.6923   2.0000                                                             
     2  0  0.50       -23.9615   2.0000                                                             
     2  1  0.50        -9.0305   4.0000                                                             
     3  2  1.50        -9.5241   0.0000                                                             
   Description                                                                                      
     l       E           TYP  RCUT    TYP  RCUT                                                     
     0    -23.9615319     23  1.100                                                                 
     0    -25.3221145     23  1.100                                                                 
     1     -9.0304911     23  1.100                                                                 
     1     -5.4802209     23  1.100                                                                 
     2     -9.5240782      7  1.100                                                                 
  local pseudopotential read in
  partial core-charges read in
  partial kinetic energy density read in
  atomic valenz-charges read in
  non local Contribution for L=           0  read in
    real space projection operators read in
  non local Contribution for L=           0  read in
    real space projection operators read in
  non local Contribution for L=           1  read in
    real space projection operators read in
  non local Contribution for L=           1  read in
    real space projection operators read in
    PAW grid and wavefunctions read in
 
   number of l-projection  operators is LMAX  =           4
   number of lm-projection operators is LMMAX =           8
 
 -----------------------------------------------------------------------------
|                                                                             |
|               ----> ADVICE to this user running VASP <----                  |
|                                                                             |
|     You have a (more or less) 'large supercell' and for larger cells it     |
|     might be more efficient to use real-space projection operators.         |
|     Therefore, try LREAL= Auto in the INCAR file.                           |
|     Mind: For very accurate calculation, you might also keep the            |
|     reciprocal projection scheme (i.e. LREAL=.FALSE.).                      |
|                                                                             |
 -----------------------------------------------------------------------------

  PAW_PBE C_h 06Feb2004                 :
 energy of atom  1       EATOM= -147.1560
 kinetic energy error for atom=    0.0031 (will be added to EATOM!!)
  PAW_PBE O_h 06Feb2004                 :
 energy of atom  2       EATOM= -432.3788
 kinetic energy error for atom=    0.0171 (will be added to EATOM!!)
 
 
 POSCAR:  C  O
  positions in cartesian coordinates
  No initial velocities read in

 METAGGA = R2SCA    LMAXTAU =  6    LMIXTAU =  F

 exchange correlation table for  LEXCH =        8
   RHO(1)=    0.500       N(1)  =     2000
   RHO(2)=  100.500       N(2)  =     4000
 


--------------------------------------------------------------------------------------------------------


 ion  position               nearest neighbor table
   1  0.972  0.000  0.001-  50 1.42   2 1.42  42 1.42
   2  0.039  0.134  0.001-   5 1.42   7 1.42   1 1.42
   3  0.172  0.000  0.001-  42 1.42  44 1.42   4 1.42
   4  0.239  0.134  0.000-   7 1.42   3 1.42  23 1.42
   5  0.972  0.200  0.001-   6 1.42   2 1.42  34 1.42
   6  0.039  0.334  0.001-   5 1.42  21 1.42  11 1.42
   7  0.172  0.200  0.000-   8 1.42   2 1.42   4 1.42
   8  0.239  0.334  0.000-  13 1.42   7 1.42  21 1.42
   9  0.372  0.000  0.001-  10 1.42  44 1.42  46 1.42
  10  0.439  0.134  0.000-  27 1.42   9 1.42  23 1.42
  11  0.972  0.400  0.001-  12 1.42  36 1.42   6 1.42
  12  0.039  0.534  0.001-  25 1.42  11 1.42  17 1.42
  13  0.372  0.400  0.000-   8 1.42  14 1.42  24 1.42
  14  0.439  0.534  0.000-  13 1.42  29 1.42  19 1.42
  15  0.572  0.000  0.001-  46 1.42  16 1.42  48 1.42
  16  0.639  0.134  0.001-  15 1.42  35 1.42  27 1.42
  17  0.972  0.600  0.001-  38 1.42  18 1.42  12 1.42
  18  0.039  0.734  0.001-  43 1.42  41 1.42  17 1.42
  19  0.572  0.600  0.001-  14 1.42  20 1.42  32 1.42
  20  0.639  0.734  0.001-  49 1.42  19 1.42  47 1.42
  21  0.172  0.400  0.000-  22 1.42   8 1.42   6 1.42
  22  0.239  0.534  0.000-  21 1.42  29 1.42  25 1.42
  23  0.372  0.200  0.000-  10 1.42   4 1.42  24 1.42
  24  0.439  0.334  0.000-  13 1.42  31 1.42  23 1.42
  25  0.172  0.600  0.001-  26 1.42  12 1.42  22 1.42
  26  0.239  0.734  0.001-  25 1.42  45 1.42  43 1.42
  27  0.572  0.200  0.001-  10 1.42  28 1.42  16 1.42
  28  0.639  0.334  0.001-  27 1.42  37 1.42  31 1.42
  29  0.372  0.600  0.000-  22 1.42  14 1.42  30 1.42
  30  0.439  0.734  0.001-  47 1.42  29 1.42  45 1.42
  31  0.572  0.400  0.000-  32 1.42  28 1.42  24 1.42
  32  0.639  0.534  0.001-  31 1.42  39 1.42  19 1.42
  33  0.772  0.000  0.001-  34 1.42  48 1.42  50 1.42
  34  0.839  0.134  0.001-  33 1.42   5 1.42  35 1.42
  35  0.772  0.200  0.001-  36 1.42  16 1.42  34 1.42
  36  0.839  0.334  0.001-  35 1.42  11 1.42  37 1.42
  37  0.772  0.400  0.001-  28 1.42  38 1.42  36 1.42
  38  0.839  0.534  0.001-  17 1.42  37 1.42  39 1.42
  39  0.772  0.600  0.001-  40 1.42  38 1.42  32 1.42
  40  0.839  0.734  0.001-  39 1.42  49 1.42  41 1.42
  41  0.972  0.800  0.001-  18 1.42  42 1.42  40 1.42
  42  0.039  0.934  0.001-   3 1.42  41 1.42   1 1.42
  43  0.172  0.800  0.001-  18 1.42  44 1.42  26 1.42
  44  0.239  0.934  0.001-   9 1.42  43 1.42   3 1.42
  45  0.372  0.800  0.001-  26 1.42  46 1.42  30 1.42
  46  0.439  0.934  0.001-  15 1.42  45 1.42   9 1.42
  47  0.572  0.800  0.001-  30 1.42  48 1.42  20 1.42
  48  0.639  0.934  0.001-  47 1.42  33 1.42  15 1.42
  49  0.772  0.800  0.001-  50 1.42  20 1.42  40 1.42
  50  0.839  0.934  0.001-  49 1.42   1 1.42  33 1.42
  51  0.373  0.251  0.223-  52 1.18  53 1.18
  52  0.421  0.189  0.226-  51 1.18
  53  0.325  0.313  0.220-  51 1.18
 
  LATTYP: Found a hexagonal cell.
 ALAT       =    12.3250000000
 C/A-ratio  =     1.6227180527
  
  Lattice vectors:
  
 A1 = (  12.3250000000,   0.0000000000,   0.0000000000)
 A2 = (  -6.1625000000,  10.6737631016,   0.0000000000)
 A3 = (   0.0000000000,   0.0000000000,  20.0000000000)


Analysis of symmetry for initial positions (statically):
=====================================================================
 Subroutine PRICEL returns:
 Original cell was already a primitive cell.
 

 Routine SETGRP: Setting up the symmetry group for a 
 hexagonal supercell.


 Subroutine GETGRP returns: Found  1 space group operations
 (whereof  1 operations were pure point group operations)
 out of a pool of 24 trial point group operations.


The static configuration has the point symmetry C_1 .


Analysis of symmetry for dynamics (positions and initial velocities):
=====================================================================
 Subroutine PRICEL returns:
 Original cell was already a primitive cell.
 

 Routine SETGRP: Setting up the symmetry group for a 
 hexagonal supercell.


 Subroutine GETGRP returns: Found  1 space group operations
 (whereof  1 operations were pure point group operations)
 out of a pool of 24 trial point group operations.


The dynamic configuration has the point symmetry C_1 .


 Subroutine INISYM returns: Found  1 space group operations
 (whereof  1 operations are pure point group operations),
 and found     1 'primitive' translations


----------------------------------------------------------------------------------------

                                     Primitive cell                                     

  volume of cell :    2631.0826

  direct lattice vectors                    reciprocal lattice vectors
    12.325000000  0.000000000  0.000000000     0.081135903  0.046843835  0.000000000
    -6.162500000 10.673763102  0.000000000     0.000000000  0.093687670  0.000000000
     0.000000000  0.000000000 20.000000000     0.000000000  0.000000000  0.050000000

  length of vectors
    12.325000000 12.325000000 20.000000000     0.093687670  0.093687670  0.050000000

  position of ions in fractional coordinates (direct lattice)
     0.972450841  0.000320818  0.000708389
     0.039118382  0.133659505  0.000550216
     0.172443627  0.000295449  0.000624535
     0.239096278  0.133647917  0.000320585
     0.972452058  0.200322012  0.000606523
     0.039128360  0.333643771  0.000555187
     0.172451764  0.200354552  0.000273959
     0.239124359  0.333665720  0.000090325
     0.372465565  0.000324403  0.000567391
     0.439137473  0.133619939  0.000322923
     0.972449824  0.400309362  0.000684513
     0.039124981  0.533636789  0.000716763
     0.372416176  0.400329481  0.000000000
     0.439099602  0.533638981  0.000290518
     0.572443676  0.000312125  0.000699475
     0.639110207  0.133631751  0.000684093
     0.972452703  0.600305653  0.000800361
     0.039124495  0.733640359  0.000818141
     0.572433471  0.600306242  0.000503618
     0.639111888  0.733641879  0.000659881
     0.172454630  0.400318228  0.000361306
     0.239120185  0.533636548  0.000473136
     0.372459750  0.200295993  0.000111246
     0.439107096  0.333673419  0.000069702
     0.172452155  0.600311506  0.000655425
     0.239123371  0.733638574  0.000718912
     0.572431082  0.200289171  0.000516621
     0.639112773  0.333618630  0.000577970
     0.372439808  0.600308022  0.000453556
     0.439116090  0.733637858  0.000617737
     0.572469358  0.400320504  0.000424897
     0.639119408  0.533650873  0.000574513
     0.772445723  0.000315427  0.000745201
     0.839116277  0.133640203  0.000719132
     0.772440513  0.200307432  0.000726291
     0.839120241  0.333635728  0.000731834
     0.772446320  0.400298367  0.000728722
     0.839118980  0.533633964  0.000776376
     0.772456143  0.600308173  0.000744639
     0.839115033  0.733643180  0.000789390
     0.972455313  0.800305582  0.000815291
     0.039114714  0.933643289  0.000747563
     0.172457971  0.800312211  0.000779216
     0.239134551  0.933647193  0.000681063
     0.372451396  0.800316674  0.000689249
     0.439124489  0.933644769  0.000676788
     0.572441101  0.800310054  0.000668168
     0.639115067  0.933638985  0.000734556
     0.772445098  0.800313187  0.000752577
     0.839116614  0.933644338  0.000758538
     0.373021009  0.251226878  0.222724679
     0.420879805  0.189313152  0.225945772
     0.325156981  0.313167186  0.219751936

  ion indices of the primitive-cell ions
   primitive index   ion index
                 1           1
                 2           2
                 3           3
                 4           4
                 5           5
                 6           6
                 7           7
                 8           8
                 9           9
                10          10
                11          11
                12          12
                13          13
                14          14
                15          15
                16          16
                17          17
                18          18
                19          19
                20          20
                21          21
                22          22
                23          23
                24          24
                25          25
                26          26
                27          27
                28          28
                29          29
                30          30
                31          31
                32          32
                33          33
                34          34
                35          35
                36          36
                37          37
                38          38
                39          39
                40          40
                41          41
                42          42
                43          43
                44          44
                45          45
                46          46
                47          47
                48          48
                49          49
                50          50
                51          51
                52          52
                53          53

----------------------------------------------------------------------------------------

 
 
 KPOINTS: auto                                    

Automatic generation of k-mesh.
 Grid dimensions read from file:
 generate k-points for:    1    1    1

 Generating k-lattice:

  Cartesian coordinates                     Fractional coordinates (reciprocal lattice)
     0.081135903  0.046843835  0.000000000     1.000000000 -0.000000000  0.000000000
     0.000000000  0.093687670  0.000000000     0.000000000  1.000000000  0.000000000
     0.000000000  0.000000000  0.050000000     0.000000000  0.000000000  1.000000000

  Length of vectors
     0.093687670  0.093687670  0.050000000

  Shift w.r.t. Gamma in fractional coordinates (k-lattice)
     0.000000000  0.000000000  0.000000000

 
 Subroutine IBZKPT returns following result:
 ===========================================
 
 Found      1 irreducible k-points:
 
 Following reciprocal coordinates:
            Coordinates               Weight
  0.000000  0.000000  0.000000      1.000000
 
 Following cartesian coordinates:
            Coordinates               Weight
  0.000000  0.000000  0.000000      1.000000
 


--------------------------------------------------------------------------------------------------------




 Dimension of arrays:
   k-points           NKPTS =      1   k-points in BZ     NKDIM =      1   number of bands    NBANDS=    168
   number of dos      NEDOS =    301   number of ions     NIONS =     53
   non local maximal  LDIM  =      4   non local SUM 2l+1 LMDIM =      8
   total plane-waves  NPLWV = ******
   max r-space proj   IRMAX =      1   max aug-charges    IRDMAX=   9736
   dimension x,y,z NGX =   128 NGY =  128 NGZ =  210
   dimension x,y,z NGXF=   256 NGYF=  256 NGZF=  420
   support grid    NGXF=   256 NGYF=  256 NGZF=  420
   ions per type =              51   2
   NGX,Y,Z   is equivalent  to a cutoff of  17.27, 17.27, 17.46 a.u.
   NGXF,Y,Z  is equivalent  to a cutoff of  34.53, 34.53, 34.91 a.u.

 SYSTEM =  unknown system                          
 POSCAR =   C  O                                   

 Startparameter for this run:
   NWRITE =      2    write-flag & timer
   PREC   = accura    normal or accurate (medium, high low for compatibility)
   ISTART =      0    job   : 0-new  1-cont  2-samecut
   ICHARG =      2    charge: 1-file 2-atom 10-const
   ISPIN  =      1    spin polarized calculation?
   LNONCOLLINEAR =      F non collinear calculations
   LSORBIT =      F    spin-orbit coupling
   INIWAV =      1    electr: 0-lowe 1-rand  2-diag
   LASPH  =      T    aspherical Exc in radial PAW
 Electronic Relaxation 1
   ENCUT  = 1000.0 eV  73.50 Ry    8.57 a.u.  31.78 31.78 51.57*2*pi/ulx,y,z
   ENINI  = 1000.0     initial cutoff
   ENAUG  =  946.8 eV  augmentation charge cutoff
   NELM   =     60;   NELMIN=  2; NELMDL= -5     # of ELM steps 
   EDIFF  = 0.1E-06   stopping-criterion for ELM
   LREAL  =      F    real-space projection
   NLSPLINE    = F    spline interpolate recip. space projectors
   LCOMPAT=      F    compatible to vasp.4.4
   GGA_COMPAT  = T    GGA compatible to vasp.4.4-vasp.4.6
   LMAXPAW     = -100 max onsite density
   LMAXMIX     =    2 max onsite mixed and CHGCAR
   VOSKOWN=      0    Vosko Wilk Nusair interpolation
   ROPT   =    0.00000   0.00000
 Ionic relaxation
   EDIFFG = 0.1E-05   stopping-criterion for IOM
   NSW    =      0    number of steps for IOM
   NBLOCK =      1;   KBLOCK =      1    inner block; outer block 
   IBRION =     -1    ionic relax: 0-MD 1-quasi-New 2-CG
   NFREE  =      0    steps in history (QN), initial steepest desc. (CG)
   ISIF   =      0    stress and relaxation
   IWAVPR =     10    prediction:  0-non 1-charg 2-wave 3-comb
   ISYM   =      2    0-nonsym 1-usesym 2-fastsym
   LCORR  =      T    Harris-Foulkes like correction to forces

   POTIM  = 0.5000    time-step for ionic-motion
   TEIN   =    0.0    initial temperature
   TEBEG  =    0.0;   TEEND  =   0.0 temperature during run
   SMASS  =  -3.00    Nose mass-parameter (am)
   estimated Nose-frequenzy (Omega)   =  0.10E-29 period in steps = 0.13E+47 mass=  -0.347E-26a.u.
   SCALEE = 1.0000    scale energy and forces
   NPACO  =    256;   APACO  = 16.0  distance and # of slots for P.C.
   PSTRESS=    0.0 pullay stress

  Mass of Ions in am
   POMASS =  12.01 16.00
  Ionic Valenz
   ZVAL   =   4.00  6.00
  Atomic Wigner-Seitz radii
   RWIGS  =  -1.00 -1.00
  virtual crystal weights 
   VCA    =   1.00  1.00
   NELECT =     216.0000    total number of electrons
   NUPDOWN=      -1.0000    fix difference up-down

 DOS related values:
   EMIN   =  10.00;   EMAX   =-10.00  energy-range for DOS
   EFERMI =   0.00
   ISMEAR =     0;   SIGMA  =   0.01  broadening in eV -4-tet -1-fermi 0-gaus

 Electronic relaxation 2 (details)
   IALGO  =     58    algorithm
   LDIAG  =      T    sub-space diagonalisation (order eigenvalues)
   LSUBROT=      F    optimize rotation matrix (better conditioning)
   TURBO    =      0    0=normal 1=particle mesh
   IRESTART =      0    0=no restart 2=restart with 2 vectors
   NREBOOT  =      0    no. of reboots
   NMIN     =      0    reboot dimension
   EREF     =   0.00    reference energy to select bands
   IMIX   =      4    mixing-type and parameters
     AMIX     =   0.40;   BMIX     =  1.00
     AMIX_MAG =   1.60;   BMIX_MAG =  1.00
     AMIN     =   0.10
     WC   =   100.;   INIMIX=   1;  MIXPRE=   1;  MAXMIX= -45

 Intra band minimization:
   WEIMIN = 0.0000     energy-eigenvalue tresh-hold
   EBREAK =  0.15E-09  absolut break condition
   DEPER  =   0.30     relativ break condition  

   TIME   =   0.40     timestep for ELM

  volume/ion in A,a.u.               =      49.64       335.01
  Fermi-wavevector in a.u.,A,eV,Ry     =   0.711510  1.344560  6.887909  0.506247
  Thomas-Fermi vector in A             =   1.798641
 
 Write flags
   LWAVE        =      T    write WAVECAR
   LDOWNSAMPLE  =      F    k-point downsampling of WAVECAR
   LCHARG       =      T    write CHGCAR
   LVTOT        =      F    write LOCPOT, total local potential
   LVHAR        =      F    write LOCPOT, Hartree potential only
   LELF         =      F    write electronic localiz. function (ELF)
   LORBIT       =      0    0 simple, 1 ext, 2 COOP (PROOUT), +10 PAW based schemes


 Dipole corrections
   LMONO  =      F    monopole corrections only (constant potential shift)
   LDIPOL =      F    correct potential (dipole corrections)
   IDIPOL =      0    1-x, 2-y, 3-z, 4-all directions 
   EPSILON=  1.0000000 bulk dielectric constant

 Exchange correlation treatment:
   GGA     =    --    GGA type
   LEXCH   =     8    internal setting for exchange type
   VOSKOWN=      0    Vosko Wilk Nusair interpolation
   LHFCALC =     F    Hartree Fock is set to
   LHFONE  =     F    Hartree Fock one center treatment
   AEXX    =    0.0000 exact exchange contribution

 Linear response parameters
   LEPSILON=     F    determine dielectric tensor
   LRPA    =     F    only Hartree local field effects (RPA)
   LNABLA  =     F    use nabla operator in PAW spheres
   LVEL    =     F    velocity operator in full k-point grid
   LINTERFAST=   F  fast interpolation
   KINTER  =     0    interpolate to denser k-point grid
   CSHIFT  =0.1000    complex shift for real part using Kramers Kronig
   OMEGAMAX=  -1.0    maximum frequency
   DEG_THRESHOLD= 0.2000000E-02 threshold for treating states as degnerate
   RTIME   =   -0.100 relaxation time in fs
  (WPLASMAI=    0.000 imaginary part of plasma frequency in eV, 0.658/RTIME)
   DFIELD  = 0.0000000 0.0000000 0.0000000 field for delta impulse in time
 
 Orbital magnetization related:
   ORBITALMAG=     F  switch on orbital magnetization
   LCHIMAG   =     F  perturbation theory with respect to B field
   DQ        =  0.001000  dq finite difference perturbation B field
   LLRAUG    =     F  two centre corrections for induced B field



--------------------------------------------------------------------------------------------------------


 Static calculation
 charge density and potential will be updated during run
 non-spin polarized calculation
 Conjugate gradient for all bands (Freysoldt, et al. PRB 79, 241103 (2009))
 preconditioned conjugated gradient                                        
 perform sub-space diagonalisation
    before iterative eigenvector-optimisation
 modified Broyden-mixing scheme, WC =      100.0
 initial mixing is a Kerker type mixing with AMIX =  0.4000 and BMIX =      1.0000
 Hartree-type preconditioning will be used
 using additional bands           60
 reciprocal scheme for non local part
 use partial core corrections
 no Harris-corrections to forces 
 use gradient corrections 
 use of overlap-Matrix (Vanderbilt PP)
 Gauss-broadening in eV      SIGMA  =   0.01


--------------------------------------------------------------------------------------------------------


  energy-cutoff  :     1000.00
  volume of cell :     2631.08
      direct lattice vectors                 reciprocal lattice vectors
    12.325000000  0.000000000  0.000000000     0.081135903  0.046843835  0.000000000
    -6.162500000 10.673763102  0.000000000     0.000000000  0.093687670  0.000000000
     0.000000000  0.000000000 20.000000000     0.000000000  0.000000000  0.050000000

  length of vectors
    12.325000000 12.325000000 20.000000000     0.093687670  0.093687670  0.050000000


 
 k-points in units of 2pi/SCALE and weight: auto                                    
   0.00000000  0.00000000  0.00000000       1.000
 
 k-points in reciprocal lattice and weights: auto                                    
   0.00000000  0.00000000  0.00000000       1.000
 
 position of ions in fractional coordinates (direct lattice) 
   0.97245084  0.00032082  0.00070839
   0.03911838  0.13365950  0.00055022
   0.17244363  0.00029545  0.00062454
   0.23909628  0.13364792  0.00032058
   0.97245206  0.20032201  0.00060652
   0.03912836  0.33364377  0.00055519
   0.17245176  0.20035455  0.00027396
   0.23912436  0.33366572  0.00009033
   0.37246557  0.00032440  0.00056739
   0.43913747  0.13361994  0.00032292
   0.97244982  0.40030936  0.00068451
   0.03912498  0.53363679  0.00071676
   0.37241618  0.40032948  0.00000000
   0.43909960  0.53363898  0.00029052
   0.57244368  0.00031213  0.00069947
   0.63911021  0.13363175  0.00068409
   0.97245270  0.60030565  0.00080036
   0.03912449  0.73364036  0.00081814
   0.57243347  0.60030624  0.00050362
   0.63911189  0.73364188  0.00065988
   0.17245463  0.40031823  0.00036131
   0.23912018  0.53363655  0.00047314
   0.37245975  0.20029599  0.00011125
   0.43910710  0.33367342  0.00006970
   0.17245216  0.60031151  0.00065542
   0.23912337  0.73363857  0.00071891
   0.57243108  0.20028917  0.00051662
   0.63911277  0.33361863  0.00057797
   0.37243981  0.60030802  0.00045356
   0.43911609  0.73363786  0.00061774
   0.57246936  0.40032050  0.00042490
   0.63911941  0.53365087  0.00057451
   0.77244572  0.00031543  0.00074520
   0.83911628  0.13364020  0.00071913
   0.77244051  0.20030743  0.00072629
   0.83912024  0.33363573  0.00073183
   0.77244632  0.40029837  0.00072872
   0.83911898  0.53363396  0.00077638
   0.77245614  0.60030817  0.00074464
   0.83911503  0.73364318  0.00078939
   0.97245531  0.80030558  0.00081529
   0.03911471  0.93364329  0.00074756
   0.17245797  0.80031221  0.00077922
   0.23913455  0.93364719  0.00068106
   0.37245140  0.80031667  0.00068925
   0.43912449  0.93364477  0.00067679
   0.57244110  0.80031005  0.00066817
   0.63911507  0.93363899  0.00073456
   0.77244510  0.80031319  0.00075258
   0.83911661  0.93364434  0.00075854
   0.37302101  0.25122688  0.22272468
   0.42087980  0.18931315  0.22594577
   0.32515698  0.31316719  0.21975194
 
 position of ions in cartesian coordinates  (Angst):
  11.98347958  0.00342433  0.01416777
  -0.34154264  1.42664989  0.01100432
   2.12354700  0.00315355  0.01249070
   2.12325634  1.42652621  0.00641170
  10.75098721  2.13818970  0.01213047
  -1.57382270  3.56123457  0.01110375
   0.89078307  2.13853702  0.00547917
   0.89099273  3.56146885  0.00180651
   4.58863896  0.00346260  0.01134782
   4.58893648  1.42622757  0.00645846
   9.51853763  4.27280730  0.01369027
  -2.80632132  5.69591267  0.01433526
   2.12299894  4.27302204  0.00000000
   2.12335237  5.69593607  0.00581036
   7.05344483  0.00333155  0.01398950
   7.05352764  1.42635365  0.01368187
   8.28609598  6.40752033  0.01600723
  -4.03884931  7.83070339  0.01636283
   3.35585531  6.40752662  0.01007237
   3.35598594  7.83071962  0.01319763
  -0.34145776  4.27290193  0.00722612
  -0.34137895  5.69591010  0.00946273
   3.35624236  2.13791198  0.00222492
   3.35573251  3.56155103  0.00139405
  -1.57394684  6.40758280  0.01310850
  -1.57385216  7.83068434  0.01437823
   5.82093107  2.13783916  0.01033241
   5.82114012  3.56096622  0.01155939
   0.89092245  6.40754561  0.00907111
   0.89106251  7.83067670  0.01235474
   4.58870974  4.27292622  0.00849795
   4.58852320  5.69606300  0.01149026
   9.51844972  0.00336679  0.01490402
   9.51855036  1.42644387  0.01438264
   8.28593477  2.13803408  0.01452582
   8.28612680  3.56114872  0.01463668
   7.05356221  4.27268994  0.01457444
   7.05362213  5.69588251  0.01552751
   5.82112285  6.40754723  0.01489279
   5.82101669  7.83073350  0.01578780
   7.05362858  8.54227219  0.01630582
  -5.27148792  9.96548729  0.01495127
  -2.80637951  8.54234295  0.01558431
  -2.80626749  9.96552896  0.01362126
  -0.34148805  8.54239058  0.01378498
  -0.34137657  9.96550309  0.01353576
   2.12342586  8.54231992  0.01336337
   2.12354296  9.96544135  0.01469111
   4.58845581  8.54235337  0.01505154
   4.58852904  9.96549848  0.01517076
   3.04929830  2.68153618  4.45449359
   4.02070129  2.02068374  4.51891545
   2.07766701  3.34267235  4.39503872
 


--------------------------------------------------------------------------------------------------------


 k-point   1 :   0.0000 0.0000 0.0000  plane waves:  189031

 maximum and minimum number of plane-waves per node :    189031   189031

 maximum number of plane-waves:    189031
 maximum index in each direction: 
   IXMAX=   31   IYMAX=   31   IZMAX=   51
   IXMIN=  -31   IYMIN=  -31   IZMIN=  -51


 serial   3D FFT for wavefunctions
 parallel 3D FFT for charge:
    minimum data exchange during FFTs selected (reduces bandwidth)


 total amount of memory used by VASP MPI-rank0   556209. kBytes
=======================================================================

   base      :      30000. kBytes
   nonl-proj :     184518. kBytes
   fftplans  :      31725. kBytes
   grid      :     282516. kBytes
   one-center:        162. kBytes
   wavefun   :      27288. kBytes
 
     INWAV:  cpu time    0.0000: real time    0.0000
 Broyden mixing: mesh for mixing (old mesh)
   NGX = 63   NGY = 63   NGZ =103
  (NGX  =256   NGY  =256   NGZ  =420)
  gives a total of 408807 points

 initial charge density was supplied:
 charge density of overlapping atoms calculated
 number of electron     216.0000000 magnetization 
 keeping initial charge density in first step


--------------------------------------------------------------------------------------------------------


 Maximum index for augmentation-charges          459 (set IRDMAX)


--------------------------------------------------------------------------------------------------------


 First call to EWALD:  gamma=   0.128
 Maximum number of real-space cells 3x 3x 2
 Maximum number of reciprocal cells 3x 3x 4

    FEWALD:  cpu time    0.0022: real time    0.0022


--------------------------------------- Iteration      1(   1)  ---------------------------------------


    POTLOK:  cpu time    1.2842: real time    1.2921
    SETDIJ:  cpu time    0.1891: real time    0.1896
    TRIAL :  cpu time   21.9104: real time   22.0784
    CORREC:  cpu time    0.0004: real time    0.0006
    --------------------------------------------
      LOOP:  cpu time   23.3974: real time   23.5750

 eigenvalue-minimisations  :   336
 total energy-change (2. order) : 0.2417037E+04  (-0.1181037E+05)
 number of electron     216.0000000 magnetization 
 augmentation part      216.0000000 magnetization 

 Free energy of the ion-electron system (eV)
  ---------------------------------------------------
  alpha Z        PSCENC =        59.93625244
  Ewald energy   TEWEN  =     32604.61742785
  -Hartree energ DENC   =    -38780.03525284
  -exchange      EXHF   =         0.00000000
  -V(xc)+E(xc)   XCENC  =       605.08207819
  PAW double counting   =      6340.10990386    -6200.63067283
  entropy T*S    EENTRO =        -0.00000000
  eigenvalues    EBANDS =      -581.56664376
  atomic energy  EATOM  =      8369.52358910
  ---------------------------------------------------
  free energy    TOTEN  =      2417.03668201 eV

  energy without entropy =     2417.03668201  energy(sigma->0) =     2417.03668201


--------------------------------------------------------------------------------------------------------




--------------------------------------- Iteration      1(   2)  ---------------------------------------


    TRIAL :  cpu time   31.0819: real time   31.3149
    CORREC:  cpu time    0.0001: real time    0.0001
    --------------------------------------------
      LOOP:  cpu time   31.1314: real time   31.3651

 eigenvalue-minimisations  :   560
 total energy-change (2. order) :-0.2436756E+04  (-0.2307391E+04)
 number of electron     216.0000000 magnetization 
 augmentation part      216.0000000 magnetization 

 Free energy of the ion-electron system (eV)
  ---------------------------------------------------
  alpha Z        PSCENC =        59.93625244
  Ewald energy   TEWEN  =     32604.61742785
  -Hartree energ DENC   =    -38780.03525284
  -exchange      EXHF   =         0.00000000
  -V(xc)+E(xc)   XCENC  =       605.08207819
  PAW double counting   =      6340.10990386    -6200.63067283
  entropy T*S    EENTRO =        -0.00000000
  eigenvalues    EBANDS =     -3018.32307923
  atomic energy  EATOM  =      8369.52358910
  ---------------------------------------------------
  free energy    TOTEN  =       -19.71975346 eV

  energy without entropy =      -19.71975346  energy(sigma->0) =      -19.71975346


--------------------------------------------------------------------------------------------------------




--------------------------------------- Iteration      1(   3)  ---------------------------------------


    TRIAL :  cpu time   24.1770: real time   24.3709
    CORREC:  cpu time    0.0001: real time    0.0003
    --------------------------------------------
      LOOP:  cpu time   24.2774: real time   24.4748

 eigenvalue-minimisations  :   392
 total energy-change (2. order) :-0.5608677E+03  (-0.5580313E+03)
 number of electron     216.0000000 magnetization 
 augmentation part      216.0000000 magnetization 

 Free energy of the ion-electron system (eV)
  ---------------------------------------------------
  alpha Z        PSCENC =        59.93625244
  Ewald energy   TEWEN  =     32604.61742785
  -Hartree energ DENC   =    -38780.03525284
  -exchange      EXHF   =         0.00000000
  -V(xc)+E(xc)   XCENC  =       605.08207819
  PAW double counting   =      6340.10990386    -6200.63067283
  entropy T*S    EENTRO =        -0.00000000
  eigenvalues    EBANDS =     -3579.19074753
  atomic energy  EATOM  =      8369.52358910
  ---------------------------------------------------
  free energy    TOTEN  =      -580.58742176 eV

  energy without entropy =     -580.58742176  energy(sigma->0) =     -580.58742176


--------------------------------------------------------------------------------------------------------




--------------------------------------- Iteration      1(   4)  ---------------------------------------


    TRIAL :  cpu time   26.4869: real time   26.6861
    CORREC:  cpu time    0.0001: real time    0.0001
    --------------------------------------------
      LOOP:  cpu time   26.5223: real time   26.7265

 eigenvalue-minimisations  :   448
 total energy-change (2. order) :-0.2623433E+02  (-0.2607880E+02)
 number of electron     216.0000000 magnetization 
 augmentation part      216.0000000 magnetization 

 Free energy of the ion-electron system (eV)
  ---------------------------------------------------
  alpha Z        PSCENC =        59.93625244
  Ewald energy   TEWEN  =     32604.61742785
  -Hartree energ DENC   =    -38780.03525284
  -exchange      EXHF   =         0.00000000
  -V(xc)+E(xc)   XCENC  =       605.08207819
  PAW double counting   =      6340.10990386    -6200.63067283
  entropy T*S    EENTRO =        -0.00000000
  eigenvalues    EBANDS =     -3605.42507301
  atomic energy  EATOM  =      8369.52358910
  ---------------------------------------------------
  free energy    TOTEN  =      -606.82174724 eV

  energy without entropy =     -606.82174724  energy(sigma->0) =     -606.82174724


--------------------------------------------------------------------------------------------------------




--------------------------------------- Iteration      1(   5)  ---------------------------------------


    TRIAL :  cpu time   21.8558: real time   22.0230
    CORREC:  cpu time    0.0001: real time    0.0001
    CHARGE:  cpu time    2.2897: real time    2.3064
    --------------------------------------------
      LOOP:  cpu time   24.2184: real time   24.4030

 eigenvalue-minimisations  :   336
 total energy-change (2. order) :-0.9103824E+00  (-0.9098949E+00)
 number of electron     216.0000000 magnetization 
 augmentation part       -0.4473163 magnetization 

 Free energy of the ion-electron system (eV)
  ---------------------------------------------------
  alpha Z        PSCENC =        59.93625244
  Ewald energy   TEWEN  =     32604.61742785
  -Hartree energ DENC   =    -38780.03525284
  -exchange      EXHF   =         0.00000000
  -V(xc)+E(xc)   XCENC  =       605.08207819
  PAW double counting   =      6340.10990386    -6200.63067283
  entropy T*S    EENTRO =        -0.00000000
  eigenvalues    EBANDS =     -3606.33545540
  atomic energy  EATOM  =      8369.52358910
  ---------------------------------------------------
  free energy    TOTEN  =      -607.73212963 eV

  energy without entropy =     -607.73212963  energy(sigma->0) =     -607.73212963


--------------------------------------------------------------------------------------------------------




--------------------------------------- Iteration      1(   6)  ---------------------------------------


    POTLOK:  cpu time    1.2569: real time    1.2643
    SETDIJ:  cpu time    0.1833: real time    0.1840
    TRIAL :  cpu time   15.6542: real time   15.8091
    CORREC:  cpu time    6.9001: real time    6.9473
    CHARGE:  cpu time    2.2883: real time    2.3049
    --------------------------------------------
      LOOP:  cpu time   26.3642: real time   26.5927

 eigenvalue-minimisations  :     0
 total energy-change (2. order) : 0.9796952E+02  (-0.1125529E+02)
 number of electron     216.0000000 magnetization 
 augmentation part       -0.5092967 magnetization 

 Free energy of the ion-electron system (eV)
  ---------------------------------------------------
  alpha Z        PSCENC =        59.93625244
  Ewald energy   TEWEN  =     32604.61742785
  -Hartree energ DENC   =    -40094.31187356
  -exchange      EXHF   =         0.00000000
  -V(xc)+E(xc)   XCENC  =       676.76009162
  PAW double counting   =    119372.65541656  -119233.06920631
  entropy T*S    EENTRO =        -0.00000000
  eigenvalues    EBANDS =     -2265.87430618
  atomic energy  EATOM  =      8369.52358910
  ---------------------------------------------------
  free energy    TOTEN  =      -509.76260849 eV

  energy without entropy =     -509.76260849  energy(sigma->0) =     -509.76260849


--------------------------------------------------------------------------------------------------------




--------------------------------------- Iteration      1(   7)  ---------------------------------------


    POTLOK:  cpu time    1.2568: real time    1.2640
    SETDIJ:  cpu time    0.1787: real time    0.1792
    TRIAL :  cpu time   15.5775: real time   15.6883
    CORREC:  cpu time    6.8856: real time    6.9307
    CHARGE:  cpu time    2.2832: real time    2.2991
    --------------------------------------------
      LOOP:  cpu time   26.2244: real time   26.4043

 eigenvalue-minimisations  :     0
 total energy-change (2. order) :-0.1126844E+02  (-0.1489420E+01)
 number of electron     216.0000000 magnetization 
 augmentation part       -0.5427094 magnetization 

 Free energy of the ion-electron system (eV)
  ---------------------------------------------------
  alpha Z        PSCENC =        59.93625244
  Ewald energy   TEWEN  =     32604.61742785
  -Hartree energ DENC   =    -39693.62394433
  -exchange      EXHF   =         0.00000000
  -V(xc)+E(xc)   XCENC  =       659.18714760
  PAW double counting   =    138729.98226289  -138588.65960032
  entropy T*S    EENTRO =        -0.00000000
  eigenvalues    EBANDS =     -2661.99418207
  atomic energy  EATOM  =      8369.52358910
  ---------------------------------------------------
  free energy    TOTEN  =      -521.03104684 eV

  energy without entropy =     -521.03104684  energy(sigma->0) =     -521.03104684


--------------------------------------------------------------------------------------------------------




--------------------------------------- Iteration      1(   8)  ---------------------------------------


    POTLOK:  cpu time    1.2614: real time    1.2684
    SETDIJ:  cpu time    0.1710: real time    0.1715
    TRIAL :  cpu time   15.5676: real time   15.6842
    CORREC:  cpu time    6.8854: real time    6.9348
    CHARGE:  cpu time    2.2946: real time    2.3106
    --------------------------------------------
      LOOP:  cpu time   26.2354: real time   26.4285

 eigenvalue-minimisations  :     0
 total energy-change (2. order) :-0.1489524E+01  (-0.4823901E+00)
 number of electron     216.0000000 magnetization 
 augmentation part       -0.5436344 magnetization 

 Free energy of the ion-electron system (eV)
  ---------------------------------------------------
  alpha Z        PSCENC =        59.93625244
  Ewald energy   TEWEN  =     32604.61742785
  -Hartree energ DENC   =    -39664.04914131
  -exchange      EXHF   =         0.00000000
  -V(xc)+E(xc)   XCENC  =       658.07754400
  PAW double counting   =    148482.26426998  -148340.81457909
  entropy T*S    EENTRO =        -0.00000000
  eigenvalues    EBANDS =     -2692.07593369
  atomic energy  EATOM  =      8369.52358910
  ---------------------------------------------------
  free energy    TOTEN  =      -522.52057071 eV

  energy without entropy =     -522.52057071  energy(sigma->0) =     -522.52057071


--------------------------------------------------------------------------------------------------------




--------------------------------------- Iteration      1(   9)  ---------------------------------------


    POTLOK:  cpu time    1.2662: real time    1.2732
    SETDIJ:  cpu time    0.1683: real time    0.1688
    TRIAL :  cpu time   15.5663: real time   15.6738
    CORREC:  cpu time    6.8592: real time    6.9151
    CHARGE:  cpu time    2.2930: real time    2.3090
    --------------------------------------------
      LOOP:  cpu time   26.1791: real time   26.3709

 eigenvalue-minimisations  :     0
 total energy-change (2. order) :-0.4820791E+00  (-0.1930013E+00)
 number of electron     216.0000000 magnetization 
 augmentation part       -0.5401765 magnetization 

 Free energy of the ion-electron system (eV)
  ---------------------------------------------------
  alpha Z        PSCENC =        59.93625244
  Ewald energy   TEWEN  =     32604.61742785
  -Hartree energ DENC   =    -39670.64390986
  -exchange      EXHF   =         0.00000000
  -V(xc)+E(xc)   XCENC  =       658.03338035
  PAW double counting   =    156530.36203981  -156388.83931416
  entropy T*S    EENTRO =        -0.00000000
  eigenvalues    EBANDS =     -2685.99211530
  atomic energy  EATOM  =      8369.52358910
  ---------------------------------------------------
  free energy    TOTEN  =      -523.00264977 eV

  energy without entropy =     -523.00264977  energy(sigma->0) =     -523.00264977


--------------------------------------------------------------------------------------------------------




--------------------------------------- Iteration      1(  10)  ---------------------------------------


    POTLOK:  cpu time    1.2642: real time    1.2719
    SETDIJ:  cpu time    0.1696: real time    0.1702
    TRIAL :  cpu time   15.5777: real time   15.6929
    CORREC:  cpu time    6.8809: real time    6.9294
    CHARGE:  cpu time    2.2838: real time    2.3003
    --------------------------------------------
      LOOP:  cpu time   26.2005: real time   26.4169

 eigenvalue-minimisations  :     0
 total energy-change (2. order) :-0.1927464E+00  (-0.8564886E-01)
 number of electron     216.0000000 magnetization 
 augmentation part       -0.5345762 magnetization 

 Free energy of the ion-electron system (eV)
  ---------------------------------------------------
  alpha Z        PSCENC =        59.93625244
  Ewald energy   TEWEN  =     32604.61742785
  -Hartree energ DENC   =    -39669.74742539
  -exchange      EXHF   =         0.00000000
  -V(xc)+E(xc)   XCENC  =       657.93169261
  PAW double counting   =    160359.73294201  -160218.16031380
  entropy T*S    EENTRO =        -0.00000000
  eigenvalues    EBANDS =     -2687.02956100
  atomic energy  EATOM  =      8369.52358910
  ---------------------------------------------------
  free energy    TOTEN  =      -523.19539618 eV

  energy without entropy =     -523.19539618  energy(sigma->0) =     -523.19539618


--------------------------------------------------------------------------------------------------------




--------------------------------------- Iteration      1(  11)  ---------------------------------------


    POTLOK:  cpu time    1.2582: real time    1.2654
    SETDIJ:  cpu time    0.1763: real time    0.1768
    TRIAL :  cpu time   15.5836: real time   15.7010
    CORREC:  cpu time    6.8808: real time    6.9259
    CHARGE:  cpu time    2.2820: real time    2.2978
    --------------------------------------------
      LOOP:  cpu time   26.2023: real time   26.3895

 eigenvalue-minimisations  :     0
 total energy-change (2. order) :-0.8547322E-01  (-0.3303021E-01)
 number of electron     216.0000000 magnetization 
 augmentation part       -0.5308059 magnetization 

 Free energy of the ion-electron system (eV)
  ---------------------------------------------------
  alpha Z        PSCENC =        59.93625244
  Ewald energy   TEWEN  =     32604.61742785
  -Hartree energ DENC   =    -39663.77219863
  -exchange      EXHF   =         0.00000000
  -V(xc)+E(xc)   XCENC  =       657.85027744
  PAW double counting   =    160908.52031343  -160766.96700944
  entropy T*S    EENTRO =        -0.00000000
  eigenvalues    EBANDS =     -2692.98952159
  atomic energy  EATOM  =      8369.52358910
  ---------------------------------------------------
  free energy    TOTEN  =      -523.28086940 eV

  energy without entropy =     -523.28086940  energy(sigma->0) =     -523.28086940


--------------------------------------------------------------------------------------------------------




--------------------------------------- Iteration      1(  12)  ---------------------------------------


    POTLOK:  cpu time    1.2641: real time    1.2714
    SETDIJ:  cpu time    0.1668: real time    0.1674
    TRIAL :  cpu time   15.5740: real time   15.6858
    CORREC:  cpu time    6.8800: real time    6.9299
    CHARGE:  cpu time    2.2974: real time    2.3139
    --------------------------------------------
      LOOP:  cpu time   26.2243: real time   26.4193

 eigenvalue-minimisations  :     0
 total energy-change (2. order) :-0.3298398E-01  (-0.1012916E-01)
 number of electron     216.0000000 magnetization 
 augmentation part       -0.5304865 magnetization 

 Free energy of the ion-electron system (eV)
  ---------------------------------------------------
  alpha Z        PSCENC =        59.93625244
  Ewald energy   TEWEN  =     32604.61742785
  -Hartree energ DENC   =    -39659.32637779
  -exchange      EXHF   =         0.00000000
  -V(xc)+E(xc)   XCENC  =       657.77909538
  PAW double counting   =    160223.90935609  -160082.38320812
  entropy T*S    EENTRO =        -0.00000000
  eigenvalues    EBANDS =     -2697.36998833
  atomic energy  EATOM  =      8369.52358910
  ---------------------------------------------------
  free energy    TOTEN  =      -523.31385338 eV

  energy without entropy =     -523.31385338  energy(sigma->0) =     -523.31385338


--------------------------------------------------------------------------------------------------------




--------------------------------------- Iteration      1(  13)  ---------------------------------------


    POTLOK:  cpu time    1.2619: real time    1.2691
    SETDIJ:  cpu time    0.1740: real time    0.1746
    TRIAL :  cpu time   15.5848: real time   15.6953
    CORREC:  cpu time    6.8719: real time    6.9173
    CHARGE:  cpu time    2.2846: real time    2.3001
    --------------------------------------------
      LOOP:  cpu time   26.2008: real time   26.3812

 eigenvalue-minimisations  :     0
 total energy-change (2. order) :-0.1011141E-01  (-0.2872686E-02)
 number of electron     216.0000000 magnetization 
 augmentation part       -0.5310095 magnetization 

 Free energy of the ion-electron system (eV)
  ---------------------------------------------------
  alpha Z        PSCENC =        59.93625244
  Ewald energy   TEWEN  =     32604.61742785
  -Hartree energ DENC   =    -39658.06405783
  -exchange      EXHF   =         0.00000000
  -V(xc)+E(xc)   XCENC  =       657.72992831
  PAW double counting   =    159494.08424007  -159352.56234932
  entropy T*S    EENTRO =        -0.00000000
  eigenvalues    EBANDS =     -2698.58899542
  atomic energy  EATOM  =      8369.52358910
  ---------------------------------------------------
  free energy    TOTEN  =      -523.32396479 eV

  energy without entropy =     -523.32396479  energy(sigma->0) =     -523.32396479


--------------------------------------------------------------------------------------------------------




--------------------------------------- Iteration      1(  14)  ---------------------------------------


    POTLOK:  cpu time    1.2638: real time    1.2711
    SETDIJ:  cpu time    0.1736: real time    0.1742
    TRIAL :  cpu time   15.5794: real time   15.6968
    CORREC:  cpu time    6.8857: real time    6.9348
    CHARGE:  cpu time    2.2933: real time    2.3101
    --------------------------------------------
      LOOP:  cpu time   26.2337: real time   26.4279

 eigenvalue-minimisations  :     0
 total energy-change (2. order) :-0.2860963E-02  (-0.7777584E-03)
 number of electron     216.0000000 magnetization 
 augmentation part       -0.5313117 magnetization 

 Free energy of the ion-electron system (eV)
  ---------------------------------------------------
  alpha Z        PSCENC =        59.93625244
  Ewald energy   TEWEN  =     32604.61742785
  -Hartree energ DENC   =    -39658.21316091
  -exchange      EXHF   =         0.00000000
  -V(xc)+E(xc)   XCENC  =       657.72000957
  PAW double counting   =    159054.63065413  -158913.10744024
  entropy T*S    EENTRO =        -0.00000000
  eigenvalues    EBANDS =     -2698.43415770
  atomic energy  EATOM  =      8369.52358910
  ---------------------------------------------------
  free energy    TOTEN  =      -523.32682576 eV

  energy without entropy =     -523.32682576  energy(sigma->0) =     -523.32682576


--------------------------------------------------------------------------------------------------------




--------------------------------------- Iteration      1(  15)  ---------------------------------------


    POTLOK:  cpu time    1.2599: real time    1.2680
    SETDIJ:  cpu time    0.1719: real time    0.1725
    TRIAL :  cpu time   15.5482: real time   15.6786
    CORREC:  cpu time    6.8702: real time    6.9292
    CHARGE:  cpu time    2.2797: real time    2.2985
    --------------------------------------------
      LOOP:  cpu time   26.1846: real time   26.4065

 eigenvalue-minimisations  :     0
 total energy-change (2. order) :-0.7726849E-03  (-0.2384054E-03)
 number of electron     216.0000000 magnetization 
 augmentation part       -0.5315206 magnetization 

 Free energy of the ion-electron system (eV)
  ---------------------------------------------------
  alpha Z        PSCENC =        59.93625244
  Ewald energy   TEWEN  =     32604.61742785
  -Hartree energ DENC   =    -39658.16538338
  -exchange      EXHF   =         0.00000000
  -V(xc)+E(xc)   XCENC  =       657.71440921
  PAW double counting   =    158844.57442983  -158703.04997614
  entropy T*S    EENTRO =        -0.00000000
  eigenvalues    EBANDS =     -2698.47834736
  atomic energy  EATOM  =      8369.52358910
  ---------------------------------------------------
  free energy    TOTEN  =      -523.32759844 eV

  energy without entropy =     -523.32759844  energy(sigma->0) =     -523.32759844


--------------------------------------------------------------------------------------------------------




--------------------------------------- Iteration      1(  16)  ---------------------------------------


    POTLOK:  cpu time    1.2624: real time    1.2695
    SETDIJ:  cpu time    0.1732: real time    0.1738
    TRIAL :  cpu time   15.5740: real time   15.6848
    CORREC:  cpu time    6.8730: real time    6.9222
    CHARGE:  cpu time    2.2906: real time    2.3065
    --------------------------------------------
      LOOP:  cpu time   26.2217: real time   26.4111

 eigenvalue-minimisations  :     0
 total energy-change (2. order) :-0.2362668E-03  (-0.8967950E-04)
 number of electron     216.0000000 magnetization 
 augmentation part       -0.5316125 magnetization 

 Free energy of the ion-electron system (eV)
  ---------------------------------------------------
  alpha Z        PSCENC =        59.93625244
  Ewald energy   TEWEN  =     32604.61742785
  -Hartree energ DENC   =    -39658.07720180
  -exchange      EXHF   =         0.00000000
  -V(xc)+E(xc)   XCENC  =       657.70867085
  PAW double counting   =    158728.74419890  -158587.21807037
  entropy T*S    EENTRO =        -0.00000000
  eigenvalues    EBANDS =     -2698.56270168
  atomic energy  EATOM  =      8369.52358910
  ---------------------------------------------------
  free energy    TOTEN  =      -523.32783471 eV

  energy without entropy =     -523.32783471  energy(sigma->0) =     -523.32783471


--------------------------------------------------------------------------------------------------------




--------------------------------------- Iteration      1(  17)  ---------------------------------------


    POTLOK:  cpu time    1.2570: real time    1.2642
    SETDIJ:  cpu time    0.1761: real time    0.1767
    TRIAL :  cpu time   15.5891: real time   15.7028
    CORREC:  cpu time    6.8757: real time    6.9280
    CHARGE:  cpu time    2.2796: real time    2.2989
    --------------------------------------------
      LOOP:  cpu time   26.2462: real time   26.4446

 eigenvalue-minimisations  :     0
 total energy-change (2. order) :-0.8835254E-04  (-0.3745276E-04)
 number of electron     216.0000000 magnetization 
 augmentation part       -0.5316538 magnetization 

 Free energy of the ion-electron system (eV)
  ---------------------------------------------------
  alpha Z        PSCENC =        59.93625244
  Ewald energy   TEWEN  =     32604.61742785
  -Hartree energ DENC   =    -39658.24226401
  -exchange      EXHF   =         0.00000000
  -V(xc)+E(xc)   XCENC  =       657.71575666
  PAW double counting   =    158655.60483355  -158514.07858162
  entropy T*S    EENTRO =        -0.00000000
  eigenvalues    EBANDS =     -2698.40493704
  atomic energy  EATOM  =      8369.52358910
  ---------------------------------------------------
  free energy    TOTEN  =      -523.32792306 eV

  energy without entropy =     -523.32792306  energy(sigma->0) =     -523.32792306


--------------------------------------------------------------------------------------------------------




--------------------------------------- Iteration      1(  18)  ---------------------------------------


    POTLOK:  cpu time    1.2645: real time    1.2714
    SETDIJ:  cpu time    0.1686: real time    0.1691
    TRIAL :  cpu time   15.5733: real time   15.6805
    CORREC:  cpu time    6.8734: real time    6.9229
    CHARGE:  cpu time    2.2803: real time    2.2993
    --------------------------------------------
      LOOP:  cpu time   26.2056: real time   26.3923

 eigenvalue-minimisations  :     0
 total energy-change (2. order) :-0.3769627E-04  (-0.1456857E-04)
 number of electron     216.0000000 magnetization 
 augmentation part       -0.5316719 magnetization 

 Free energy of the ion-electron system (eV)
  ---------------------------------------------------
  alpha Z        PSCENC =        59.93625244
  Ewald energy   TEWEN  =     32604.61742785
  -Hartree energ DENC   =    -39658.31642956
  -exchange      EXHF   =         0.00000000
  -V(xc)+E(xc)   XCENC  =       657.71850900
  PAW double counting   =    158630.74725120  -158489.22069785
  entropy T*S    EENTRO =        -0.00000000
  eigenvalues    EBANDS =     -2698.33386293
  atomic energy  EATOM  =      8369.52358910
  ---------------------------------------------------
  free energy    TOTEN  =      -523.32796076 eV

  energy without entropy =     -523.32796076  energy(sigma->0) =     -523.32796076


--------------------------------------------------------------------------------------------------------




--------------------------------------- Iteration      1(  19)  ---------------------------------------


    POTLOK:  cpu time    1.2627: real time    1.2698
    SETDIJ:  cpu time    0.1706: real time    0.1712
    TRIAL :  cpu time   15.5816: real time   15.7016
    CORREC:  cpu time    6.8756: real time    6.9231
    CHARGE:  cpu time    2.2863: real time    2.3021
    --------------------------------------------
      LOOP:  cpu time   26.2092: real time   26.4258

 eigenvalue-minimisations  :     0
 total energy-change (2. order) :-0.1503879E-04  (-0.5360379E-05)
 number of electron     216.0000000 magnetization 
 augmentation part       -0.5316631 magnetization 

 Free energy of the ion-electron system (eV)
  ---------------------------------------------------
  alpha Z        PSCENC =        59.93625244
  Ewald energy   TEWEN  =     32604.61742785
  -Hartree energ DENC   =    -39658.31051947
  -exchange      EXHF   =         0.00000000
  -V(xc)+E(xc)   XCENC  =       657.71794656
  PAW double counting   =    158638.57126161  -158497.04441508
  entropy T*S    EENTRO =        -0.00000000
  eigenvalues    EBANDS =     -2698.33951881
  atomic energy  EATOM  =      8369.52358910
  ---------------------------------------------------
  free energy    TOTEN  =      -523.32797580 eV

  energy without entropy =     -523.32797580  energy(sigma->0) =     -523.32797580


--------------------------------------------------------------------------------------------------------




--------------------------------------- Iteration      1(  20)  ---------------------------------------


    POTLOK:  cpu time    1.2570: real time    1.2644
    SETDIJ:  cpu time    0.1806: real time    0.1812
    TRIAL :  cpu time   15.5799: real time   15.6992
    CORREC:  cpu time    6.8812: real time    6.9288
    CHARGE:  cpu time    2.2872: real time    2.3032
    --------------------------------------------
      LOOP:  cpu time   26.2351: real time   26.4288

 eigenvalue-minimisations  :     0
 total energy-change (2. order) :-0.5533977E-05  (-0.1902156E-05)
 number of electron     216.0000000 magnetization 
 augmentation part       -0.5316540 magnetization 

 Free energy of the ion-electron system (eV)
  ---------------------------------------------------
  alpha Z        PSCENC =        59.93625244
  Ewald energy   TEWEN  =     32604.61742785
  -Hartree energ DENC   =    -39658.33084432
  -exchange      EXHF   =         0.00000000
  -V(xc)+E(xc)   XCENC  =       657.71881321
  PAW double counting   =    158653.45527318  -158511.92853142
  entropy T*S    EENTRO =        -0.00000000
  eigenvalues    EBANDS =     -2698.31996137
  atomic energy  EATOM  =      8369.52358910
  ---------------------------------------------------
  free energy    TOTEN  =      -523.32798133 eV

  energy without entropy =     -523.32798133  energy(sigma->0) =     -523.32798133


--------------------------------------------------------------------------------------------------------




--------------------------------------- Iteration      1(  21)  ---------------------------------------


    POTLOK:  cpu time    1.2638: real time    1.2714
    SETDIJ:  cpu time    0.1690: real time    0.1697
    TRIAL :  cpu time   15.5649: real time   15.6785
    CORREC:  cpu time    6.8761: real time    6.9260
    CHARGE:  cpu time    2.2854: real time    2.3014
    --------------------------------------------
      LOOP:  cpu time   26.1943: real time   26.3840

 eigenvalue-minimisations  :     0
 total energy-change (2. order) :-0.1943845E-05  (-0.6978887E-06)
 number of electron     216.0000000 magnetization 
 augmentation part       -0.5316413 magnetization 

 Free energy of the ion-electron system (eV)
  ---------------------------------------------------
  alpha Z        PSCENC =        59.93625244
  Ewald energy   TEWEN  =     32604.61742785
  -Hartree energ DENC   =    -39658.33528147
  -exchange      EXHF   =         0.00000000
  -V(xc)+E(xc)   XCENC  =       657.71877042
  PAW double counting   =    158664.86531059  -158523.33862631
  entropy T*S    EENTRO =        -0.00000000
  eigenvalues    EBANDS =     -2698.31542591
  atomic energy  EATOM  =      8369.52358910
  ---------------------------------------------------
  free energy    TOTEN  =      -523.32798327 eV

  energy without entropy =     -523.32798327  energy(sigma->0) =     -523.32798327


--------------------------------------------------------------------------------------------------------




--------------------------------------- Iteration      1(  22)  ---------------------------------------


    POTLOK:  cpu time    1.2585: real time    1.2659
    SETDIJ:  cpu time    0.1769: real time    0.1775
    TRIAL :  cpu time   15.5669: real time   15.6829
    CORREC:  cpu time    6.8753: real time    6.9228
    CHARGE:  cpu time    2.2817: real time    2.2980
    --------------------------------------------
      LOOP:  cpu time   26.2056: real time   26.4213

 eigenvalue-minimisations  :     0
 total energy-change (2. order) :-0.6995397E-06  (-0.2835506E-06)
 number of electron     216.0000000 magnetization 
 augmentation part       -0.5316327 magnetization 

 Free energy of the ion-electron system (eV)
  ---------------------------------------------------
  alpha Z        PSCENC =        59.93625244
  Ewald energy   TEWEN  =     32604.61742785
  -Hartree energ DENC   =    -39658.33044701
  -exchange      EXHF   =         0.00000000
  -V(xc)+E(xc)   XCENC  =       657.71857276
  PAW double counting   =    158671.33608059  -158529.80948163
  entropy T*S    EENTRO =        -0.00000000
  eigenvalues    EBANDS =     -2698.31997807
  atomic energy  EATOM  =      8369.52358910
  ---------------------------------------------------
  free energy    TOTEN  =      -523.32798397 eV

  energy without entropy =     -523.32798397  energy(sigma->0) =     -523.32798397


--------------------------------------------------------------------------------------------------------




--------------------------------------- Iteration      1(  23)  ---------------------------------------


    POTLOK:  cpu time    1.2564: real time    1.2634
    SETDIJ:  cpu time    0.1779: real time    0.1785
    TRIAL :  cpu time   15.5733: real time   15.6844
    CORREC:  cpu time    6.8723: real time    6.9180
    CHARGE:  cpu time    2.2916: real time    2.3073
    --------------------------------------------
      LOOP:  cpu time   26.2237: real time   26.4374

 eigenvalue-minimisations  :     0
 total energy-change (2. order) :-0.2583547E-06  (-0.1776374E-06)
 number of electron     216.0000000 magnetization 
 augmentation part       -0.5316327 magnetization 

 Free energy of the ion-electron system (eV)
  ---------------------------------------------------
  alpha Z        PSCENC =        59.93625244
  Ewald energy   TEWEN  =     32604.61742785
  -Hartree energ DENC   =    -39658.32641780
  -exchange      EXHF   =         0.00000000
  -V(xc)+E(xc)   XCENC  =       657.71849782
  PAW double counting   =    158674.55104270  -158533.02450983
  entropy T*S    EENTRO =        -0.00000000
  eigenvalues    EBANDS =     -2698.32386651
  atomic energy  EATOM  =      8369.52358910
  ---------------------------------------------------
  free energy    TOTEN  =      -523.32798423 eV

  energy without entropy =     -523.32798423  energy(sigma->0) =     -523.32798423


--------------------------------------------------------------------------------------------------------




--------------------------------------- Iteration      1(  24)  ---------------------------------------


    POTLOK:  cpu time    1.2591: real time    1.2665
    SETDIJ:  cpu time    0.1759: real time    0.1766
    TRIAL :  cpu time   15.5787: real time   15.6962
    CORREC:  cpu time    6.8843: real time    6.9307
    CHARGE:  cpu time    2.2855: real time    2.3027
    --------------------------------------------
      LOOP:  cpu time   26.2370: real time   26.4302

 eigenvalue-minimisations  :     0
 total energy-change (2. order) :-0.5238689E-07  (-0.1436996E-06)
 number of electron     216.0000000 magnetization 
 augmentation part       -0.5316326 magnetization 

 Free energy of the ion-electron system (eV)
  ---------------------------------------------------
  alpha Z        PSCENC =        59.93625244
  Ewald energy   TEWEN  =     32604.61742785
  -Hartree energ DENC   =    -39658.31967626
  -exchange      EXHF   =         0.00000000
  -V(xc)+E(xc)   XCENC  =       657.71826733
  PAW double counting   =    158676.76183306  -158535.23530298
  entropy T*S    EENTRO =        -0.00000000
  eigenvalues    EBANDS =     -2698.33037483
  atomic energy  EATOM  =      8369.52358910
  ---------------------------------------------------
  free energy    TOTEN  =      -523.32798428 eV

  energy without entropy =     -523.32798428  energy(sigma->0) =     -523.32798428


--------------------------------------------------------------------------------------------------------




--------------------------------------- Iteration      1(  25)  ---------------------------------------


    POTLOK:  cpu time    1.2558: real time    1.2632
    SETDIJ:  cpu time    0.1782: real time    0.1788
    TRIAL :  cpu time   15.5634: real time   15.6823
    CORREC:  cpu time    6.8855: real time    6.9332
    EDDIAG:  cpu time    3.2137: real time    3.2416
    CHARGE:  cpu time    2.2836: real time    2.2997
    --------------------------------------------
      LOOP:  cpu time   29.4527: real time   29.6811

 eigenvalue-minimisations  :     0
 total energy-change (2. order) :-0.4342292E-07  (-0.8277676E-07)
 number of electron     216.0000000 magnetization 
 augmentation part       -0.5316367 magnetization 

 Free energy of the ion-electron system (eV)
  ---------------------------------------------------
  alpha Z        PSCENC =        59.93625244
  Ewald energy   TEWEN  =     32604.61742785
  -Hartree energ DENC   =    -39658.32462890
  -exchange      EXHF   =         0.00000000
  -V(xc)+E(xc)   XCENC  =       657.71857400
  PAW double counting   =    158675.96975811  -158534.44326437
  entropy T*S    EENTRO =        -0.00000000
  eigenvalues    EBANDS =     -2698.32569257
  atomic energy  EATOM  =      8369.52358910
  ---------------------------------------------------
  free energy    TOTEN  =      -523.32798433 eV

  energy without entropy =     -523.32798433  energy(sigma->0) =     -523.32798433


--------------------------------------------------------------------------------------------------------


  average scaling for gradient   0.8848


 average (electrostatic) potential at core
  the test charge radii are     0.5770  0.5955
  (the norm of the test charge is              1.0000)
       1 -87.6342       2 -87.6323       3 -87.6369       4 -87.6407       5 -87.6298
       6 -87.6284       7 -87.6362       8 -87.6317       9 -87.6316      10 -87.6359
      11 -87.6289      12 -87.6302      13 -87.6355      14 -87.6311      15 -87.6282
      16 -87.6290      17 -87.6311      18 -87.6326      19 -87.6338      20 -87.6312
      21 -87.6279      22 -87.6274      23 -87.6428      24 -87.6421      25 -87.6283
      26 -87.6296      27 -87.6322      28 -87.6357      29 -87.6283      30 -87.6284
      31 -87.6386      32 -87.6353      33 -87.6308      34 -87.6293      35 -87.6290
      36 -87.6302      37 -87.6319      38 -87.6333      39 -87.6335      40 -87.6329
      41 -87.6331      42 -87.6344      43 -87.6311      44 -87.6342      45 -87.6284
      46 -87.6287      47 -87.6301      48 -87.6290      49 -87.6329      50 -87.6315
      51 -91.5273      52-123.9103      53-123.9104
 
 
 
 E-fermi :  -4.1003     XC(G=0):  -2.3382     alpha+bet : -2.1113

 Fermi energy:        -4.1003252460

 k-point     1 :       0.0000    0.0000    0.0000
  band No.  band energies     occupation 
      1     -28.8056      2.00000
      2     -27.6974      2.00000
      3     -23.3387      2.00000
      4     -22.3482      2.00000
      5     -22.3469      2.00000
      6     -22.3451      2.00000
      7     -22.3441      2.00000
      8     -22.3427      2.00000
      9     -22.3426      2.00000
     10     -20.3990      2.00000
     11     -20.3989      2.00000
     12     -20.3989      2.00000
     13     -20.3983      2.00000
     14     -20.3982      2.00000
     15     -20.3979      2.00000
     16     -19.4564      2.00000
     17     -19.4560      2.00000
     18     -19.4557      2.00000
     19     -19.4556      2.00000
     20     -19.4554      2.00000
     21     -19.4549      2.00000
     22     -17.2161      2.00000
     23     -17.2161      2.00000
     24     -17.2156      2.00000
     25     -17.2150      2.00000
     26     -17.2133      2.00000
     27     -17.2131      2.00000
     28     -16.0474      2.00000
     29     -16.0472      2.00000
     30     -16.0468      2.00000
     31     -16.0467      2.00000
     32     -16.0460      2.00000
     33     -16.0459      2.00000
     34     -14.6407      2.00000
     35     -14.6406      2.00000
     36     -14.6401      2.00000
     37     -14.6399      2.00000
     38     -14.6398      2.00000
     39     -14.6391      2.00000
     40     -12.8664      2.00000
     41     -12.1486      2.00000
     42     -12.1485      2.00000
     43     -12.1479      2.00000
     44     -12.1479      2.00000
     45     -12.1472      2.00000
     46     -12.1471      2.00000
     47     -11.9418      2.00000
     48     -11.9418      2.00000
     49     -11.9408      2.00000
     50     -11.9407      2.00000
     51     -11.9394      2.00000
     52     -11.9391      2.00000
     53     -11.5216      2.00000
     54     -11.3268      2.00000
     55     -11.3254      2.00000
     56     -10.6318      2.00000
     57     -10.4785      2.00000
     58     -10.4784      2.00000
     59     -10.4772      2.00000
     60     -10.4769      2.00000
     61     -10.4765      2.00000
     62     -10.4765      2.00000
     63      -9.4605      2.00000
     64      -9.4577      2.00000
     65      -9.4536      2.00000
     66      -9.4531      2.00000
     67      -9.4506      2.00000
     68      -9.4505      2.00000
     69      -9.1477      2.00000
     70      -9.1463      2.00000
     71      -9.1461      2.00000
     72      -9.1449      2.00000
     73      -9.1447      2.00000
     74      -9.1445      2.00000
     75      -9.1405      2.00000
     76      -9.1404      2.00000
     77      -9.1402      2.00000
     78      -9.1397      2.00000
     79      -9.1390      2.00000
     80      -9.1383      2.00000
     81      -7.6894      2.00000
     82      -7.6886      2.00000
     83      -7.4019      2.00000
     84      -7.4012      2.00000
     85      -7.4008      2.00000
     86      -7.4003      2.00000
     87      -7.3982      2.00000
     88      -7.3981      2.00000
     89      -7.2088      2.00000
     90      -7.2086      2.00000
     91      -7.2061      2.00000
     92      -7.2059      2.00000
     93      -7.2053      2.00000
     94      -7.2051      2.00000
     95      -6.2639      2.00000
     96      -6.2624      2.00000
     97      -6.2620      2.00000
     98      -6.2605      2.00000
     99      -6.2601      2.00000
    100      -6.2594      2.00000
    101      -5.8301      2.00000
    102      -5.8278      2.00000
    103      -4.1639      2.00000
    104      -4.1633      2.00000
    105      -4.1626      2.00000
    106      -4.1619      2.00000
    107      -4.1589      2.00000
    108      -4.1587      2.00000
    109      -1.1704      0.00000
    110      -1.1702      0.00000
    111      -1.1674      0.00000
    112      -1.1671      0.00000
    113      -1.1666      0.00000
    114      -1.1663      0.00000
    115       0.8208      0.00000
    116       0.8218      0.00000
    117       0.8226      0.00000
    118       0.8245      0.00000
    119       0.8249      0.00000
    120       0.8278      0.00000
    121       0.9014      0.00000
    122       1.4742      0.00000
    123       1.5286      0.00000
    124       1.5293      0.00000
    125       1.9337      0.00000
    126       2.0862      0.00000
    127       2.3101      0.00000
    128       2.3869      0.00000
    129       2.3914      0.00000
    130       2.3972      0.00000
    131       2.4100      0.00000
    132       2.6889      0.00000
    133       2.6895      0.00000
    134       2.6916      0.00000
    135       2.6925      0.00000
    136       2.6926      0.00000
    137       2.6931      0.00000
    138       2.7305      0.00000
    139       2.9375      0.00000
    140       3.0148      0.00000
    141       3.1113      0.00000
    142       3.1243      0.00000
    143       3.1279      0.00000
    144       3.1522      0.00000
    145       3.2181      0.00000
    146       3.2196      0.00000
    147       3.2549      0.00000
    148       3.2765      0.00000
    149       3.2866      0.00000
    150       3.3011      0.00000
    151       3.3423      0.00000
    152       4.4024      0.00000
    153       4.7751      0.00000
    154       4.8324      0.00000
    155       4.8756      0.00000
    156       4.9271      0.00000
    157       5.1565      0.00000
    158       5.1973      0.00000
    159       5.2022      0.00000
    160       5.2061      0.00000
    161       5.2082      0.00000
    162       5.2188      0.00000
    163       5.2194      0.00000
    164       5.2208      0.00000
    165       5.2214      0.00000
    166       5.3013      0.00000
    167       5.3378      0.00000
    168       5.5247      0.00000


--------------------------------------------------------------------------------------------------------


 soft charge-density along one line, spin component           1
         0         1         2         3         4         5         6         7         8         9
 total charge-density along one line
 
 pseudopotential strength for first ion, spin component:           1
 12.626  21.244  -0.000   0.000   0.000  -0.000   0.000   0.000
 21.244  35.746  -0.000   0.000   0.000  -0.000   0.000   0.000
 -0.000  -0.000  -3.230  -0.000   0.000  -5.784   0.000   0.000
  0.000   0.000  -0.000  -3.230  -0.000   0.000  -5.784  -0.000
  0.000   0.000   0.000  -0.000  -3.230   0.000  -0.000  -5.784
 -0.000  -0.000  -5.784   0.000   0.000 -10.337   0.000   0.000
  0.000   0.000   0.000  -5.784  -0.000   0.000 -10.335  -0.000
  0.000   0.000   0.000  -0.000  -5.784   0.000  -0.000 -10.337
 total augmentation occupancy for first ion, spin component:           1
 10.264  -3.894  -0.000  -0.002   0.000   0.000   0.001  -0.000
 -3.894   1.507   0.000   0.001  -0.000  -0.000  -0.000   0.000
 -0.000   0.000   8.468  -0.009   0.000  -3.024   0.004  -0.000
 -0.002   0.001  -0.009   4.016  -0.000   0.004  -1.207   0.000
  0.000  -0.000   0.000  -0.000   8.468  -0.000   0.000  -3.024
  0.000  -0.000  -3.024   0.004  -0.000   1.093  -0.001   0.000
  0.001  -0.000   0.004  -1.207   0.000  -0.001   0.368  -0.000
 -0.000   0.000  -0.000   0.000  -3.024   0.000  -0.000   1.093


------------------------ aborting loop because EDIFF is reached ----------------------------------------


    FORLOC:  cpu time    0.1073: real time    0.1080
    FORNL :  cpu time    2.9605: real time    2.9845
    FORCOR:  cpu time    1.2594: real time    1.2667
    OFIELD:  cpu time    0.0024: real time    0.0025
 WARNING: Using user supplied parameters
     VDW_A1 = 0.495
     VDW_A2 = 5.731
     VDW_S8 = 0.79
     because the xc functional is not supported. Required parameters not
     defined in the INCAR file will be replaced with PBE defaults ones.


 ---------------------------------------------------------------------------------------------

         DFTD3 V3.0 Rev 1        
 IVDW         = 12
 DF unknown   
 parameters
 VDW_S6       =    1.0000
 VDW_S8       =    0.7898
 VDW_A1       =    0.4948
 VDW_A2       =    5.7308
 k1-k3        =   16.0000    1.3333   -4.0000
 VDW_RADIUS   =   50.2022 A
 VDW_CNRADIUS =   21.1671 A
 Edisp (eV)   -1.73903

 E6    (eV) :    -1.3453
 E8    (eV) :    -0.3937
 % E8        : 22.64
    FORVDW:  cpu time    0.1670: real time    0.1697

 VOLUME and BASIS-vectors are now :
 -----------------------------------------------------------------------------
  energy-cutoff  :     1000.00
  volume of cell :     2631.08
      direct lattice vectors                 reciprocal lattice vectors
    12.325000000  0.000000000  0.000000000     0.081135903  0.046843835  0.000000000
    -6.162500000 10.673763102  0.000000000     0.000000000  0.093687670  0.000000000
     0.000000000  0.000000000 20.000000000     0.000000000  0.000000000  0.050000000

  length of vectors
    12.325000000 12.325000000 20.000000000     0.093687670  0.093687670  0.050000000


 FORCES acting on ions:
    Electron-Ion                     Ewald-Force                    Non-Local-Force
 -----------------------------------------------------------------------------------------------
   0.592E+01 0.516E+01 0.211E+02   -.593E+01 -.515E+01 -.211E+02   0.103E-01 -.177E-02 0.856E-02
   0.894E+01 0.435E+01 0.256E+02   -.895E+01 -.435E+01 -.256E+02   0.132E-01 -.631E-02 -.706E-02
   0.400E+01 0.106E+02 0.294E+02   -.400E+01 -.106E+02 -.294E+02   -.142E-02 0.243E-01 0.107E-01
   0.555E+01 0.806E+01 0.401E+02   -.557E+01 -.806E+01 -.401E+02   0.232E-01 0.639E-02 0.149E-01
   0.634E+01 0.150E+01 0.213E+02   -.635E+01 -.149E+01 -.213E+02   0.386E-02 -.105E-01 -.227E-02
   0.655E+01 -.123E+01 0.216E+02   -.655E+01 0.123E+01 -.216E+02   -.834E-02 0.679E-03 -.114E-01
   0.102E+02 0.381E+01 0.365E+02   -.103E+02 -.380E+01 -.365E+02   0.278E-01 -.287E-01 0.101E-02
   0.990E+01 -.351E+01 0.380E+02   -.993E+01 0.353E+01 -.380E+02   0.674E-02 -.152E-01 -.146E-01
   -.467E+01 0.953E+01 0.296E+02   0.469E+01 -.954E+01 -.296E+02   -.100E-01 -.465E-02 -.125E-01
   -.744E+01 0.627E+01 0.388E+02   0.747E+01 -.629E+01 -.388E+02   -.443E-01 0.272E-01 0.737E-02
   0.162E+01 -.154E+01 0.181E+02   -.162E+01 0.154E+01 -.181E+02   0.518E-03 -.122E-02 -.438E-02
   0.136E+01 -.113E+01 0.171E+02   -.136E+01 0.113E+01 -.171E+02   -.115E-01 0.508E-02 0.288E-02
   0.396E+01 -.863E+01 0.416E+02   -.399E+01 0.864E+01 -.416E+02   0.453E-01 -.200E-01 0.266E-02
   0.212E+01 -.106E+02 0.303E+02   -.213E+01 0.106E+02 -.303E+02   0.136E-01 -.104E-02 -.231E-01
   -.569E+01 0.353E+01 0.207E+02   0.569E+01 -.353E+01 -.207E+02   0.849E-02 -.411E-02 -.149E-02
   -.799E+01 0.234E+01 0.230E+02   0.799E+01 -.234E+01 -.230E+02   -.581E-02 0.968E-02 -.151E-01
   -.958E+00 -.383E+00 0.165E+02   0.966E+00 0.379E+00 -.165E+02   -.482E-02 0.201E-02 0.130E-02
   0.472E+00 0.340E+01 0.173E+02   -.468E+00 -.340E+01 -.173E+02   -.639E-02 0.373E-02 0.952E-02
   -.157E+01 -.958E+01 0.250E+02   0.156E+01 0.958E+01 -.250E+02   0.132E-01 -.663E-02 0.131E-02
   -.780E+00 -.515E+01 0.189E+02   0.772E+00 0.515E+01 -.189E+02   0.448E-02 -.452E-02 -.180E-02
   0.899E+01 -.396E+01 0.271E+02   -.899E+01 0.396E+01 -.271E+02   0.251E-02 -.674E-02 -.317E-01
   0.579E+01 -.488E+01 0.228E+02   -.579E+01 0.488E+01 -.228E+02   -.744E-02 0.673E-02 -.135E-01
   -.191E+01 0.378E+01 0.467E+02   0.192E+01 -.379E+01 -.467E+02   -.195E-01 0.189E-01 0.431E-01
   -.273E+01 -.594E+01 0.455E+02   0.273E+01 0.595E+01 -.455E+02   0.174E-01 -.270E-01 0.274E-01
   0.293E+01 -.121E+01 0.182E+02   -.292E+01 0.121E+01 -.182E+02   -.645E-03 -.884E-03 -.841E-02
   0.616E+00 0.259E+01 0.183E+02   -.611E+00 -.259E+01 -.183E+02   -.971E-02 0.573E-02 0.122E-02
   -.107E+02 0.144E+01 0.317E+02   0.108E+02 -.145E+01 -.317E+02   -.298E-03 0.147E-01 -.864E-02
   -.102E+02 -.413E+01 0.298E+02   0.102E+02 0.413E+01 -.298E+02   -.212E-01 0.148E-01 0.529E-02
   0.347E+01 -.699E+01 0.237E+02   -.348E+01 0.699E+01 -.236E+02   0.103E-01 0.166E-02 -.169E-01
   0.313E+00 -.283E+01 0.192E+02   -.318E+00 0.283E+01 -.192E+02   -.217E-02 0.366E-02 -.793E-02
   -.775E+01 -.818E+01 0.347E+02   0.777E+01 0.819E+01 -.347E+02   -.231E-01 -.145E-01 0.668E-02
   -.500E+01 -.920E+01 0.261E+02   0.501E+01 0.922E+01 -.261E+02   0.815E-03 -.112E-01 0.934E-02
   0.373E+00 0.148E+01 0.170E+02   -.378E+00 -.148E+01 -.170E+02   0.927E-02 -.662E-02 0.485E-02
   0.991E+00 0.147E+01 0.180E+02   -.995E+00 -.147E+01 -.180E+02   -.598E-03 0.243E-02 -.481E-02
   -.400E+01 0.582E+00 0.193E+02   0.400E+01 -.585E+00 -.193E+02   0.468E-02 -.855E-03 0.450E-03
   -.350E+01 -.145E+01 0.189E+02   0.351E+01 0.144E+01 -.189E+02   -.859E-02 0.514E-02 0.206E-04
   -.691E+01 -.359E+01 0.214E+02   0.692E+01 0.358E+01 -.214E+02   -.923E-02 0.243E-02 0.250E-02
   -.425E+01 -.341E+01 0.186E+02   0.425E+01 0.341E+01 -.186E+02   -.845E-02 0.192E-02 0.103E-01
   -.392E+01 -.507E+01 0.197E+02   0.392E+01 0.508E+01 -.197E+02   -.720E-02 -.250E-02 0.770E-02
   -.590E+00 -.127E+01 0.174E+02   0.590E+00 0.127E+01 -.174E+02   0.288E-02 -.900E-03 0.884E-02
   0.147E+01 0.361E+01 0.179E+02   -.147E+01 -.362E+01 -.180E+02   -.484E-02 0.549E-02 0.870E-02
   0.466E+01 0.729E+01 0.221E+02   -.466E+01 -.730E+01 -.221E+02   0.454E-02 0.386E-02 0.124E-01
   0.396E+00 0.621E+01 0.194E+02   -.388E+00 -.621E+01 -.194E+02   -.520E-02 0.567E-02 0.318E-03
   -.793E-01 0.103E+02 0.263E+02   0.917E-01 -.103E+02 -.263E+02   -.172E-01 0.867E-02 0.562E-02
   -.117E+01 0.229E+01 0.191E+02   0.118E+01 -.229E+01 -.191E+02   0.245E-02 -.339E-02 -.445E-02
   -.469E+01 0.583E+01 0.224E+02   0.469E+01 -.584E+01 -.224E+02   -.110E-01 0.223E-02 -.112E-01
   -.943E+00 -.253E+01 0.180E+02   0.938E+00 0.253E+01 -.180E+02   0.108E-01 -.265E-02 0.269E-02
   -.231E+01 0.897E+00 0.173E+02   0.230E+01 -.895E+00 -.173E+02   0.398E-03 0.215E-02 -.714E-02
   0.219E+00 -.158E+01 0.171E+02   -.222E+00 0.158E+01 -.171E+02   0.703E-02 -.413E-02 0.637E-02
   0.249E+01 0.180E+01 0.173E+02   -.250E+01 -.180E+01 -.173E+02   0.471E-02 0.932E-03 0.324E-02
   0.425E-01 -.221E-01 -.304E+03   -.428E-01 0.234E-01 0.304E+03   -.365E-02 0.227E-02 -.116E-01
   -.228E+03 0.155E+03 -.468E+03   0.279E+03 -.190E+03 0.472E+03   -.523E+02 0.356E+02 -.350E+01
   0.228E+03 -.155E+03 -.449E+03   -.279E+03 0.190E+03 0.446E+03   0.523E+02 -.356E+02 0.316E+01
 -----------------------------------------------------------------------------------------------
   -.215E-02 0.107E-01 0.349E+00   0.000E+00 0.568E-13 0.000E+00   0.194E-02 -.110E-01 -.337E+00
 
 
 POSITION                                       TOTAL-FORCE (eV/Angst)
 -----------------------------------------------------------------------------------
     11.98348      0.00342      0.01417         0.003134     -0.000852     -0.001331
     -0.34154      1.42665      0.01100        -0.002386     -0.000132     -0.002593
      2.12355      0.00315      0.01249        -0.001261      0.006674     -0.005218
      2.12326      1.42653      0.00641         0.009097     -0.000576     -0.002355
     10.75099      2.13819      0.01213         0.000920     -0.004949      0.000294
     -1.57382      3.56123      0.01110        -0.007358      0.005090     -0.001241
      0.89078      2.13854      0.00548         0.006213     -0.015370      0.006050
      0.89099      3.56147      0.00181        -0.013626     -0.000911      0.016242
      4.58864      0.00346      0.01135         0.004547     -0.016731     -0.002292
      4.58894      1.42623      0.00646        -0.017438      0.009775      0.019180
      9.51854      4.27281      0.01369         0.007495     -0.003595      0.000205
     -2.80632      5.69591      0.01434        -0.006741      0.003266      0.000842
      2.12300      4.27302      0.00000         0.018796     -0.002362      0.026937
      2.12335      5.69594      0.00581        -0.001724      0.009945     -0.000595
      7.05344      0.00333      0.01399         0.008193     -0.004823     -0.000304
      7.05353      1.42635      0.01368        -0.001972      0.004504     -0.003437
      8.28610      6.40752      0.01601         0.003668     -0.001335     -0.000967
     -4.03885      7.83070      0.01636        -0.002082      0.001284     -0.000380
      3.35586      6.40753      0.01007         0.003541      0.000256     -0.000880
      3.35599      7.83072      0.01320        -0.003328      0.000743     -0.000496
     -0.34146      4.27290      0.00723        -0.001263     -0.001111     -0.003128
     -0.34138      5.69591      0.00946        -0.008327      0.004969     -0.000676
      3.35624      2.13791      0.00222        -0.010523      0.008738      0.027020
      3.35573      3.56155      0.00139         0.011483     -0.011845      0.018187
     -1.57395      6.40758      0.01311         0.006914     -0.004259     -0.000525
     -1.57385      7.83068      0.01438        -0.004947      0.004100      0.000013
      5.82093      2.13784      0.01033         0.016978      0.003864     -0.001434
      5.82114      3.56097      0.01156        -0.004291      0.006107     -0.002718
      0.89092      6.40755      0.00907         0.004171      0.001318     -0.001395
      0.89106      7.83068      0.01235        -0.007230      0.003014      0.000357
      4.58871      4.27293      0.00850        -0.008833     -0.004337     -0.007687
      4.58852      5.69606      0.01149         0.001998      0.001010     -0.003340
      9.51845      0.00337      0.01490         0.004840     -0.004883      0.000101
      9.51855      1.42644      0.01438        -0.005125      0.006212     -0.000352
      8.28593      2.13803      0.01453         0.005721     -0.004030      0.000445
      8.28613      3.56115      0.01464        -0.004522      0.001745      0.000101
      7.05356      4.27269      0.01457         0.003781     -0.000753     -0.000557
      7.05362      5.69588      0.01553        -0.002454      0.000916     -0.000277
      5.82112      6.40755      0.01489        -0.002449      0.002217     -0.000134
      5.82102      7.83073      0.01579         0.002868      0.000577     -0.000473
      7.05363      8.54227      0.01631        -0.004531      0.000868      0.000979
     -5.27149      9.96549      0.01495        -0.000680     -0.002565     -0.002333
     -2.80638      8.54234      0.01558         0.003569     -0.001982     -0.001222
     -2.80627      9.96553      0.01362        -0.004751      0.000191     -0.003859
     -0.34149      8.54239      0.01378         0.005875     -0.004097      0.000324
     -0.34138      9.96550      0.01354        -0.005765      0.000997     -0.000943
      2.12343      8.54232      0.01336         0.005721     -0.001852      0.000984
      2.12354      9.96544      0.01469        -0.006224      0.004634     -0.002088
      4.58846      8.54235      0.01505         0.003545     -0.002945      0.000886
      4.58853      9.96550      0.01517        -0.003321      0.003485      0.000140
      3.04930      2.68154      4.45449        -0.003957      0.003528      0.005954
      4.02070      2.02068      4.51892        -1.420087      0.965979     -0.124247
      2.07767      3.34267      4.39504         1.424128     -0.969713      0.054237
 -----------------------------------------------------------------------------------
    total drift:                               -0.000210     -0.000283      0.011395


--------------------------------------------------------------------------------------------------------



  FREE ENERGIE OF THE ION-ELECTRON SYSTEM (eV)
  ---------------------------------------------------
  free  energy   TOTEN  =      -525.06701096 eV

  energy  without entropy=     -525.06701096  energy(sigma->0) =     -525.06701096
 


--------------------------------------------------------------------------------------------------------


    POTLOK:  cpu time    1.4377: real time    1.4459


--------------------------------------------------------------------------------------------------------


 writing wavefunctions
     LOOP+:  cpu time  687.3829: real time  693.0017
    4ORBIT:  cpu time    0.0000: real time    0.0000

 total amount of memory used by VASP MPI-rank0   556209. kBytes
=======================================================================

   base      :      30000. kBytes
   nonl-proj :     184518. kBytes
   fftplans  :      31725. kBytes
   grid      :     282516. kBytes
   one-center:        162. kBytes
   wavefun   :      27288. kBytes
 
  
  
 General timing and accounting informations for this job:
 ========================================================
  
                  Total CPU time used (sec):      721.287
                            User time (sec):      701.105
                          System time (sec):       20.182
                         Elapsed time (sec):      728.123
  
                   Maximum memory used (kb):     1030292.
                   Average memory used (kb):          N/A
  
                          Minor page faults:       199515
                          Major page faults:          309
                 Voluntary context switches:         3636
