 vasp.6.2.1 16May21 (build Nov 06 2021 14:46:37) complex                        
  
 executed on             LinuxIFC date 2025.04.16  23:37:09
 running on  112 total cores
 distrk:  each k-point on   56 cores,    2 groups
 distr:  one band on NCORE=   1 cores,   56 groups


--------------------------------------------------------------------------------------------------------


 INCAR:
   ALGO = Conjugate
   KPAR = 2
   NCORE = 32
   ISMEAR = 0
   SIGMA = 0.01
   PREC = Accurate
   EDIFF = 1E-7
   ENCUT = 1000
   ISIF = 0
   METAGGA = R2SCAN
   LASPH = .TRUE.
   IVDW = 12
   VDW_S8 = 0.7898
   VDW_A1 = 0.4948
   VDW_A2 = 5.7308
   SYMPREC = 1E-7

 POTCAR:    PAW_PBE C_h 06Feb2004                 
 POTCAR:    PAW_PBE O_h 06Feb2004                 
 -----------------------------------------------------------------------------
|                                                                             |
|           W    W    AA    RRRRR   N    N  II  N    N   GGGG   !!!           |
|           W    W   A  A   R    R  NN   N  II  NN   N  G    G  !!!           |
|           W    W  A    A  R    R  N N  N  II  N N  N  G       !!!           |
|           W WW W  AAAAAA  RRRRR   N  N N  II  N  N N  G  GGG   !            |
|           WW  WW  A    A  R   R   N   NN  II  N   NN  G    G                |
|           W    W  A    A  R    R  N    N  II  N    N   GGGG   !!!           |
|                                                                             |
|     The value NCORE = 32 specified in the INCAR file was overwritten,       |
|     because it was not compatible with the 56 processes available:          |
|     NCORE = 1                                                               |
|     was used instead, please check that this makes sense for your           |
|     machine.                                                                |
|                                                                             |
 -----------------------------------------------------------------------------

 -----------------------------------------------------------------------------
|                                                                             |
|           W    W    AA    RRRRR   N    N  II  N    N   GGGG   !!!           |
|           W    W   A  A   R    R  NN   N  II  NN   N  G    G  !!!           |
|           W    W  A    A  R    R  N N  N  II  N N  N  G       !!!           |
|           W WW W  AAAAAA  RRRRR   N  N N  II  N  N N  G  GGG   !            |
|           WW  WW  A    A  R   R   N   NN  II  N   NN  G    G                |
|           W    W  A    A  R    R  N    N  II  N    N   GGGG   !!!           |
|                                                                             |
|     For optimal performance we recommend to set                             |
|       NCORE = 2 up to number-of-cores-per-socket                            |
|     NCORE specifies how many cores store one orbital (NPAR=cpu/NCORE).      |
|     This setting can greatly improve the performance of VASP for DFT.       |
|     The default, NCORE=1 might be grossly inefficient on modern             |
|     multi-core architectures or massively parallel machines. Do your        |
|     own testing! More info at https://www.vasp.at/wiki/index.php/NCORE      |
|     Unfortunately you need to use the default for GW and RPA                |
|     calculations (for HF NCORE is supported but not extensively tested      |
|     yet).                                                                   |
|                                                                             |
 -----------------------------------------------------------------------------

 POTCAR:    PAW_PBE C_h 06Feb2004                 
   VRHFIN =C: s2p2                                                                                  
   LEXCH  = PE                                                                                      
   EATOM  =   147.1560 eV,   10.8157 Ry                                                             
                                                                                                    
   TITEL  = PAW_PBE C_h 06Feb2004                                                                   
   LULTRA =        F    use ultrasoft PP ?                                                          
   IUNSCR =        1    unscreen: 0-lin 1-nonlin 2-no                                               
   RPACOR =    0.800    partial core radius                                                         
   POMASS =   12.011; ZVAL   =    4.000    mass and valenz                                          
   RCORE  =    1.100    outmost cutoff radius                                                       
   RWIGS  =    1.630; RWIGS  =    0.863    wigner-seitz radius (au A)                               
   ENMAX  =  700.000; ENMIN  =  500.000 eV                                                          
   ICORE  =        2    local potential                                                             
   LCOR   =        T    correct aug charges                                                         
   LPAW   =        T    paw PP                                                                      
   EAUG   =  946.768                                                                                
   DEXC   =    0.000                                                                                
   RMAX   =    1.128    core radius for proj-oper                                                   
   RAUG   =    1.300    factor for augmentation sphere                                              
   RDEP   =    1.162    radius for radial grids                                                     
   RDEPT  =    1.088    core radius for aug-charge                                                  
                                                                                                    
   Atomic configuration                                                                             
    4 entries                                                                                       
     n  l   j            E        occ.                                                              
     1  0  0.50      -273.3789   2.0000                                                             
     2  0  0.50       -13.7508   2.0000                                                             
     2  1  0.50        -5.2854   2.0000                                                             
     3  2  1.50        -5.4423   0.0000                                                             
   Description                                                                                      
     l       E           TYP  RCUT    TYP  RCUT                                                     
     0    -13.7508458     23  1.100                                                                 
     0     -8.2022199     23  1.100                                                                 
     1     -5.2854383     23  1.100                                                                 
     1      1.1560700     23  1.100                                                                 
     2     -5.4423304      7  1.100                                                                 
  local pseudopotential read in
  partial core-charges read in
  partial kinetic energy density read in
  atomic valenz-charges read in
  non local Contribution for L=           0  read in
    real space projection operators read in
  non local Contribution for L=           0  read in
    real space projection operators read in
  non local Contribution for L=           1  read in
    real space projection operators read in
  non local Contribution for L=           1  read in
    real space projection operators read in
    PAW grid and wavefunctions read in
 
   number of l-projection  operators is LMAX  =           4
   number of lm-projection operators is LMMAX =           8
 
 POTCAR:    PAW_PBE O_h 06Feb2004                 
   VRHFIN =O: s2p4                                                                                  
   LEXCH  = PE                                                                                      
   EATOM  =   432.3788 eV,   31.7789 Ry                                                             
                                                                                                    
   TITEL  = PAW_PBE O_h 06Feb2004                                                                   
   LULTRA =        F    use ultrasoft PP ?                                                          
   IUNSCR =        1    unscreen: 0-lin 1-nonlin 2-no                                               
   RPACOR =    0.800    partial core radius                                                         
   POMASS =   16.000; ZVAL   =    6.000    mass and valenz                                          
   RCORE  =    1.100    outmost cutoff radius                                                       
   RWIGS  =    1.400; RWIGS  =    0.741    wigner-seitz radius (au A)                               
   ENMAX  =  700.000; ENMIN  =  500.000 eV                                                          
   ICORE  =        2    local potential                                                             
   LCOR   =        T    correct aug charges                                                         
   LPAW   =        T    paw PP                                                                      
   EAUG   =  888.804                                                                                
   DEXC   =    0.000                                                                                
   RMAX   =    1.128    core radius for proj-oper                                                   
   RAUG   =    1.300    factor for augmentation sphere                                              
   RDEP   =    1.125    radius for radial grids                                                     
   RDEPT  =    1.088    core radius for aug-charge                                                  
                                                                                                    
   Atomic configuration                                                                             
    4 entries                                                                                       
     n  l   j            E        occ.                                                              
     1  0  0.50      -514.6923   2.0000                                                             
     2  0  0.50       -23.9615   2.0000                                                             
     2  1  0.50        -9.0305   4.0000                                                             
     3  2  1.50        -9.5241   0.0000                                                             
   Description                                                                                      
     l       E           TYP  RCUT    TYP  RCUT                                                     
     0    -23.9615319     23  1.100                                                                 
     0    -25.3221145     23  1.100                                                                 
     1     -9.0304911     23  1.100                                                                 
     1     -5.4802209     23  1.100                                                                 
     2     -9.5240782      7  1.100                                                                 
  local pseudopotential read in
  partial core-charges read in
  partial kinetic energy density read in
  atomic valenz-charges read in
  non local Contribution for L=           0  read in
    real space projection operators read in
  non local Contribution for L=           0  read in
    real space projection operators read in
  non local Contribution for L=           1  read in
    real space projection operators read in
  non local Contribution for L=           1  read in
    real space projection operators read in
    PAW grid and wavefunctions read in
 
   number of l-projection  operators is LMAX  =           4
   number of lm-projection operators is LMMAX =           8
 
 -----------------------------------------------------------------------------
|                                                                             |
|               ----> ADVICE to this user running VASP <----                  |
|                                                                             |
|     You have a (more or less) 'large supercell' and for larger cells it     |
|     might be more efficient to use real-space projection operators.         |
|     Therefore, try LREAL= Auto in the INCAR file.                           |
|     Mind: For very accurate calculation, you might also keep the            |
|     reciprocal projection scheme (i.e. LREAL=.FALSE.).                      |
|                                                                             |
 -----------------------------------------------------------------------------

  PAW_PBE C_h 06Feb2004                 :
 energy of atom  1       EATOM= -147.1560
 kinetic energy error for atom=    0.0031 (will be added to EATOM!!)
  PAW_PBE O_h 06Feb2004                 :
 energy of atom  2       EATOM= -432.3788
 kinetic energy error for atom=    0.0171 (will be added to EATOM!!)
 
 
 POSCAR:  C  O
  positions in cartesian coordinates
  No initial velocities read in

 METAGGA = R2SCA    LMAXTAU =  6    LMIXTAU =  F

 exchange correlation table for  LEXCH =        8
   RHO(1)=    0.500       N(1)  =     2000
   RHO(2)=  100.500       N(2)  =     4000
 


--------------------------------------------------------------------------------------------------------


 ion  position               nearest neighbor table
   1  0.972  0.000  0.001-  50 1.42   2 1.42  42 1.42
   2  0.039  0.134  0.000-   5 1.42   7 1.42   1 1.42
   3  0.172  0.000  0.000-  42 1.42  44 1.42   4 1.42
   4  0.239  0.134  0.000-   7 1.42   3 1.42  23 1.42
   5  0.972  0.200  0.000-   6 1.42   2 1.42  34 1.42
   6  0.039  0.334  0.000-   5 1.42  21 1.42  11 1.42
   7  0.172  0.200  0.000-   8 1.42   2 1.42   4 1.42
   8  0.239  0.334  0.000-  13 1.42   7 1.42  21 1.42
   9  0.372  0.000  0.000-  10 1.42  44 1.42  46 1.42
  10  0.439  0.134  0.000-  27 1.42   9 1.42  23 1.42
  11  0.972  0.400  0.001-  12 1.42  36 1.42   6 1.42
  12  0.039  0.534  0.001-  25 1.42  11 1.42  17 1.42
  13  0.372  0.400  0.000-   8 1.42  14 1.42  24 1.42
  14  0.439  0.534  0.000-  13 1.42  29 1.42  19 1.42
  15  0.572  0.000  0.001-  46 1.42  16 1.42  48 1.42
  16  0.639  0.134  0.001-  15 1.42  35 1.42  27 1.42
  17  0.972  0.600  0.001-  38 1.42  18 1.42  12 1.42
  18  0.039  0.734  0.001-  43 1.42  41 1.42  17 1.42
  19  0.572  0.600  0.000-  14 1.42  20 1.42  32 1.42
  20  0.639  0.734  0.001-  49 1.42  19 1.42  47 1.42
  21  0.172  0.400  0.000-  22 1.42   8 1.42   6 1.42
  22  0.239  0.534  0.000-  21 1.42  29 1.42  25 1.42
  23  0.372  0.200  0.000-  10 1.42   4 1.42  24 1.42
  24  0.439  0.334  0.000-  13 1.42  31 1.42  23 1.42
  25  0.172  0.600  0.001-  26 1.42  12 1.42  22 1.42
  26  0.239  0.734  0.001-  25 1.42  45 1.42  43 1.42
  27  0.572  0.200  0.000-  10 1.42  28 1.42  16 1.42
  28  0.639  0.334  0.000-  27 1.42  37 1.42  31 1.42
  29  0.372  0.600  0.000-  22 1.42  14 1.42  30 1.42
  30  0.439  0.734  0.000-  47 1.42  29 1.42  45 1.42
  31  0.572  0.400  0.000-  32 1.42  28 1.42  24 1.42
  32  0.639  0.534  0.000-  31 1.42  39 1.42  19 1.42
  33  0.772  0.000  0.001-  34 1.42  48 1.42  50 1.42
  34  0.839  0.134  0.001-  33 1.42   5 1.42  35 1.42
  35  0.772  0.200  0.001-  36 1.42  16 1.42  34 1.42
  36  0.839  0.334  0.001-  35 1.42  11 1.42  37 1.42
  37  0.772  0.400  0.001-  28 1.42  38 1.42  36 1.42
  38  0.839  0.534  0.001-  17 1.42  37 1.42  39 1.42
  39  0.772  0.600  0.001-  40 1.42  38 1.42  32 1.42
  40  0.839  0.734  0.001-  39 1.42  49 1.42  41 1.42
  41  0.972  0.800  0.001-  18 1.42  42 1.42  40 1.42
  42  0.039  0.934  0.001-   3 1.42  41 1.42   1 1.42
  43  0.172  0.800  0.001-  18 1.42  44 1.42  26 1.42
  44  0.239  0.934  0.001-   9 1.42  43 1.42   3 1.42
  45  0.372  0.800  0.001-  26 1.42  46 1.42  30 1.42
  46  0.439  0.934  0.001-  15 1.42  45 1.42   9 1.42
  47  0.572  0.800  0.001-  30 1.42  48 1.42  20 1.42
  48  0.639  0.934  0.001-  47 1.42  33 1.42  15 1.42
  49  0.772  0.800  0.001-  50 1.42  20 1.42  40 1.42
  50  0.839  0.934  0.001-  49 1.42   1 1.42  33 1.42
  51  0.373  0.251  0.378-  52 1.18  53 1.18
  52  0.421  0.189  0.380-  51 1.18
  53  0.325  0.313  0.375-  51 1.18
 
  LATTYP: Found a hexagonal cell.
 ALAT       =    12.3250000000
 C/A-ratio  =     2.0283975659
  
  Lattice vectors:
  
 A1 = (  12.3250000000,   0.0000000000,   0.0000000000)
 A2 = (  -6.1625000000,  10.6737631016,   0.0000000000)
 A3 = (   0.0000000000,   0.0000000000,  25.0000000000)


Analysis of symmetry for initial positions (statically):
=====================================================================
 Subroutine PRICEL returns:
 Original cell was already a primitive cell.
 

 Routine SETGRP: Setting up the symmetry group for a 
 hexagonal supercell.


 Subroutine GETGRP returns: Found  1 space group operations
 (whereof  1 operations were pure point group operations)
 out of a pool of 24 trial point group operations.


The static configuration has the point symmetry C_1 .


Analysis of symmetry for dynamics (positions and initial velocities):
=====================================================================
 Subroutine PRICEL returns:
 Original cell was already a primitive cell.
 

 Routine SETGRP: Setting up the symmetry group for a 
 hexagonal supercell.


 Subroutine GETGRP returns: Found  1 space group operations
 (whereof  1 operations were pure point group operations)
 out of a pool of 24 trial point group operations.


The dynamic configuration has the point symmetry C_1 .


 Subroutine INISYM returns: Found  1 space group operations
 (whereof  1 operations are pure point group operations),
 and found     1 'primitive' translations


----------------------------------------------------------------------------------------

                                     Primitive cell                                     

  volume of cell :    3288.8533

  direct lattice vectors                    reciprocal lattice vectors
    12.325000000  0.000000000  0.000000000     0.081135903  0.046843835  0.000000000
    -6.162500000 10.673763102  0.000000000     0.000000000  0.093687670  0.000000000
     0.000000000  0.000000000 25.000000000     0.000000000  0.000000000  0.040000000

  length of vectors
    12.325000000 12.325000000 25.000000000     0.093687670  0.093687670  0.040000000

  position of ions in fractional coordinates (direct lattice)
     0.972450841  0.000320818  0.000566711
     0.039118382  0.133659505  0.000440173
     0.172443627  0.000295449  0.000499628
     0.239096278  0.133647917  0.000256468
     0.972452058  0.200322012  0.000485219
     0.039128360  0.333643771  0.000444150
     0.172451764  0.200354552  0.000219167
     0.239124359  0.333665720  0.000072260
     0.372465565  0.000324403  0.000453913
     0.439137473  0.133619939  0.000258338
     0.972449824  0.400309362  0.000547611
     0.039124981  0.533636789  0.000573410
     0.372416176  0.400329481  0.000000000
     0.439099602  0.533638981  0.000232414
     0.572443676  0.000312125  0.000559580
     0.639110207  0.133631751  0.000547275
     0.972452703  0.600305653  0.000640289
     0.039124495  0.733640359  0.000654513
     0.572433471  0.600306242  0.000402895
     0.639111888  0.733641879  0.000527905
     0.172454630  0.400318228  0.000289045
     0.239120185  0.533636548  0.000378509
     0.372459750  0.200295993  0.000088997
     0.439107096  0.333673419  0.000055762
     0.172452155  0.600311506  0.000524340
     0.239123371  0.733638574  0.000575129
     0.572431082  0.200289171  0.000413296
     0.639112773  0.333618630  0.000462376
     0.372439808  0.600308022  0.000362844
     0.439116090  0.733637858  0.000494190
     0.572469358  0.400320504  0.000339918
     0.639119408  0.533650873  0.000459610
     0.772445723  0.000315427  0.000596161
     0.839116277  0.133640203  0.000575306
     0.772440513  0.200307432  0.000581033
     0.839120241  0.333635728  0.000585467
     0.772446320  0.400298367  0.000582978
     0.839118980  0.533633964  0.000621100
     0.772456143  0.600308173  0.000595712
     0.839115033  0.733643180  0.000631512
     0.972455313  0.800305582  0.000652233
     0.039114714  0.933643289  0.000598051
     0.172457971  0.800312211  0.000623372
     0.239134551  0.933647193  0.000544850
     0.372451396  0.800316674  0.000551399
     0.439124489  0.933644769  0.000541430
     0.572441101  0.800310054  0.000534535
     0.639115067  0.933638985  0.000587644
     0.772445098  0.800313187  0.000602062
     0.839116614  0.933644338  0.000606830
     0.373021009  0.251226878  0.377549725
     0.420879805  0.189313152  0.380126600
     0.325156981  0.313167186  0.375171530

  ion indices of the primitive-cell ions
   primitive index   ion index
                 1           1
                 2           2
                 3           3
                 4           4
                 5           5
                 6           6
                 7           7
                 8           8
                 9           9
                10          10
                11          11
                12          12
                13          13
                14          14
                15          15
                16          16
                17          17
                18          18
                19          19
                20          20
                21          21
                22          22
                23          23
                24          24
                25          25
                26          26
                27          27
                28          28
                29          29
                30          30
                31          31
                32          32
                33          33
                34          34
                35          35
                36          36
                37          37
                38          38
                39          39
                40          40
                41          41
                42          42
                43          43
                44          44
                45          45
                46          46
                47          47
                48          48
                49          49
                50          50
                51          51
                52          52
                53          53

----------------------------------------------------------------------------------------

 
 
 KPOINTS: auto                                    

Automatic generation of k-mesh.
 Grid dimensions read from file:
 generate k-points for:    1    1    1

 Generating k-lattice:

  Cartesian coordinates                     Fractional coordinates (reciprocal lattice)
     0.081135903  0.046843835  0.000000000     1.000000000 -0.000000000  0.000000000
     0.000000000  0.093687670  0.000000000     0.000000000  1.000000000  0.000000000
     0.000000000  0.000000000  0.040000000     0.000000000  0.000000000  1.000000000

  Length of vectors
     0.093687670  0.093687670  0.040000000

  Shift w.r.t. Gamma in fractional coordinates (k-lattice)
     0.000000000  0.000000000  0.000000000

 
 Subroutine IBZKPT returns following result:
 ===========================================
 
 Found      1 irreducible k-points:
 
 Following reciprocal coordinates:
            Coordinates               Weight
  0.000000  0.000000  0.000000      1.000000
 
 Following cartesian coordinates:
            Coordinates               Weight
  0.000000  0.000000  0.000000      1.000000
 


--------------------------------------------------------------------------------------------------------




 Dimension of arrays:
   k-points           NKPTS =      1   k-points in BZ     NKDIM =      1   number of bands    NBANDS=    168
   number of dos      NEDOS =    301   number of ions     NIONS =     53
   non local maximal  LDIM  =      4   non local SUM 2l+1 LMDIM =      8
   total plane-waves  NPLWV = ******
   max r-space proj   IRMAX =      1   max aug-charges    IRDMAX=  10008
   dimension x,y,z NGX =   128 NGY =  128 NGZ =  270
   dimension x,y,z NGXF=   256 NGYF=  256 NGZF=  540
   support grid    NGXF=   256 NGYF=  256 NGZF=  540
   ions per type =              51   2
   NGX,Y,Z   is equivalent  to a cutoff of  17.27, 17.27, 17.95 a.u.
   NGXF,Y,Z  is equivalent  to a cutoff of  34.53, 34.53, 35.91 a.u.

 SYSTEM =  unknown system                          
 POSCAR =   C  O                                   

 Startparameter for this run:
   NWRITE =      2    write-flag & timer
   PREC   = accura    normal or accurate (medium, high low for compatibility)
   ISTART =      0    job   : 0-new  1-cont  2-samecut
   ICHARG =      2    charge: 1-file 2-atom 10-const
   ISPIN  =      1    spin polarized calculation?
   LNONCOLLINEAR =      F non collinear calculations
   LSORBIT =      F    spin-orbit coupling
   INIWAV =      1    electr: 0-lowe 1-rand  2-diag
   LASPH  =      T    aspherical Exc in radial PAW
 Electronic Relaxation 1
   ENCUT  = 1000.0 eV  73.50 Ry    8.57 a.u.  31.78 31.78 64.46*2*pi/ulx,y,z
   ENINI  = 1000.0     initial cutoff
   ENAUG  =  946.8 eV  augmentation charge cutoff
   NELM   =     60;   NELMIN=  2; NELMDL= -5     # of ELM steps 
   EDIFF  = 0.1E-06   stopping-criterion for ELM
   LREAL  =      F    real-space projection
   NLSPLINE    = F    spline interpolate recip. space projectors
   LCOMPAT=      F    compatible to vasp.4.4
   GGA_COMPAT  = T    GGA compatible to vasp.4.4-vasp.4.6
   LMAXPAW     = -100 max onsite density
   LMAXMIX     =    2 max onsite mixed and CHGCAR
   VOSKOWN=      0    Vosko Wilk Nusair interpolation
   ROPT   =    0.00000   0.00000
 Ionic relaxation
   EDIFFG = 0.1E-05   stopping-criterion for IOM
   NSW    =      0    number of steps for IOM
   NBLOCK =      1;   KBLOCK =      1    inner block; outer block 
   IBRION =     -1    ionic relax: 0-MD 1-quasi-New 2-CG
   NFREE  =      0    steps in history (QN), initial steepest desc. (CG)
   ISIF   =      0    stress and relaxation
   IWAVPR =     10    prediction:  0-non 1-charg 2-wave 3-comb
   ISYM   =      2    0-nonsym 1-usesym 2-fastsym
   LCORR  =      T    Harris-Foulkes like correction to forces

   POTIM  = 0.5000    time-step for ionic-motion
   TEIN   =    0.0    initial temperature
   TEBEG  =    0.0;   TEEND  =   0.0 temperature during run
   SMASS  =  -3.00    Nose mass-parameter (am)
   estimated Nose-frequenzy (Omega)   =  0.10E-29 period in steps = 0.13E+47 mass=  -0.347E-26a.u.
   SCALEE = 1.0000    scale energy and forces
   NPACO  =    256;   APACO  = 16.0  distance and # of slots for P.C.
   PSTRESS=    0.0 pullay stress

  Mass of Ions in am
   POMASS =  12.01 16.00
  Ionic Valenz
   ZVAL   =   4.00  6.00
  Atomic Wigner-Seitz radii
   RWIGS  =  -1.00 -1.00
  virtual crystal weights 
   VCA    =   1.00  1.00
   NELECT =     216.0000    total number of electrons
   NUPDOWN=      -1.0000    fix difference up-down

 DOS related values:
   EMIN   =  10.00;   EMAX   =-10.00  energy-range for DOS
   EFERMI =   0.00
   ISMEAR =     0;   SIGMA  =   0.01  broadening in eV -4-tet -1-fermi 0-gaus

 Electronic relaxation 2 (details)
   IALGO  =     58    algorithm
   LDIAG  =      T    sub-space diagonalisation (order eigenvalues)
   LSUBROT=      F    optimize rotation matrix (better conditioning)
   TURBO    =      0    0=normal 1=particle mesh
   IRESTART =      0    0=no restart 2=restart with 2 vectors
   NREBOOT  =      0    no. of reboots
   NMIN     =      0    reboot dimension
   EREF     =   0.00    reference energy to select bands
   IMIX   =      4    mixing-type and parameters
     AMIX     =   0.40;   BMIX     =  1.00
     AMIX_MAG =   1.60;   BMIX_MAG =  1.00
     AMIN     =   0.10
     WC   =   100.;   INIMIX=   1;  MIXPRE=   1;  MAXMIX= -45

 Intra band minimization:
   WEIMIN = 0.0000     energy-eigenvalue tresh-hold
   EBREAK =  0.15E-09  absolut break condition
   DEPER  =   0.30     relativ break condition  

   TIME   =   0.40     timestep for ELM

  volume/ion in A,a.u.               =      62.05       418.76
  Fermi-wavevector in a.u.,A,eV,Ry     =   0.660508  1.248179  5.935820  0.436270
  Thomas-Fermi vector in A             =   1.732977
 
 Write flags
   LWAVE        =      T    write WAVECAR
   LDOWNSAMPLE  =      F    k-point downsampling of WAVECAR
   LCHARG       =      T    write CHGCAR
   LVTOT        =      F    write LOCPOT, total local potential
   LVHAR        =      F    write LOCPOT, Hartree potential only
   LELF         =      F    write electronic localiz. function (ELF)
   LORBIT       =      0    0 simple, 1 ext, 2 COOP (PROOUT), +10 PAW based schemes


 Dipole corrections
   LMONO  =      F    monopole corrections only (constant potential shift)
   LDIPOL =      F    correct potential (dipole corrections)
   IDIPOL =      0    1-x, 2-y, 3-z, 4-all directions 
   EPSILON=  1.0000000 bulk dielectric constant

 Exchange correlation treatment:
   GGA     =    --    GGA type
   LEXCH   =     8    internal setting for exchange type
   VOSKOWN=      0    Vosko Wilk Nusair interpolation
   LHFCALC =     F    Hartree Fock is set to
   LHFONE  =     F    Hartree Fock one center treatment
   AEXX    =    0.0000 exact exchange contribution

 Linear response parameters
   LEPSILON=     F    determine dielectric tensor
   LRPA    =     F    only Hartree local field effects (RPA)
   LNABLA  =     F    use nabla operator in PAW spheres
   LVEL    =     F    velocity operator in full k-point grid
   LINTERFAST=   F  fast interpolation
   KINTER  =     0    interpolate to denser k-point grid
   CSHIFT  =0.1000    complex shift for real part using Kramers Kronig
   OMEGAMAX=  -1.0    maximum frequency
   DEG_THRESHOLD= 0.2000000E-02 threshold for treating states as degnerate
   RTIME   =   -0.100 relaxation time in fs
  (WPLASMAI=    0.000 imaginary part of plasma frequency in eV, 0.658/RTIME)
   DFIELD  = 0.0000000 0.0000000 0.0000000 field for delta impulse in time
 
 Orbital magnetization related:
   ORBITALMAG=     F  switch on orbital magnetization
   LCHIMAG   =     F  perturbation theory with respect to B field
   DQ        =  0.001000  dq finite difference perturbation B field
   LLRAUG    =     F  two centre corrections for induced B field



--------------------------------------------------------------------------------------------------------


 Static calculation
 charge density and potential will be updated during run
 non-spin polarized calculation
 Conjugate gradient for all bands (Freysoldt, et al. PRB 79, 241103 (2009))
 preconditioned conjugated gradient                                        
 perform sub-space diagonalisation
    before iterative eigenvector-optimisation
 modified Broyden-mixing scheme, WC =      100.0
 initial mixing is a Kerker type mixing with AMIX =  0.4000 and BMIX =      1.0000
 Hartree-type preconditioning will be used
 using additional bands           60
 reciprocal scheme for non local part
 use partial core corrections
 no Harris-corrections to forces 
 use gradient corrections 
 use of overlap-Matrix (Vanderbilt PP)
 Gauss-broadening in eV      SIGMA  =   0.01


--------------------------------------------------------------------------------------------------------


  energy-cutoff  :     1000.00
  volume of cell :     3288.85
      direct lattice vectors                 reciprocal lattice vectors
    12.325000000  0.000000000  0.000000000     0.081135903  0.046843835  0.000000000
    -6.162500000 10.673763102  0.000000000     0.000000000  0.093687670  0.000000000
     0.000000000  0.000000000 25.000000000     0.000000000  0.000000000  0.040000000

  length of vectors
    12.325000000 12.325000000 25.000000000     0.093687670  0.093687670  0.040000000


 
 k-points in units of 2pi/SCALE and weight: auto                                    
   0.00000000  0.00000000  0.00000000       1.000
 
 k-points in reciprocal lattice and weights: auto                                    
   0.00000000  0.00000000  0.00000000       1.000
 
 position of ions in fractional coordinates (direct lattice) 
   0.97245084  0.00032082  0.00056671
   0.03911838  0.13365950  0.00044017
   0.17244363  0.00029545  0.00049963
   0.23909628  0.13364792  0.00025647
   0.97245206  0.20032201  0.00048522
   0.03912836  0.33364377  0.00044415
   0.17245176  0.20035455  0.00021917
   0.23912436  0.33366572  0.00007226
   0.37246557  0.00032440  0.00045391
   0.43913747  0.13361994  0.00025834
   0.97244982  0.40030936  0.00054761
   0.03912498  0.53363679  0.00057341
   0.37241618  0.40032948  0.00000000
   0.43909960  0.53363898  0.00023241
   0.57244368  0.00031213  0.00055958
   0.63911021  0.13363175  0.00054727
   0.97245270  0.60030565  0.00064029
   0.03912449  0.73364036  0.00065451
   0.57243347  0.60030624  0.00040289
   0.63911189  0.73364188  0.00052791
   0.17245463  0.40031823  0.00028904
   0.23912018  0.53363655  0.00037851
   0.37245975  0.20029599  0.00008900
   0.43910710  0.33367342  0.00005576
   0.17245216  0.60031151  0.00052434
   0.23912337  0.73363857  0.00057513
   0.57243108  0.20028917  0.00041330
   0.63911277  0.33361863  0.00046238
   0.37243981  0.60030802  0.00036284
   0.43911609  0.73363786  0.00049419
   0.57246936  0.40032050  0.00033992
   0.63911941  0.53365087  0.00045961
   0.77244572  0.00031543  0.00059616
   0.83911628  0.13364020  0.00057531
   0.77244051  0.20030743  0.00058103
   0.83912024  0.33363573  0.00058547
   0.77244632  0.40029837  0.00058298
   0.83911898  0.53363396  0.00062110
   0.77245614  0.60030817  0.00059571
   0.83911503  0.73364318  0.00063151
   0.97245531  0.80030558  0.00065223
   0.03911471  0.93364329  0.00059805
   0.17245797  0.80031221  0.00062337
   0.23913455  0.93364719  0.00054485
   0.37245140  0.80031667  0.00055140
   0.43912449  0.93364477  0.00054143
   0.57244110  0.80031005  0.00053453
   0.63911507  0.93363899  0.00058764
   0.77244510  0.80031319  0.00060206
   0.83911661  0.93364434  0.00060683
   0.37302101  0.25122688  0.37754973
   0.42087980  0.18931315  0.38012660
   0.32515698  0.31316719  0.37517153
 
 position of ions in cartesian coordinates  (Angst):
  11.98347958  0.00342433  0.01416777
  -0.34154264  1.42664989  0.01100432
   2.12354700  0.00315355  0.01249070
   2.12325634  1.42652621  0.00641170
  10.75098721  2.13818970  0.01213047
  -1.57382270  3.56123457  0.01110375
   0.89078307  2.13853702  0.00547917
   0.89099273  3.56146885  0.00180651
   4.58863896  0.00346260  0.01134782
   4.58893648  1.42622757  0.00645846
   9.51853763  4.27280730  0.01369027
  -2.80632132  5.69591267  0.01433526
   2.12299894  4.27302204  0.00000000
   2.12335237  5.69593607  0.00581036
   7.05344483  0.00333155  0.01398950
   7.05352764  1.42635365  0.01368187
   8.28609598  6.40752033  0.01600723
  -4.03884931  7.83070339  0.01636283
   3.35585531  6.40752662  0.01007237
   3.35598594  7.83071962  0.01319763
  -0.34145776  4.27290193  0.00722612
  -0.34137895  5.69591010  0.00946273
   3.35624236  2.13791198  0.00222492
   3.35573251  3.56155103  0.00139405
  -1.57394684  6.40758280  0.01310850
  -1.57385216  7.83068434  0.01437823
   5.82093107  2.13783916  0.01033241
   5.82114012  3.56096622  0.01155939
   0.89092245  6.40754561  0.00907111
   0.89106251  7.83067670  0.01235474
   4.58870974  4.27292622  0.00849795
   4.58852320  5.69606300  0.01149026
   9.51844972  0.00336679  0.01490402
   9.51855036  1.42644387  0.01438264
   8.28593477  2.13803408  0.01452582
   8.28612680  3.56114872  0.01463668
   7.05356221  4.27268994  0.01457444
   7.05362213  5.69588251  0.01552751
   5.82112285  6.40754723  0.01489279
   5.82101669  7.83073350  0.01578780
   7.05362858  8.54227219  0.01630582
  -5.27148792  9.96548729  0.01495127
  -2.80637951  8.54234295  0.01558431
  -2.80626749  9.96552896  0.01362126
  -0.34148805  8.54239058  0.01378498
  -0.34137657  9.96550309  0.01353576
   2.12342586  8.54231992  0.01336337
   2.12354296  9.96544135  0.01469111
   4.58845581  8.54235337  0.01505154
   4.58852904  9.96549848  0.01517076
   3.04929830  2.68153618  9.43874313
   4.02070129  2.02068374  9.50316499
   2.07766701  3.34267235  9.37928826
 


--------------------------------------------------------------------------------------------------------


 k-point   1 :   0.0000 0.0000 0.0000  plane waves:  236157

 maximum and minimum number of plane-waves per node :    236157   236157

 maximum number of plane-waves:    236157
 maximum index in each direction: 
   IXMAX=   31   IYMAX=   31   IZMAX=   64
   IXMIN=  -31   IYMIN=  -31   IZMIN=  -64


 serial   3D FFT for wavefunctions
 parallel 3D FFT for charge:
    minimum data exchange during FFTs selected (reduces bandwidth)


 total amount of memory used by VASP MPI-rank0   698619. kBytes
=======================================================================

   base      :      30000. kBytes
   nonl-proj :     230539. kBytes
   fftplans  :      40716. kBytes
   grid      :     363125. kBytes
   one-center:        162. kBytes
   wavefun   :      34077. kBytes
 
     INWAV:  cpu time    0.0000: real time    0.0000
 Broyden mixing: mesh for mixing (old mesh)
   NGX = 63   NGY = 63   NGZ =129
  (NGX  =256   NGY  =256   NGZ  =540)
  gives a total of 512001 points

 initial charge density was supplied:
 charge density of overlapping atoms calculated
 number of electron     216.0000000 magnetization 
 keeping initial charge density in first step


--------------------------------------------------------------------------------------------------------


 Maximum index for augmentation-charges          471 (set IRDMAX)


--------------------------------------------------------------------------------------------------------


 First call to EWALD:  gamma=   0.119
 Maximum number of real-space cells 4x 4x 2
 Maximum number of reciprocal cells 2x 2x 4

    FEWALD:  cpu time    0.0021: real time    0.0021


--------------------------------------- Iteration      1(   1)  ---------------------------------------


    POTLOK:  cpu time    1.7384: real time    1.7504
    SETDIJ:  cpu time    0.1984: real time    0.1992
    TRIAL :  cpu time   28.1177: real time   28.3496
    CORREC:  cpu time    0.0002: real time    0.0004
    --------------------------------------------
      LOOP:  cpu time   30.0599: real time   30.3361

 eigenvalue-minimisations  :   336
 total energy-change (2. order) : 0.2540295E+04  (-0.1080650E+05)
 number of electron     216.0000000 magnetization 
 augmentation part      216.0000000 magnetization 

 Free energy of the ion-electron system (eV)
  ---------------------------------------------------
  alpha Z        PSCENC =        47.94900195
  Ewald energy   TEWEN  =     40658.92799854
  -Hartree energ DENC   =    -46728.16613704
  -exchange      EXHF   =         0.00000000
  -V(xc)+E(xc)   XCENC  =       605.05725279
  PAW double counting   =      6340.10990386    -6200.63067283
  entropy T*S    EENTRO =        -0.00000000
  eigenvalues    EBANDS =      -552.47616299
  atomic energy  EATOM  =      8369.52358910
  ---------------------------------------------------
  free energy    TOTEN  =      2540.29477338 eV

  energy without entropy =     2540.29477338  energy(sigma->0) =     2540.29477338


--------------------------------------------------------------------------------------------------------




--------------------------------------- Iteration      1(   2)  ---------------------------------------


    TRIAL :  cpu time   45.7551: real time   46.1626
    CORREC:  cpu time    0.0001: real time    0.0001
    --------------------------------------------
      LOOP:  cpu time   45.8293: real time   46.2431

 eigenvalue-minimisations  :   672
 total energy-change (2. order) :-0.2532501E+04  (-0.2414340E+04)
 number of electron     216.0000000 magnetization 
 augmentation part      216.0000000 magnetization 

 Free energy of the ion-electron system (eV)
  ---------------------------------------------------
  alpha Z        PSCENC =        47.94900195
  Ewald energy   TEWEN  =     40658.92799854
  -Hartree energ DENC   =    -46728.16613704
  -exchange      EXHF   =         0.00000000
  -V(xc)+E(xc)   XCENC  =       605.05725279
  PAW double counting   =      6340.10990386    -6200.63067283
  entropy T*S    EENTRO =        -0.00000000
  eigenvalues    EBANDS =     -3084.97732415
  atomic energy  EATOM  =      8369.52358910
  ---------------------------------------------------
  free energy    TOTEN  =         7.79361221 eV

  energy without entropy =        7.79361221  energy(sigma->0) =        7.79361221


--------------------------------------------------------------------------------------------------------




--------------------------------------- Iteration      1(   3)  ---------------------------------------


    TRIAL :  cpu time   30.9805: real time   31.2261
    CORREC:  cpu time    0.0001: real time    0.0001
    --------------------------------------------
      LOOP:  cpu time   31.0427: real time   31.2916

 eigenvalue-minimisations  :   392
 total energy-change (2. order) :-0.5849890E+03  (-0.5822474E+03)
 number of electron     216.0000000 magnetization 
 augmentation part      216.0000000 magnetization 

 Free energy of the ion-electron system (eV)
  ---------------------------------------------------
  alpha Z        PSCENC =        47.94900195
  Ewald energy   TEWEN  =     40658.92799854
  -Hartree energ DENC   =    -46728.16613704
  -exchange      EXHF   =         0.00000000
  -V(xc)+E(xc)   XCENC  =       605.05725279
  PAW double counting   =      6340.10990386    -6200.63067283
  entropy T*S    EENTRO =        -0.00000000
  eigenvalues    EBANDS =     -3669.96628683
  atomic energy  EATOM  =      8369.52358910
  ---------------------------------------------------
  free energy    TOTEN  =      -577.19535046 eV

  energy without entropy =     -577.19535046  energy(sigma->0) =     -577.19535046


--------------------------------------------------------------------------------------------------------




--------------------------------------- Iteration      1(   4)  ---------------------------------------


    TRIAL :  cpu time   33.9007: real time   34.2168
    CORREC:  cpu time    0.0001: real time    0.0001
    --------------------------------------------
      LOOP:  cpu time   33.9652: real time   34.2845

 eigenvalue-minimisations  :   448
 total energy-change (2. order) :-0.2953704E+02  (-0.2930121E+02)
 number of electron     216.0000000 magnetization 
 augmentation part      216.0000000 magnetization 

 Free energy of the ion-electron system (eV)
  ---------------------------------------------------
  alpha Z        PSCENC =        47.94900195
  Ewald energy   TEWEN  =     40658.92799854
  -Hartree energ DENC   =    -46728.16613704
  -exchange      EXHF   =         0.00000000
  -V(xc)+E(xc)   XCENC  =       605.05725279
  PAW double counting   =      6340.10990386    -6200.63067283
  entropy T*S    EENTRO =        -0.00000000
  eigenvalues    EBANDS =     -3699.50332190
  atomic energy  EATOM  =      8369.52358910
  ---------------------------------------------------
  free energy    TOTEN  =      -606.73238553 eV

  energy without entropy =     -606.73238553  energy(sigma->0) =     -606.73238553


--------------------------------------------------------------------------------------------------------




--------------------------------------- Iteration      1(   5)  ---------------------------------------


    TRIAL :  cpu time   30.9658: real time   31.2134
    CORREC:  cpu time    0.0001: real time    0.0001
    CHARGE:  cpu time    2.9965: real time    3.0184
    --------------------------------------------
      LOOP:  cpu time   34.0196: real time   34.2932

 eigenvalue-minimisations  :   392
 total energy-change (2. order) :-0.1007667E+01  (-0.1006077E+01)
 number of electron     216.0000000 magnetization 
 augmentation part       -0.4484270 magnetization 

 Free energy of the ion-electron system (eV)
  ---------------------------------------------------
  alpha Z        PSCENC =        47.94900195
  Ewald energy   TEWEN  =     40658.92799854
  -Hartree energ DENC   =    -46728.16613704
  -exchange      EXHF   =         0.00000000
  -V(xc)+E(xc)   XCENC  =       605.05725279
  PAW double counting   =      6340.10990386    -6200.63067283
  entropy T*S    EENTRO =        -0.00000000
  eigenvalues    EBANDS =     -3700.51098894
  atomic energy  EATOM  =      8369.52358910
  ---------------------------------------------------
  free energy    TOTEN  =      -607.74005257 eV

  energy without entropy =     -607.74005257  energy(sigma->0) =     -607.74005257


--------------------------------------------------------------------------------------------------------




--------------------------------------- Iteration      1(   6)  ---------------------------------------


    POTLOK:  cpu time    1.6988: real time    1.7086
    SETDIJ:  cpu time    0.2132: real time    0.2140
    TRIAL :  cpu time   20.0442: real time   20.2024
    CORREC:  cpu time    8.9738: real time    9.0357
    CHARGE:  cpu time    2.9861: real time    3.0091
    --------------------------------------------
      LOOP:  cpu time   33.9718: real time   34.2310

 eigenvalue-minimisations  :     0
 total energy-change (2. order) : 0.9797955E+02  (-0.1126125E+02)
 number of electron     216.0000000 magnetization 
 augmentation part       -0.5082464 magnetization 

 Free energy of the ion-electron system (eV)
  ---------------------------------------------------
  alpha Z        PSCENC =        47.94900195
  Ewald energy   TEWEN  =     40658.92799854
  -Hartree energ DENC   =    -48071.05296995
  -exchange      EXHF   =         0.00000000
  -V(xc)+E(xc)   XCENC  =       676.76495562
  PAW double counting   =    119441.05528433  -119301.46302944
  entropy T*S    EENTRO =        -0.00000000
  eigenvalues    EBANDS =     -2331.46532917
  atomic energy  EATOM  =      8369.52358910
  ---------------------------------------------------
  free energy    TOTEN  =      -509.76049902 eV

  energy without entropy =     -509.76049902  energy(sigma->0) =     -509.76049902


--------------------------------------------------------------------------------------------------------




--------------------------------------- Iteration      1(   7)  ---------------------------------------


    POTLOK:  cpu time    1.6982: real time    1.7093
    SETDIJ:  cpu time    0.2014: real time    0.2022
    TRIAL :  cpu time   20.0412: real time   20.2027
    CORREC:  cpu time    8.9576: real time    9.0386
    CHARGE:  cpu time    2.9562: real time    3.0087
    --------------------------------------------
      LOOP:  cpu time   33.9627: real time   34.2708

 eigenvalue-minimisations  :     0
 total energy-change (2. order) :-0.1127635E+02  (-0.1478984E+01)
 number of electron     216.0000000 magnetization 
 augmentation part       -0.5412787 magnetization 

 Free energy of the ion-electron system (eV)
  ---------------------------------------------------
  alpha Z        PSCENC =        47.94900195
  Ewald energy   TEWEN  =     40658.92799854
  -Hartree energ DENC   =    -47662.10816354
  -exchange      EXHF   =         0.00000000
  -V(xc)+E(xc)   XCENC  =       659.15176322
  PAW double counting   =    138651.79805040  -138510.46943204
  entropy T*S    EENTRO =        -0.00000000
  eigenvalues    EBANDS =     -2735.80965694
  atomic energy  EATOM  =      8369.52358910
  ---------------------------------------------------
  free energy    TOTEN  =      -521.03684931 eV

  energy without entropy =     -521.03684931  energy(sigma->0) =     -521.03684931


--------------------------------------------------------------------------------------------------------




--------------------------------------- Iteration      1(   8)  ---------------------------------------


    POTLOK:  cpu time    1.6942: real time    1.7041
    SETDIJ:  cpu time    0.2039: real time    0.2046
    TRIAL :  cpu time   20.0280: real time   20.1931
    CORREC:  cpu time    8.9789: real time    9.0462
    CHARGE:  cpu time    2.9892: real time    3.0132
    --------------------------------------------
      LOOP:  cpu time   33.9481: real time   34.2275

 eigenvalue-minimisations  :     0
 total energy-change (2. order) :-0.1478520E+01  (-0.4771113E+00)
 number of electron     216.0000000 magnetization 
 augmentation part       -0.5426772 magnetization 

 Free energy of the ion-electron system (eV)
  ---------------------------------------------------
  alpha Z        PSCENC =        47.94900195
  Ewald energy   TEWEN  =     40658.92799854
  -Hartree energ DENC   =    -47631.29835421
  -exchange      EXHF   =         0.00000000
  -V(xc)+E(xc)   XCENC  =       658.06210938
  PAW double counting   =    148203.97375050  -148062.52054431
  entropy T*S    EENTRO =        -0.00000000
  eigenvalues    EBANDS =     -2767.13292042
  atomic energy  EATOM  =      8369.52358910
  ---------------------------------------------------
  free energy    TOTEN  =      -522.51536946 eV

  energy without entropy =     -522.51536946  energy(sigma->0) =     -522.51536946


--------------------------------------------------------------------------------------------------------




--------------------------------------- Iteration      1(   9)  ---------------------------------------


    POTLOK:  cpu time    1.6957: real time    1.7058
    SETDIJ:  cpu time    0.2055: real time    0.2063
    TRIAL :  cpu time   20.0430: real time   20.2070
    CORREC:  cpu time    8.9813: real time    9.0482
    CHARGE:  cpu time    2.9852: real time    3.0075
    --------------------------------------------
      LOOP:  cpu time   33.9423: real time   34.2232

 eigenvalue-minimisations  :     0
 total energy-change (2. order) :-0.4768520E+00  (-0.1918188E+00)
 number of electron     216.0000000 magnetization 
 augmentation part       -0.5397061 magnetization 

 Free energy of the ion-electron system (eV)
  ---------------------------------------------------
  alpha Z        PSCENC =        47.94900195
  Ewald energy   TEWEN  =     40658.92799854
  -Hartree energ DENC   =    -47638.25433409
  -exchange      EXHF   =         0.00000000
  -V(xc)+E(xc)   XCENC  =       658.01317783
  PAW double counting   =    156179.19741587  -156037.67330077
  entropy T*S    EENTRO =        -0.00000000
  eigenvalues    EBANDS =     -2760.67576989
  atomic energy  EATOM  =      8369.52358910
  ---------------------------------------------------
  free energy    TOTEN  =      -522.99222146 eV

  energy without entropy =     -522.99222146  energy(sigma->0) =     -522.99222146


--------------------------------------------------------------------------------------------------------




--------------------------------------- Iteration      1(  10)  ---------------------------------------


    POTLOK:  cpu time    1.6986: real time    1.7086
    SETDIJ:  cpu time    0.2050: real time    0.2057
    TRIAL :  cpu time   20.0476: real time   20.2069
    CORREC:  cpu time    8.9907: real time    9.0534
    CHARGE:  cpu time    2.9828: real time    3.0041
    --------------------------------------------
      LOOP:  cpu time   33.9521: real time   34.2103

 eigenvalue-minimisations  :     0
 total energy-change (2. order) :-0.1915652E+00  (-0.8426396E-01)
 number of electron     216.0000000 magnetization 
 augmentation part       -0.5343002 magnetization 

 Free energy of the ion-electron system (eV)
  ---------------------------------------------------
  alpha Z        PSCENC =        47.94900195
  Ewald energy   TEWEN  =     40658.92799854
  -Hartree energ DENC   =    -47637.77981182
  -exchange      EXHF   =         0.00000000
  -V(xc)+E(xc)   XCENC  =       657.92362079
  PAW double counting   =    160138.29417374  -159996.72069859
  entropy T*S    EENTRO =        -0.00000000
  eigenvalues    EBANDS =     -2761.30166033
  atomic energy  EATOM  =      8369.52358910
  ---------------------------------------------------
  free energy    TOTEN  =      -523.18378662 eV

  energy without entropy =     -523.18378662  energy(sigma->0) =     -523.18378662


--------------------------------------------------------------------------------------------------------




--------------------------------------- Iteration      1(  11)  ---------------------------------------


    POTLOK:  cpu time    1.7014: real time    1.7130
    SETDIJ:  cpu time    0.1969: real time    0.1976
    TRIAL :  cpu time   20.0320: real time   20.1925
    CORREC:  cpu time    8.9742: real time    9.0401
    CHARGE:  cpu time    3.0129: real time    3.0348
    --------------------------------------------
      LOOP:  cpu time   33.9703: real time   34.2544

 eigenvalue-minimisations  :     0
 total energy-change (2. order) :-0.8409526E-01  (-0.3254025E-01)
 number of electron     216.0000000 magnetization 
 augmentation part       -0.5305940 magnetization 

 Free energy of the ion-electron system (eV)
  ---------------------------------------------------
  alpha Z        PSCENC =        47.94900195
  Ewald energy   TEWEN  =     40658.92799854
  -Hartree energ DENC   =    -47631.82348097
  -exchange      EXHF   =         0.00000000
  -V(xc)+E(xc)   XCENC  =       657.85593977
  PAW double counting   =    160805.08168282  -160663.52837550
  entropy T*S    EENTRO =        -0.00000000
  eigenvalues    EBANDS =     -2767.25423759
  atomic energy  EATOM  =      8369.52358910
  ---------------------------------------------------
  free energy    TOTEN  =      -523.26788188 eV

  energy without entropy =     -523.26788188  energy(sigma->0) =     -523.26788188


--------------------------------------------------------------------------------------------------------




--------------------------------------- Iteration      1(  12)  ---------------------------------------


    POTLOK:  cpu time    1.6972: real time    1.7072
    SETDIJ:  cpu time    0.2050: real time    0.2057
    TRIAL :  cpu time   20.0379: real time   20.1873
    CORREC:  cpu time    8.9787: real time    9.0432
    CHARGE:  cpu time    2.9952: real time    3.0177
    --------------------------------------------
      LOOP:  cpu time   33.9836: real time   34.2360

 eigenvalue-minimisations  :     0
 total energy-change (2. order) :-0.3248815E-01  (-0.9984424E-02)
 number of electron     216.0000000 magnetization 
 augmentation part       -0.5303621 magnetization 

 Free energy of the ion-electron system (eV)
  ---------------------------------------------------
  alpha Z        PSCENC =        47.94900195
  Ewald energy   TEWEN  =     40658.92799854
  -Hartree energ DENC   =    -47627.24882530
  -exchange      EXHF   =         0.00000000
  -V(xc)+E(xc)   XCENC  =       657.78730877
  PAW double counting   =    160197.74633818  -160056.22003295
  entropy T*S    EENTRO =        -0.00000000
  eigenvalues    EBANDS =     -2771.76574832
  atomic energy  EATOM  =      8369.52358910
  ---------------------------------------------------
  free energy    TOTEN  =      -523.30037003 eV

  energy without entropy =     -523.30037003  energy(sigma->0) =     -523.30037003


--------------------------------------------------------------------------------------------------------




--------------------------------------- Iteration      1(  13)  ---------------------------------------


    POTLOK:  cpu time    1.6959: real time    1.7056
    SETDIJ:  cpu time    0.2095: real time    0.2102
    TRIAL :  cpu time   20.0455: real time   20.1962
    CORREC:  cpu time    8.9807: real time    9.0466
    CHARGE:  cpu time    2.9872: real time    3.0092
    --------------------------------------------
      LOOP:  cpu time   33.9933: real time   34.2538

 eigenvalue-minimisations  :     0
 total energy-change (2. order) :-0.9965920E-02  (-0.2821358E-02)
 number of electron     216.0000000 magnetization 
 augmentation part       -0.5308870 magnetization 

 Free energy of the ion-electron system (eV)
  ---------------------------------------------------
  alpha Z        PSCENC =        47.94900195
  Ewald energy   TEWEN  =     40658.92799854
  -Hartree energ DENC   =    -47626.04753283
  -exchange      EXHF   =         0.00000000
  -V(xc)+E(xc)   XCENC  =       657.74310493
  PAW double counting   =    159488.17815062  -159346.65663392
  entropy T*S    EENTRO =        -0.00000000
  eigenvalues    EBANDS =     -2772.92801435
  atomic energy  EATOM  =      8369.52358910
  ---------------------------------------------------
  free energy    TOTEN  =      -523.31033595 eV

  energy without entropy =     -523.31033595  energy(sigma->0) =     -523.31033595


--------------------------------------------------------------------------------------------------------




--------------------------------------- Iteration      1(  14)  ---------------------------------------


    POTLOK:  cpu time    1.6981: real time    1.7079
    SETDIJ:  cpu time    0.2045: real time    0.2053
    TRIAL :  cpu time   20.0113: real time   20.1863
    CORREC:  cpu time    8.9727: real time    9.0404
    CHARGE:  cpu time    2.9850: real time    3.0073
    --------------------------------------------
      LOOP:  cpu time   33.9275: real time   34.2073

 eigenvalue-minimisations  :     0
 total energy-change (2. order) :-0.2810849E-02  (-0.8038161E-03)
 number of electron     216.0000000 magnetization 
 augmentation part       -0.5312141 magnetization 

 Free energy of the ion-electron system (eV)
  ---------------------------------------------------
  alpha Z        PSCENC =        47.94900195
  Ewald energy   TEWEN  =     40658.92799854
  -Hartree energ DENC   =    -47626.14769952
  -exchange      EXHF   =         0.00000000
  -V(xc)+E(xc)   XCENC  =       657.73087494
  PAW double counting   =    159067.81218424  -158926.28926254
  entropy T*S    EENTRO =        -0.00000000
  eigenvalues    EBANDS =     -2772.81983351
  atomic energy  EATOM  =      8369.52358910
  ---------------------------------------------------
  free energy    TOTEN  =      -523.31314680 eV

  energy without entropy =     -523.31314680  energy(sigma->0) =     -523.31314680


--------------------------------------------------------------------------------------------------------




--------------------------------------- Iteration      1(  15)  ---------------------------------------


    POTLOK:  cpu time    1.6956: real time    1.7056
    SETDIJ:  cpu time    0.2070: real time    0.2077
    TRIAL :  cpu time   20.0261: real time   20.1848
    CORREC:  cpu time    8.9921: real time    9.0559
    CHARGE:  cpu time    2.9835: real time    3.0048
    --------------------------------------------
      LOOP:  cpu time   33.9173: real time   34.1993

 eigenvalue-minimisations  :     0
 total energy-change (2. order) :-0.7983045E-03  (-0.2411585E-03)
 number of electron     216.0000000 magnetization 
 augmentation part       -0.5314416 magnetization 

 Free energy of the ion-electron system (eV)
  ---------------------------------------------------
  alpha Z        PSCENC =        47.94900195
  Ewald energy   TEWEN  =     40658.92799854
  -Hartree energ DENC   =    -47626.08416220
  -exchange      EXHF   =         0.00000000
  -V(xc)+E(xc)   XCENC  =       657.72525453
  PAW double counting   =    158855.11625715  -158713.59211722
  entropy T*S    EENTRO =        -0.00000000
  eigenvalues    EBANDS =     -2772.87976695
  atomic energy  EATOM  =      8369.52358910
  ---------------------------------------------------
  free energy    TOTEN  =      -523.31394511 eV

  energy without entropy =     -523.31394511  energy(sigma->0) =     -523.31394511


--------------------------------------------------------------------------------------------------------




--------------------------------------- Iteration      1(  16)  ---------------------------------------


    POTLOK:  cpu time    1.6976: real time    1.7078
    SETDIJ:  cpu time    0.2026: real time    0.2033
    TRIAL :  cpu time   20.0355: real time   20.1838
    CORREC:  cpu time    8.9967: real time    9.0704
    CHARGE:  cpu time    2.9958: real time    3.0221
    --------------------------------------------
      LOOP:  cpu time   33.9826: real time   34.2451

 eigenvalue-minimisations  :     0
 total energy-change (2. order) :-0.2388305E-03  (-0.8984593E-04)
 number of electron     216.0000000 magnetization 
 augmentation part       -0.5315371 magnetization 

 Free energy of the ion-electron system (eV)
  ---------------------------------------------------
  alpha Z        PSCENC =        47.94900195
  Ewald energy   TEWEN  =     40658.92799854
  -Hartree energ DENC   =    -47625.98819567
  -exchange      EXHF   =         0.00000000
  -V(xc)+E(xc)   XCENC  =       657.71933483
  PAW double counting   =    158737.01064402  -158595.48478278
  entropy T*S    EENTRO =        -0.00000000
  eigenvalues    EBANDS =     -2772.97177393
  atomic energy  EATOM  =      8369.52358910
  ---------------------------------------------------
  free energy    TOTEN  =      -523.31418394 eV

  energy without entropy =     -523.31418394  energy(sigma->0) =     -523.31418394


--------------------------------------------------------------------------------------------------------




--------------------------------------- Iteration      1(  17)  ---------------------------------------


    POTLOK:  cpu time    1.6979: real time    1.7101
    SETDIJ:  cpu time    0.2041: real time    0.2048
    TRIAL :  cpu time   20.0443: real time   20.2131
    CORREC:  cpu time    8.9721: real time    9.0462
    CHARGE:  cpu time    2.9902: real time    3.0162
    --------------------------------------------
      LOOP:  cpu time   33.9680: real time   34.2539

 eigenvalue-minimisations  :     0
 total energy-change (2. order) :-0.8850274E-04  (-0.3656982E-04)
 number of electron     216.0000000 magnetization 
 augmentation part       -0.5315801 magnetization 

 Free energy of the ion-electron system (eV)
  ---------------------------------------------------
  alpha Z        PSCENC =        47.94900195
  Ewald energy   TEWEN  =     40658.92799854
  -Hartree energ DENC   =    -47626.15234246
  -exchange      EXHF   =         0.00000000
  -V(xc)+E(xc)   XCENC  =       657.72617017
  PAW double counting   =    158663.58105198  -158522.05505997
  entropy T*S    EENTRO =        -0.00000000
  eigenvalues    EBANDS =     -2772.81468175
  atomic energy  EATOM  =      8369.52358910
  ---------------------------------------------------
  free energy    TOTEN  =      -523.31427244 eV

  energy without entropy =     -523.31427244  energy(sigma->0) =     -523.31427244


--------------------------------------------------------------------------------------------------------




--------------------------------------- Iteration      1(  18)  ---------------------------------------


    POTLOK:  cpu time    1.7092: real time    1.7192
    SETDIJ:  cpu time    0.1967: real time    0.1975
    TRIAL :  cpu time   20.0476: real time   20.1950
    CORREC:  cpu time    8.9760: real time    9.0375
    CHARGE:  cpu time    2.9990: real time    3.0206
    --------------------------------------------
      LOOP:  cpu time   33.9726: real time   34.2424

 eigenvalue-minimisations  :     0
 total energy-change (2. order) :-0.3679286E-04  (-0.1383989E-04)
 number of electron     216.0000000 magnetization 
 augmentation part       -0.5315988 magnetization 

 Free energy of the ion-electron system (eV)
  ---------------------------------------------------
  alpha Z        PSCENC =        47.94900195
  Ewald energy   TEWEN  =     40658.92799854
  -Hartree energ DENC   =    -47626.22418800
  -exchange      EXHF   =         0.00000000
  -V(xc)+E(xc)   XCENC  =       657.72879966
  PAW double counting   =    158638.69433486  -158497.16805578
  entropy T*S    EENTRO =        -0.00000000
  eigenvalues    EBANDS =     -2772.74578956
  atomic energy  EATOM  =      8369.52358910
  ---------------------------------------------------
  free energy    TOTEN  =      -523.31430923 eV

  energy without entropy =     -523.31430923  energy(sigma->0) =     -523.31430923


--------------------------------------------------------------------------------------------------------




--------------------------------------- Iteration      1(  19)  ---------------------------------------


    POTLOK:  cpu time    1.6959: real time    1.7057
    SETDIJ:  cpu time    0.2056: real time    0.2064
    TRIAL :  cpu time   20.0453: real time   20.1916
    CORREC:  cpu time    8.9760: real time    9.0388
    CHARGE:  cpu time    2.9911: real time    3.0123
    --------------------------------------------
      LOOP:  cpu time   33.9942: real time   34.2379

 eigenvalue-minimisations  :     0
 total energy-change (2. order) :-0.1427386E-04  (-0.5126282E-05)
 number of electron     216.0000000 magnetization 
 augmentation part       -0.5315905 magnetization 

 Free energy of the ion-electron system (eV)
  ---------------------------------------------------
  alpha Z        PSCENC =        47.94900195
  Ewald energy   TEWEN  =     40658.92799854
  -Hartree energ DENC   =    -47626.21915383
  -exchange      EXHF   =         0.00000000
  -V(xc)+E(xc)   XCENC  =       657.72828533
  PAW double counting   =    158646.21772682  -158504.69115848
  entropy T*S    EENTRO =        -0.00000000
  eigenvalues    EBANDS =     -2772.75061293
  atomic energy  EATOM  =      8369.52358910
  ---------------------------------------------------
  free energy    TOTEN  =      -523.31432351 eV

  energy without entropy =     -523.31432351  energy(sigma->0) =     -523.31432351


--------------------------------------------------------------------------------------------------------




--------------------------------------- Iteration      1(  20)  ---------------------------------------


    POTLOK:  cpu time    1.6982: real time    1.7080
    SETDIJ:  cpu time    0.2059: real time    0.2066
    TRIAL :  cpu time   20.0414: real time   20.1936
    CORREC:  cpu time    8.9815: real time    9.0450
    CHARGE:  cpu time    2.9934: real time    3.0151
    --------------------------------------------
      LOOP:  cpu time   33.9923: real time   34.2426

 eigenvalue-minimisations  :     0
 total energy-change (2. order) :-0.5295587E-05  (-0.1826230E-05)
 number of electron     216.0000000 magnetization 
 augmentation part       -0.5315818 magnetization 

 Free energy of the ion-electron system (eV)
  ---------------------------------------------------
  alpha Z        PSCENC =        47.94900195
  Ewald energy   TEWEN  =     40658.92799854
  -Hartree energ DENC   =    -47626.23987959
  -exchange      EXHF   =         0.00000000
  -V(xc)+E(xc)   XCENC  =       657.72918254
  PAW double counting   =    158661.14576248  -158519.61928606
  entropy T*S    EENTRO =        -0.00000000
  eigenvalues    EBANDS =     -2772.73069777
  atomic energy  EATOM  =      8369.52358910
  ---------------------------------------------------
  free energy    TOTEN  =      -523.31432880 eV

  energy without entropy =     -523.31432880  energy(sigma->0) =     -523.31432880


--------------------------------------------------------------------------------------------------------




--------------------------------------- Iteration      1(  21)  ---------------------------------------


    POTLOK:  cpu time    1.6970: real time    1.7070
    SETDIJ:  cpu time    0.2042: real time    0.2050
    TRIAL :  cpu time   20.0483: real time   20.2017
    CORREC:  cpu time    8.9717: real time    9.0382
    CHARGE:  cpu time    3.0067: real time    3.0302
    --------------------------------------------
      LOOP:  cpu time   33.9526: real time   34.2087

 eigenvalue-minimisations  :     0
 total energy-change (2. order) :-0.1863344E-05  (-0.7058888E-06)
 number of electron     216.0000000 magnetization 
 augmentation part       -0.5315674 magnetization 

 Free energy of the ion-electron system (eV)
  ---------------------------------------------------
  alpha Z        PSCENC =        47.94900195
  Ewald energy   TEWEN  =     40658.92799854
  -Hartree energ DENC   =    -47626.24450010
  -exchange      EXHF   =         0.00000000
  -V(xc)+E(xc)   XCENC  =       657.72912201
  PAW double counting   =    158672.58811520  -158531.06167899
  entropy T*S    EENTRO =        -0.00000000
  eigenvalues    EBANDS =     -2772.72597838
  atomic energy  EATOM  =      8369.52358910
  ---------------------------------------------------
  free energy    TOTEN  =      -523.31433067 eV

  energy without entropy =     -523.31433067  energy(sigma->0) =     -523.31433067


--------------------------------------------------------------------------------------------------------




--------------------------------------- Iteration      1(  22)  ---------------------------------------


    POTLOK:  cpu time    1.6950: real time    1.7049
    SETDIJ:  cpu time    0.2087: real time    0.2095
    TRIAL :  cpu time   20.0245: real time   20.1822
    CORREC:  cpu time    8.9765: real time    9.0407
    CHARGE:  cpu time    3.0056: real time    3.0288
    --------------------------------------------
      LOOP:  cpu time   33.9466: real time   34.2293

 eigenvalue-minimisations  :     0
 total energy-change (2. order) :-0.6970658E-06  (-0.3249712E-06)
 number of electron     216.0000000 magnetization 
 augmentation part       -0.5315566 magnetization 

 Free energy of the ion-electron system (eV)
  ---------------------------------------------------
  alpha Z        PSCENC =        47.94900195
  Ewald energy   TEWEN  =     40658.92799854
  -Hartree energ DENC   =    -47626.24106107
  -exchange      EXHF   =         0.00000000
  -V(xc)+E(xc)   XCENC  =       657.72898109
  PAW double counting   =    158679.09126713  -158537.56491947
  entropy T*S    EENTRO =        -0.00000000
  eigenvalues    EBANDS =     -2772.72918864
  atomic energy  EATOM  =      8369.52358910
  ---------------------------------------------------
  free energy    TOTEN  =      -523.31433136 eV

  energy without entropy =     -523.31433136  energy(sigma->0) =     -523.31433136


--------------------------------------------------------------------------------------------------------




--------------------------------------- Iteration      1(  23)  ---------------------------------------


    POTLOK:  cpu time    1.6979: real time    1.7081
    SETDIJ:  cpu time    0.2054: real time    0.2062
    TRIAL :  cpu time   20.0380: real time   20.1984
    CORREC:  cpu time    8.9753: real time    9.0433
    CHARGE:  cpu time    2.9865: real time    3.0109
    --------------------------------------------
      LOOP:  cpu time   33.9463: real time   34.2117

 eigenvalue-minimisations  :     0
 total energy-change (2. order) :-0.2711895E-06  (-0.2275651E-06)
 number of electron     216.0000000 magnetization 
 augmentation part       -0.5315559 magnetization 

 Free energy of the ion-electron system (eV)
  ---------------------------------------------------
  alpha Z        PSCENC =        47.94900195
  Ewald energy   TEWEN  =     40658.92799854
  -Hartree energ DENC   =    -47626.23677903
  -exchange      EXHF   =         0.00000000
  -V(xc)+E(xc)   XCENC  =       657.72889067
  PAW double counting   =    158682.47290295  -158540.94662873
  entropy T*S    EENTRO =        -0.00000000
  eigenvalues    EBANDS =     -2772.73330708
  atomic energy  EATOM  =      8369.52358910
  ---------------------------------------------------
  free energy    TOTEN  =      -523.31433163 eV

  energy without entropy =     -523.31433163  energy(sigma->0) =     -523.31433163


--------------------------------------------------------------------------------------------------------




--------------------------------------- Iteration      1(  24)  ---------------------------------------


    POTLOK:  cpu time    1.6968: real time    1.7069
    SETDIJ:  cpu time    0.2081: real time    0.2089
    TRIAL :  cpu time   20.0535: real time   20.2105
    CORREC:  cpu time    8.9654: real time    9.0318
    CHARGE:  cpu time    2.9927: real time    3.0153
    --------------------------------------------
      LOOP:  cpu time   33.9505: real time   34.2304

 eigenvalue-minimisations  :     0
 total energy-change (2. order) : 0.1271837E-07  (-0.1788222E-06)
 number of electron     216.0000000 magnetization 
 augmentation part       -0.5315559 magnetization 

 Free energy of the ion-electron system (eV)
  ---------------------------------------------------
  alpha Z        PSCENC =        47.94900195
  Ewald energy   TEWEN  =     40658.92799854
  -Hartree energ DENC   =    -47626.23009993
  -exchange      EXHF   =         0.00000000
  -V(xc)+E(xc)   XCENC  =       657.72864485
  PAW double counting   =    158685.01951251  -158543.49324609
  entropy T*S    EENTRO =        -0.00000000
  eigenvalues    EBANDS =     -2772.73973255
  atomic energy  EATOM  =      8369.52358910
  ---------------------------------------------------
  free energy    TOTEN  =      -523.31433162 eV

  energy without entropy =     -523.31433162  energy(sigma->0) =     -523.31433162


--------------------------------------------------------------------------------------------------------




--------------------------------------- Iteration      1(  25)  ---------------------------------------


    POTLOK:  cpu time    1.6966: real time    1.7071
    SETDIJ:  cpu time    0.2031: real time    0.2039
    TRIAL :  cpu time   20.0385: real time   20.1887
    CORREC:  cpu time    8.8472: real time    8.9090
    CHARGE:  cpu time    2.9838: real time    3.0114
    --------------------------------------------
      LOOP:  cpu time   33.8283: real time   34.1228

 eigenvalue-minimisations  :     0
 total energy-change (2. order) :-0.1312001E-06  ( 0.1820839E-06)
 number of electron     216.0000000 magnetization 
 augmentation part       -0.5315603 magnetization 

 Free energy of the ion-electron system (eV)
  ---------------------------------------------------
  alpha Z        PSCENC =        47.94900195
  Ewald energy   TEWEN  =     40658.92799854
  -Hartree energ DENC   =    -47626.23363077
  -exchange      EXHF   =         0.00000000
  -V(xc)+E(xc)   XCENC  =       657.72889379
  PAW double counting   =    158684.37297126  -158542.84673212
  entropy T*S    EENTRO =        -0.00000000
  eigenvalues    EBANDS =     -2772.73642350
  atomic energy  EATOM  =      8369.52358910
  ---------------------------------------------------
  free energy    TOTEN  =      -523.31433175 eV

  energy without entropy =     -523.31433175  energy(sigma->0) =     -523.31433175


--------------------------------------------------------------------------------------------------------




--------------------------------------- Iteration      1(  26)  ---------------------------------------


    POTLOK:  cpu time    1.6984: real time    1.7083
    SETDIJ:  cpu time    0.2029: real time    0.2036
    TRIAL :  cpu time   20.0379: real time   20.2159
    CORREC:  cpu time    8.8616: real time    8.9328
    EDDIAG:  cpu time    4.1674: real time    4.2056
    CHARGE:  cpu time    2.9796: real time    3.0043
    --------------------------------------------
      LOOP:  cpu time   38.0033: real time   38.3305

 eigenvalue-minimisations  :     0
 total energy-change (2. order) :-0.4435424E-07  ( 0.4945591E-08)
 number of electron     216.0000000 magnetization 
 augmentation part       -0.5315615 magnetization 

 Free energy of the ion-electron system (eV)
  ---------------------------------------------------
  alpha Z        PSCENC =        47.94900195
  Ewald energy   TEWEN  =     40658.92799854
  -Hartree energ DENC   =    -47626.23176704
  -exchange      EXHF   =         0.00000000
  -V(xc)+E(xc)   XCENC  =       657.72873981
  PAW double counting   =    158683.76640585  -158542.24012417
  entropy T*S    EENTRO =        -0.00000000
  eigenvalues    EBANDS =     -2772.73817584
  atomic energy  EATOM  =      8369.52358910
  ---------------------------------------------------
  free energy    TOTEN  =      -523.31433180 eV

  energy without entropy =     -523.31433180  energy(sigma->0) =     -523.31433180


--------------------------------------------------------------------------------------------------------


  average scaling for gradient   0.8437


 average (electrostatic) potential at core
  the test charge radii are     0.5770  0.5955
  (the norm of the test charge is              1.0000)
       1 -87.9769       2 -87.9765       3 -87.9767       4 -87.9771       5 -87.9760
       6 -87.9761       7 -87.9767       8 -87.9758       9 -87.9762      10 -87.9762
      11 -87.9761      12 -87.9760      13 -87.9761      14 -87.9761      15 -87.9759
      16 -87.9761      17 -87.9764      18 -87.9766      19 -87.9767      20 -87.9764
      21 -87.9758      22 -87.9759      23 -87.9773      24 -87.9772      25 -87.9760
      26 -87.9760      27 -87.9761      28 -87.9768      29 -87.9758      30 -87.9759
      31 -87.9768      32 -87.9765      33 -87.9761      34 -87.9761      35 -87.9761
      36 -87.9761      37 -87.9765      38 -87.9767      39 -87.9765      40 -87.9766
      41 -87.9765      42 -87.9766      43 -87.9765      44 -87.9768      45 -87.9760
      46 -87.9760      47 -87.9760      48 -87.9761      49 -87.9767      50 -87.9765
      51 -91.8732      52-124.2564      53-124.2556
 
 
 
 E-fermi :  -4.3665     XC(G=0):  -1.8861     alpha+bet : -1.6890

 Fermi energy:        -4.3664874215

 k-point     1 :       0.0000    0.0000    0.0000
  band No.  band energies     occupation 
      1     -29.1531      2.00000
      2     -28.0445      2.00000
      3     -23.6830      2.00000
      4     -22.6909      2.00000
      5     -22.6894      2.00000
      6     -22.6892      2.00000
      7     -22.6890      2.00000
      8     -22.6887      2.00000
      9     -22.6881      2.00000
     10     -20.7436      2.00000
     11     -20.7436      2.00000
     12     -20.7433      2.00000
     13     -20.7426      2.00000
     14     -20.7420      2.00000
     15     -20.7418      2.00000
     16     -19.8008      2.00000
     17     -19.8006      2.00000
     18     -19.8002      2.00000
     19     -19.8000      2.00000
     20     -19.7992      2.00000
     21     -19.7989      2.00000
     22     -17.5602      2.00000
     23     -17.5598      2.00000
     24     -17.5592      2.00000
     25     -17.5590      2.00000
     26     -17.5584      2.00000
     27     -17.5582      2.00000
     28     -16.3919      2.00000
     29     -16.3919      2.00000
     30     -16.3908      2.00000
     31     -16.3906      2.00000
     32     -16.3902      2.00000
     33     -16.3901      2.00000
     34     -14.9850      2.00000
     35     -14.9849      2.00000
     36     -14.9842      2.00000
     37     -14.9841      2.00000
     38     -14.9840      2.00000
     39     -14.9836      2.00000
     40     -13.2136      2.00000
     41     -12.4931      2.00000
     42     -12.4929      2.00000
     43     -12.4924      2.00000
     44     -12.4923      2.00000
     45     -12.4911      2.00000
     46     -12.4909      2.00000
     47     -12.2856      2.00000
     48     -12.2854      2.00000
     49     -12.2847      2.00000
     50     -12.2846      2.00000
     51     -12.2845      2.00000
     52     -12.2844      2.00000
     53     -11.8683      2.00000
     54     -11.6733      2.00000
     55     -11.6732      2.00000
     56     -10.9765      2.00000
     57     -10.8231      2.00000
     58     -10.8229      2.00000
     59     -10.8212      2.00000
     60     -10.8209      2.00000
     61     -10.8207      2.00000
     62     -10.8206      2.00000
     63      -9.8000      2.00000
     64      -9.7988      2.00000
     65      -9.7986      2.00000
     66      -9.7984      2.00000
     67      -9.7983      2.00000
     68      -9.7978      2.00000
     69      -9.4915      2.00000
     70      -9.4902      2.00000
     71      -9.4899      2.00000
     72      -9.4898      2.00000
     73      -9.4895      2.00000
     74      -9.4893      2.00000
     75      -9.4849      2.00000
     76      -9.4847      2.00000
     77      -9.4838      2.00000
     78      -9.4835      2.00000
     79      -9.4833      2.00000
     80      -9.4827      2.00000
     81      -8.0357      2.00000
     82      -8.0356      2.00000
     83      -7.7464      2.00000
     84      -7.7446      2.00000
     85      -7.7444      2.00000
     86      -7.7441      2.00000
     87      -7.7432      2.00000
     88      -7.7431      2.00000
     89      -7.5518      2.00000
     90      -7.5515      2.00000
     91      -7.5514      2.00000
     92      -7.5509      2.00000
     93      -7.5505      2.00000
     94      -7.5502      2.00000
     95      -6.6063      2.00000
     96      -6.6061      2.00000
     97      -6.6059      2.00000
     98      -6.6059      2.00000
     99      -6.6051      2.00000
    100      -6.6049      2.00000
    101      -6.1743      2.00000
    102      -6.1720      2.00000
    103      -4.5068      2.00000
    104      -4.5063      2.00000
    105      -4.5059      2.00000
    106      -4.5057      2.00000
    107      -4.5052      2.00000
    108      -4.5052      2.00000
    109      -1.5129      0.00000
    110      -1.5127      0.00000
    111      -1.5124      0.00000
    112      -1.5123      0.00000
    113      -1.5116      0.00000
    114      -1.5112      0.00000
    115       0.4790      0.00000
    116       0.4792      0.00000
    117       0.4796      0.00000
    118       0.4796      0.00000
    119       0.4801      0.00000
    120       0.4811      0.00000
    121       0.7349      0.00000
    122       0.9548      0.00000
    123       1.1857      0.00000
    124       1.1858      0.00000
    125       1.4296      0.00000
    126       1.8120      0.00000
    127       2.0427      0.00000
    128       2.0459      0.00000
    129       2.0468      0.00000
    130       2.0490      0.00000
    131       2.0504      0.00000
    132       2.0509      0.00000
    133       2.2688      0.00000
    134       2.2998      0.00000
    135       2.3462      0.00000
    136       2.3464      0.00000
    137       2.3467      0.00000
    138       2.3470      0.00000
    139       2.3473      0.00000
    140       2.3477      0.00000
    141       2.5980      0.00000
    142       2.7130      0.00000
    143       2.7193      0.00000
    144       2.7279      0.00000
    145       2.7343      0.00000
    146       2.7353      0.00000
    147       2.7404      0.00000
    148       2.7763      0.00000
    149       2.7965      0.00000
    150       2.8133      0.00000
    151       2.8344      0.00000
    152       3.1536      0.00000
    153       3.4199      0.00000
    154       3.6283      0.00000
    155       3.8542      0.00000
    156       3.8956      0.00000
    157       3.9334      0.00000
    158       4.0324      0.00000
    159       4.0905      0.00000
    160       4.2206      0.00000
    161       4.4511      0.00000
    162       4.5457      0.00000
    163       4.8288      0.00000
    164       4.8605      0.00000
    165       4.8732      0.00000
    166       4.8766      0.00000
    167       4.8779      0.00000
    168       4.8811      0.00000


--------------------------------------------------------------------------------------------------------


 soft charge-density along one line, spin component           1
         0         1         2         3         4         5         6         7         8         9
 total charge-density along one line
 
 pseudopotential strength for first ion, spin component:           1
 12.639  21.266   0.000   0.000   0.000   0.000   0.000   0.000
 21.266  35.783   0.000   0.000   0.000   0.000   0.000   0.000
  0.000   0.000  -3.235  -0.000   0.000  -5.794   0.000   0.000
  0.000   0.000  -0.000  -3.235  -0.000   0.000  -5.793  -0.000
  0.000   0.000   0.000  -0.000  -3.235   0.000  -0.000  -5.794
  0.000   0.000  -5.794   0.000   0.000 -10.354   0.000   0.000
  0.000   0.000   0.000  -5.793  -0.000   0.000 -10.352  -0.000
  0.000   0.000   0.000  -0.000  -5.794   0.000  -0.000 -10.354
 total augmentation occupancy for first ion, spin component:           1
 10.264  -3.894  -0.000  -0.002  -0.000   0.000   0.001   0.000
 -3.894   1.507   0.000   0.001   0.000  -0.000  -0.000  -0.000
 -0.000   0.000   8.468  -0.009   0.000  -3.024   0.003  -0.000
 -0.002   0.001  -0.009   4.016  -0.000   0.003  -1.207   0.000
 -0.000   0.000   0.000  -0.000   8.468  -0.000   0.000  -3.024
  0.000  -0.000  -3.024   0.003  -0.000   1.093  -0.001   0.000
  0.001  -0.000   0.003  -1.207   0.000  -0.001   0.368  -0.000
  0.000  -0.000  -0.000   0.000  -3.024   0.000  -0.000   1.093


------------------------ aborting loop because EDIFF is reached ----------------------------------------


    FORLOC:  cpu time    0.1372: real time    0.1382
    FORNL :  cpu time    3.8114: real time    3.8485
    FORCOR:  cpu time    1.7007: real time    1.7127
    OFIELD:  cpu time    0.0032: real time    0.0032
 WARNING: Using user supplied parameters
     VDW_A1 = 0.495
     VDW_A2 = 5.731
     VDW_S8 = 0.79
     because the xc functional is not supported. Required parameters not
     defined in the INCAR file will be replaced with PBE defaults ones.


 ---------------------------------------------------------------------------------------------

         DFTD3 V3.0 Rev 1        
 IVDW         = 12
 DF unknown   
 parameters
 VDW_S6       =    1.0000
 VDW_S8       =    0.7898
 VDW_A1       =    0.4948
 VDW_A2       =    5.7308
 k1-k3        =   16.0000    1.3333   -4.0000
 VDW_RADIUS   =   50.2022 A
 VDW_CNRADIUS =   21.1671 A
 Edisp (eV)   -1.68934

 E6    (eV) :    -1.3038
 E8    (eV) :    -0.3856
 % E8        : 22.82
    FORVDW:  cpu time    0.1397: real time    0.1411

 VOLUME and BASIS-vectors are now :
 -----------------------------------------------------------------------------
  energy-cutoff  :     1000.00
  volume of cell :     3288.85
      direct lattice vectors                 reciprocal lattice vectors
    12.325000000  0.000000000  0.000000000     0.081135903  0.046843835  0.000000000
    -6.162500000 10.673763102  0.000000000     0.000000000  0.093687670  0.000000000
     0.000000000  0.000000000 25.000000000     0.000000000  0.000000000  0.040000000

  length of vectors
    12.325000000 12.325000000 25.000000000     0.093687670  0.093687670  0.040000000


 FORCES acting on ions:
    Electron-Ion                     Ewald-Force                    Non-Local-Force
 -----------------------------------------------------------------------------------------------
   0.339E+00 0.313E+00 0.101E+02   -.339E+00 -.314E+00 -.101E+02   0.412E-02 -.691E-03 0.586E-02
   0.461E+00 0.299E+00 0.109E+02   -.464E+00 -.296E+00 -.109E+02   0.224E-02 -.310E-02 -.616E-02
   0.181E+00 0.498E+00 0.107E+02   -.183E+00 -.498E+00 -.107E+02   -.251E-03 0.109E-01 -.256E-02
   0.229E+00 0.344E+00 0.126E+02   -.226E+00 -.343E+00 -.126E+02   0.113E-01 0.351E-03 -.181E-01
   0.412E+00 0.122E+00 0.106E+02   -.410E+00 -.123E+00 -.106E+02   -.102E-02 -.503E-02 0.422E-02
   0.422E+00 -.993E-01 0.107E+02   -.424E+00 0.101E+00 -.107E+02   -.660E-02 0.348E-02 -.170E-02
   0.419E+00 0.246E+00 0.128E+02   -.420E+00 -.247E+00 -.128E+02   0.111E-01 -.190E-01 -.775E-02
   0.464E+00 -.114E+00 0.140E+02   -.468E+00 0.116E+00 -.139E+02   -.798E-02 -.504E-02 -.621E-02
   -.201E+00 0.544E+00 0.111E+02   0.204E+00 -.547E+00 -.111E+02   0.537E-03 -.138E-01 -.538E-02
   -.212E+00 0.208E+00 0.130E+02   0.213E+00 -.209E+00 -.129E+02   -.251E-01 0.142E-01 0.159E-02
   0.109E+00 -.104E+00 0.100E+02   -.106E+00 0.104E+00 -.101E+02   0.410E-02 -.263E-02 0.134E-02
   0.122E+00 -.952E-01 0.993E+01   -.123E+00 0.956E-01 -.993E+01   -.630E-02 0.317E-02 0.737E-02
   0.557E-01 -.333E+00 0.147E+02   -.554E-01 0.334E+00 -.146E+02   0.258E-01 -.706E-02 -.312E-02
   0.442E-01 -.587E+00 0.124E+02   -.477E-01 0.589E+00 -.123E+02   0.303E-02 0.747E-02 -.168E-01
   -.400E+00 0.235E+00 0.102E+02   0.402E+00 -.237E+00 -.102E+02   0.757E-02 -.429E-02 0.885E-02
   -.478E+00 0.107E+00 0.102E+02   0.477E+00 -.107E+00 -.102E+02   -.833E-03 0.471E-02 -.406E-02
   -.617E-01 -.310E-01 0.952E+01   0.641E-01 0.293E-01 -.952E+01   0.494E-03 0.277E-03 0.249E-02
   0.373E-01 0.231E+00 0.953E+01   -.372E-01 -.231E+00 -.954E+01   -.258E-02 0.131E-02 0.962E-02
   -.116E+00 -.533E+00 0.111E+02   0.116E+00 0.534E+00 -.111E+02   0.546E-02 -.993E-03 -.123E-03
   -.722E-01 -.337E+00 0.102E+02   0.695E-01 0.337E+00 -.102E+02   -.462E-03 -.380E-03 -.443E-03
   0.532E+00 -.208E+00 0.118E+02   -.531E+00 0.208E+00 -.118E+02   -.251E-02 -.165E-02 -.161E-01
   0.397E+00 -.312E+00 0.112E+02   -.399E+00 0.313E+00 -.112E+02   -.710E-02 0.551E-02 -.832E-03
   -.786E-01 0.123E+00 0.143E+02   0.744E-01 -.121E+00 -.143E+02   -.102E-01 0.101E-01 -.153E-02
   -.141E+00 -.198E+00 0.143E+02   0.143E+00 0.196E+00 -.143E+02   0.120E-01 -.146E-01 -.136E-01
   0.205E+00 -.745E-01 0.101E+02   -.203E+00 0.731E-01 -.101E+02   0.382E-02 -.265E-02 -.177E-02
   0.759E-01 0.167E+00 0.994E+01   -.765E-01 -.166E+00 -.995E+01   -.467E-02 0.304E-02 0.697E-02
   -.562E+00 0.738E-02 0.115E+02   0.565E+00 -.939E-02 -.115E+02   0.128E-01 0.735E-02 -.301E-02
   -.481E+00 -.225E+00 0.109E+02   0.482E+00 0.225E+00 -.110E+02   -.774E-02 0.890E-02 -.255E-03
   0.191E+00 -.441E+00 0.112E+02   -.190E+00 0.441E+00 -.112E+02   0.357E-02 0.272E-02 -.587E-02
   0.251E-01 -.189E+00 0.103E+02   -.271E-01 0.191E+00 -.103E+02   -.500E-02 0.256E-02 -.888E-03
   -.348E+00 -.323E+00 0.118E+02   0.345E+00 0.324E+00 -.118E+02   -.115E-01 -.761E-02 -.156E-01
   -.265E+00 -.521E+00 0.108E+02   0.267E+00 0.520E+00 -.108E+02   0.719E-03 -.390E-03 0.772E-03
   0.864E-02 0.130E+00 0.980E+01   -.809E-02 -.131E+00 -.981E+01   0.456E-02 -.451E-02 0.827E-02
   0.632E-01 0.958E-01 0.990E+01   -.660E-01 -.949E-01 -.990E+01   -.247E-02 0.461E-02 0.487E-04
   -.253E+00 0.508E-01 0.997E+01   0.256E+00 -.517E-01 -.998E+01   0.443E-02 -.257E-02 0.739E-02
   -.216E+00 -.112E+00 0.992E+01   0.215E+00 0.113E+00 -.992E+01   -.318E-02 0.205E-02 0.489E-02
   -.397E+00 -.237E+00 0.999E+01   0.399E+00 0.235E+00 -.999E+01   0.494E-04 0.955E-03 0.350E-02
   -.268E+00 -.223E+00 0.974E+01   0.268E+00 0.224E+00 -.975E+01   -.324E-02 0.128E-02 0.914E-02
   -.255E+00 -.314E+00 0.987E+01   0.254E+00 0.315E+00 -.988E+01   -.252E-02 0.662E-03 0.433E-02
   -.351E-01 -.982E-01 0.965E+01   0.363E-01 0.975E-01 -.966E+01   0.182E-02 0.906E-03 0.714E-02
   0.102E+00 0.240E+00 0.956E+01   -.103E+00 -.240E+00 -.957E+01   -.380E-02 0.140E-02 0.675E-02
   0.302E+00 0.427E+00 0.995E+01   -.300E+00 -.428E+00 -.996E+01   -.111E-02 -.125E-02 0.688E-02
   0.454E-01 0.387E+00 0.969E+01   -.427E-01 -.388E+00 -.970E+01   0.384E-03 0.467E-04 0.270E-02
   0.193E-01 0.546E+00 0.104E+02   -.191E-01 -.547E+00 -.104E+02   -.757E-02 0.105E-02 0.465E-02
   -.808E-01 0.142E+00 0.101E+02   0.825E-01 -.143E+00 -.101E+02   0.420E-02 -.328E-02 0.300E-02
   -.252E+00 0.357E+00 0.103E+02   0.251E+00 -.357E+00 -.103E+02   -.535E-02 -.317E-03 -.233E-03
   -.101E+00 -.178E+00 0.102E+02   0.101E+00 0.177E+00 -.102E+02   0.559E-02 -.105E-02 0.721E-02
   -.164E+00 0.521E-01 0.978E+01   0.162E+00 -.514E-01 -.978E+01   -.374E-02 0.335E-02 -.180E-02
   0.327E-02 -.100E+00 0.977E+01   -.315E-02 0.100E+00 -.977E+01   0.384E-02 -.285E-02 0.592E-02
   0.165E+00 0.124E+00 0.972E+01   -.167E+00 -.122E+00 -.973E+01   -.838E-03 0.190E-02 0.355E-02
   -.496E-02 0.305E-01 -.134E+03   0.529E-03 -.264E-01 0.134E+03   -.282E-02 0.181E-02 -.950E-03
   -.228E+03 0.155E+03 -.214E+03   0.279E+03 -.190E+03 0.217E+03   -.523E+02 0.356E+02 -.351E+01
   0.228E+03 -.155E+03 -.192E+03   -.279E+03 0.190E+03 0.189E+03   0.523E+02 -.356E+02 0.316E+01
 -----------------------------------------------------------------------------------------------
   -.809E-02 0.146E-01 0.358E+00   0.114E-12 -.114E-12 0.341E-12   0.782E-02 -.150E-01 -.354E+00
 
 
 POSITION                                       TOTAL-FORCE (eV/Angst)
 -----------------------------------------------------------------------------------
     11.98348      0.00342      0.01417         0.003547     -0.001929     -0.001433
     -0.34154      1.42665      0.01100        -0.000679     -0.000129     -0.003733
      2.12355      0.00315      0.01249        -0.002270      0.011138     -0.007284
      2.12326      1.42653      0.00641         0.014218      0.001040     -0.008619
     10.75099      2.13819      0.01213         0.001011     -0.005950     -0.000144
     -1.57382      3.56123      0.01110        -0.009473      0.004481     -0.001516
      0.89078      2.13854      0.00548         0.010064     -0.019820      0.002935
      0.89099      3.56147      0.00181        -0.011818     -0.002932      0.013597
      4.58864      0.00346      0.01135         0.003430     -0.016108     -0.003767
      4.58894      1.42623      0.00646        -0.024154      0.013726      0.015329
      9.51854      4.27281      0.01369         0.007037     -0.002908      0.000084
     -2.80632      5.69591      0.01434        -0.007152      0.003436      0.000627
      2.12300      4.27302      0.00000         0.025669     -0.005258      0.022989
      2.12335      5.69594      0.00581        -0.000395      0.009062     -0.002287
      7.05344      0.00333      0.01399         0.009471     -0.005706     -0.000592
      7.05353      1.42635      0.01368        -0.001882      0.005208     -0.004214
      8.28610      6.40752      0.01601         0.003034     -0.001227     -0.001124
     -4.03885      7.83070      0.01636        -0.002602      0.001093     -0.000469
      3.35586      6.40753      0.01007         0.005706      0.000626     -0.001287
      3.35599      7.83072      0.01320        -0.002937      0.000119     -0.000831
     -0.34146      4.27290      0.00723        -0.001517     -0.001472     -0.004361
     -0.34138      5.69591      0.00946        -0.009494      0.006586     -0.001063
      3.35624      2.13791      0.00222        -0.014763      0.012367      0.017839
      3.35573      3.56155      0.00139         0.014503     -0.016873      0.009973
     -1.57395      6.40758      0.01311         0.005604     -0.003920     -0.000665
     -1.57385      7.83068      0.01438        -0.005324      0.004099     -0.000217
      5.82093      2.13784      0.01033         0.015930      0.005159     -0.003094
      5.82114      3.56097      0.01156        -0.006558      0.008931     -0.004206
      0.89092      6.40755      0.00907         0.004873      0.002237     -0.002206
      0.89106      7.83068      0.01235        -0.006911      0.004287      0.000333
      4.58871      4.27293      0.00850        -0.013903     -0.006235     -0.011504
      4.58852      5.69606      0.01149         0.002576     -0.001657     -0.004452
      9.51845      0.00337      0.01490         0.005185     -0.005027     -0.000079
      9.51855      1.42644      0.01438        -0.005410      0.005485     -0.000520
      8.28593      2.13803      0.01453         0.007181     -0.003509      0.000367
      8.28613      3.56115      0.01464        -0.004780      0.002215     -0.000227
      7.05356      4.27269      0.01457         0.002580     -0.000948     -0.001050
      7.05362      5.69588      0.01553        -0.002705      0.001584     -0.000392
      5.82112      6.40755      0.01489        -0.003375      0.001998     -0.000400
      5.82102      7.83073      0.01579         0.003108      0.000211     -0.000615
      7.05363      8.54227      0.01631        -0.004900      0.001599      0.000751
     -5.27149      9.96549      0.01495         0.000515     -0.002051     -0.002802
     -2.80638      8.54234      0.01558         0.003136     -0.001350     -0.001676
     -2.80627      9.96553      0.01362        -0.007366      0.000178     -0.004453
     -0.34149      8.54239      0.01378         0.005869     -0.005326      0.000112
     -0.34138      9.96550      0.01354        -0.006135      0.000385     -0.001501
      2.12343      8.54232      0.01336         0.006126     -0.001830      0.000717
      2.12354      9.96544      0.01469        -0.005133      0.004203     -0.002170
      4.58846      8.54235      0.01505         0.003920     -0.002883      0.000808
      4.58853      9.96550      0.01517        -0.002573      0.003557     -0.000167
      3.04930      2.68154      9.43874        -0.007245      0.005892      0.039447
      4.02070      2.02068      9.50316        -1.425131      0.969230     -0.111552
      2.07767      3.34267      9.37929         1.432292     -0.975087      0.070764
 -----------------------------------------------------------------------------------
    total drift:                               -0.000275     -0.000326      0.003994


--------------------------------------------------------------------------------------------------------



  FREE ENERGIE OF THE ION-ELECTRON SYSTEM (eV)
  ---------------------------------------------------
  free  energy   TOTEN  =      -525.00367161 eV

  energy  without entropy=     -525.00367161  energy(sigma->0) =     -525.00367161
 


--------------------------------------------------------------------------------------------------------


    POTLOK:  cpu time    1.9001: real time    1.9128


--------------------------------------------------------------------------------------------------------


 writing wavefunctions
     LOOP+:  cpu time  930.5510: real time  938.3690
    4ORBIT:  cpu time    0.0000: real time    0.0000

 total amount of memory used by VASP MPI-rank0   698619. kBytes
=======================================================================

   base      :      30000. kBytes
   nonl-proj :     230539. kBytes
   fftplans  :      40716. kBytes
   grid      :     363125. kBytes
   one-center:        162. kBytes
   wavefun   :      34077. kBytes
 
  
  
 General timing and accounting informations for this job:
 ========================================================
  
                  Total CPU time used (sec):      975.858
                            User time (sec):      947.052
                          System time (sec):       28.806
                         Elapsed time (sec):      985.106
  
                   Maximum memory used (kb):     1240640.
                   Average memory used (kb):          N/A
  
                          Minor page faults:       149943
                          Major page faults:           82
                 Voluntary context switches:         3793
