 vasp.6.2.1 16May21 (build Nov 06 2021 14:46:37) complex                        
  
 executed on             LinuxIFC date 2025.04.16  17:19:50
 running on  112 total cores
 distrk:  each k-point on   56 cores,    2 groups
 distr:  one band on NCORE=   1 cores,   56 groups


--------------------------------------------------------------------------------------------------------


 INCAR:
   ALGO = Conjugate
   KPAR = 2
   NCORE = 32
   ISMEAR = 0
   SIGMA = 0.01
   PREC = Accurate
   EDIFF = 1E-7
   ENCUT = 1000
   ISIF = 0
   METAGGA = R2SCAN
   LASPH = .TRUE.
   IVDW = 12
   VDW_S8 = 0.7898
   VDW_A1 = 0.4948
   VDW_A2 = 5.7308
   SYMPREC = 1E-7

 POTCAR:    PAW_PBE C_h 06Feb2004                 
 POTCAR:    PAW_PBE O_h 06Feb2004                 
 -----------------------------------------------------------------------------
|                                                                             |
|           W    W    AA    RRRRR   N    N  II  N    N   GGGG   !!!           |
|           W    W   A  A   R    R  NN   N  II  NN   N  G    G  !!!           |
|           W    W  A    A  R    R  N N  N  II  N N  N  G       !!!           |
|           W WW W  AAAAAA  RRRRR   N  N N  II  N  N N  G  GGG   !            |
|           WW  WW  A    A  R   R   N   NN  II  N   NN  G    G                |
|           W    W  A    A  R    R  N    N  II  N    N   GGGG   !!!           |
|                                                                             |
|     The value NCORE = 32 specified in the INCAR file was overwritten,       |
|     because it was not compatible with the 56 processes available:          |
|     NCORE = 1                                                               |
|     was used instead, please check that this makes sense for your           |
|     machine.                                                                |
|                                                                             |
 -----------------------------------------------------------------------------

 -----------------------------------------------------------------------------
|                                                                             |
|           W    W    AA    RRRRR   N    N  II  N    N   GGGG   !!!           |
|           W    W   A  A   R    R  NN   N  II  NN   N  G    G  !!!           |
|           W    W  A    A  R    R  N N  N  II  N N  N  G       !!!           |
|           W WW W  AAAAAA  RRRRR   N  N N  II  N  N N  G  GGG   !            |
|           WW  WW  A    A  R   R   N   NN  II  N   NN  G    G                |
|           W    W  A    A  R    R  N    N  II  N    N   GGGG   !!!           |
|                                                                             |
|     For optimal performance we recommend to set                             |
|       NCORE = 2 up to number-of-cores-per-socket                            |
|     NCORE specifies how many cores store one orbital (NPAR=cpu/NCORE).      |
|     This setting can greatly improve the performance of VASP for DFT.       |
|     The default, NCORE=1 might be grossly inefficient on modern             |
|     multi-core architectures or massively parallel machines. Do your        |
|     own testing! More info at https://www.vasp.at/wiki/index.php/NCORE      |
|     Unfortunately you need to use the default for GW and RPA                |
|     calculations (for HF NCORE is supported but not extensively tested      |
|     yet).                                                                   |
|                                                                             |
 -----------------------------------------------------------------------------

 POTCAR:    PAW_PBE C_h 06Feb2004                 
   VRHFIN =C: s2p2                                                                                  
   LEXCH  = PE                                                                                      
   EATOM  =   147.1560 eV,   10.8157 Ry                                                             
                                                                                                    
   TITEL  = PAW_PBE C_h 06Feb2004                                                                   
   LULTRA =        F    use ultrasoft PP ?                                                          
   IUNSCR =        1    unscreen: 0-lin 1-nonlin 2-no                                               
   RPACOR =    0.800    partial core radius                                                         
   POMASS =   12.011; ZVAL   =    4.000    mass and valenz                                          
   RCORE  =    1.100    outmost cutoff radius                                                       
   RWIGS  =    1.630; RWIGS  =    0.863    wigner-seitz radius (au A)                               
   ENMAX  =  700.000; ENMIN  =  500.000 eV                                                          
   ICORE  =        2    local potential                                                             
   LCOR   =        T    correct aug charges                                                         
   LPAW   =        T    paw PP                                                                      
   EAUG   =  946.768                                                                                
   DEXC   =    0.000                                                                                
   RMAX   =    1.128    core radius for proj-oper                                                   
   RAUG   =    1.300    factor for augmentation sphere                                              
   RDEP   =    1.162    radius for radial grids                                                     
   RDEPT  =    1.088    core radius for aug-charge                                                  
                                                                                                    
   Atomic configuration                                                                             
    4 entries                                                                                       
     n  l   j            E        occ.                                                              
     1  0  0.50      -273.3789   2.0000                                                             
     2  0  0.50       -13.7508   2.0000                                                             
     2  1  0.50        -5.2854   2.0000                                                             
     3  2  1.50        -5.4423   0.0000                                                             
   Description                                                                                      
     l       E           TYP  RCUT    TYP  RCUT                                                     
     0    -13.7508458     23  1.100                                                                 
     0     -8.2022199     23  1.100                                                                 
     1     -5.2854383     23  1.100                                                                 
     1      1.1560700     23  1.100                                                                 
     2     -5.4423304      7  1.100                                                                 
  local pseudopotential read in
  partial core-charges read in
  partial kinetic energy density read in
  atomic valenz-charges read in
  non local Contribution for L=           0  read in
    real space projection operators read in
  non local Contribution for L=           0  read in
    real space projection operators read in
  non local Contribution for L=           1  read in
    real space projection operators read in
  non local Contribution for L=           1  read in
    real space projection operators read in
    PAW grid and wavefunctions read in
 
   number of l-projection  operators is LMAX  =           4
   number of lm-projection operators is LMMAX =           8
 
 POTCAR:    PAW_PBE O_h 06Feb2004                 
   VRHFIN =O: s2p4                                                                                  
   LEXCH  = PE                                                                                      
   EATOM  =   432.3788 eV,   31.7789 Ry                                                             
                                                                                                    
   TITEL  = PAW_PBE O_h 06Feb2004                                                                   
   LULTRA =        F    use ultrasoft PP ?                                                          
   IUNSCR =        1    unscreen: 0-lin 1-nonlin 2-no                                               
   RPACOR =    0.800    partial core radius                                                         
   POMASS =   16.000; ZVAL   =    6.000    mass and valenz                                          
   RCORE  =    1.100    outmost cutoff radius                                                       
   RWIGS  =    1.400; RWIGS  =    0.741    wigner-seitz radius (au A)                               
   ENMAX  =  700.000; ENMIN  =  500.000 eV                                                          
   ICORE  =        2    local potential                                                             
   LCOR   =        T    correct aug charges                                                         
   LPAW   =        T    paw PP                                                                      
   EAUG   =  888.804                                                                                
   DEXC   =    0.000                                                                                
   RMAX   =    1.128    core radius for proj-oper                                                   
   RAUG   =    1.300    factor for augmentation sphere                                              
   RDEP   =    1.125    radius for radial grids                                                     
   RDEPT  =    1.088    core radius for aug-charge                                                  
                                                                                                    
   Atomic configuration                                                                             
    4 entries                                                                                       
     n  l   j            E        occ.                                                              
     1  0  0.50      -514.6923   2.0000                                                             
     2  0  0.50       -23.9615   2.0000                                                             
     2  1  0.50        -9.0305   4.0000                                                             
     3  2  1.50        -9.5241   0.0000                                                             
   Description                                                                                      
     l       E           TYP  RCUT    TYP  RCUT                                                     
     0    -23.9615319     23  1.100                                                                 
     0    -25.3221145     23  1.100                                                                 
     1     -9.0304911     23  1.100                                                                 
     1     -5.4802209     23  1.100                                                                 
     2     -9.5240782      7  1.100                                                                 
  local pseudopotential read in
  partial core-charges read in
  partial kinetic energy density read in
  atomic valenz-charges read in
  non local Contribution for L=           0  read in
    real space projection operators read in
  non local Contribution for L=           0  read in
    real space projection operators read in
  non local Contribution for L=           1  read in
    real space projection operators read in
  non local Contribution for L=           1  read in
    real space projection operators read in
    PAW grid and wavefunctions read in
 
   number of l-projection  operators is LMAX  =           4
   number of lm-projection operators is LMMAX =           8
 
 -----------------------------------------------------------------------------
|                                                                             |
|               ----> ADVICE to this user running VASP <----                  |
|                                                                             |
|     You have a (more or less) 'large supercell' and for larger cells it     |
|     might be more efficient to use real-space projection operators.         |
|     Therefore, try LREAL= Auto in the INCAR file.                           |
|     Mind: For very accurate calculation, you might also keep the            |
|     reciprocal projection scheme (i.e. LREAL=.FALSE.).                      |
|                                                                             |
 -----------------------------------------------------------------------------

  PAW_PBE C_h 06Feb2004                 :
 energy of atom  1       EATOM= -147.1560
 kinetic energy error for atom=    0.0031 (will be added to EATOM!!)
  PAW_PBE O_h 06Feb2004                 :
 energy of atom  2       EATOM= -432.3788
 kinetic energy error for atom=    0.0171 (will be added to EATOM!!)
 
 
 POSCAR:  C  O
  positions in cartesian coordinates
  No initial velocities read in

 METAGGA = R2SCA    LMAXTAU =  6    LMIXTAU =  F

 exchange correlation table for  LEXCH =        8
   RHO(1)=    0.500       N(1)  =     2000
   RHO(2)=  100.500       N(2)  =     4000
 


--------------------------------------------------------------------------------------------------------


 ion  position               nearest neighbor table
   1  0.972  0.000  0.001-  50 1.42   2 1.42  42 1.42
   2  0.039  0.134  0.000-   5 1.42   7 1.42   1 1.42
   3  0.172  0.000  0.000-  42 1.42  44 1.42   4 1.42
   4  0.239  0.134  0.000-   7 1.42   3 1.42  23 1.42
   5  0.972  0.200  0.000-   6 1.42   2 1.42  34 1.42
   6  0.039  0.334  0.000-   5 1.42  21 1.42  11 1.42
   7  0.172  0.200  0.000-   8 1.42   2 1.42   4 1.42
   8  0.239  0.334  0.000-  13 1.42   7 1.42  21 1.42
   9  0.372  0.000  0.000-  10 1.42  44 1.42  46 1.42
  10  0.439  0.134  0.000-  27 1.42   9 1.42  23 1.42
  11  0.972  0.400  0.001-  12 1.42  36 1.42   6 1.42
  12  0.039  0.534  0.001-  25 1.42  11 1.42  17 1.42
  13  0.372  0.400  0.000-   8 1.42  14 1.42  24 1.42
  14  0.439  0.534  0.000-  13 1.42  29 1.42  19 1.42
  15  0.572  0.000  0.001-  46 1.42  16 1.42  48 1.42
  16  0.639  0.134  0.001-  15 1.42  35 1.42  27 1.42
  17  0.972  0.600  0.001-  38 1.42  18 1.42  12 1.42
  18  0.039  0.734  0.001-  43 1.42  41 1.42  17 1.42
  19  0.572  0.600  0.000-  14 1.42  20 1.42  32 1.42
  20  0.639  0.734  0.001-  49 1.42  19 1.42  47 1.42
  21  0.172  0.400  0.000-  22 1.42   8 1.42   6 1.42
  22  0.239  0.534  0.000-  21 1.42  29 1.42  25 1.42
  23  0.372  0.200  0.000-  10 1.42   4 1.42  24 1.42
  24  0.439  0.334  0.000-  13 1.42  31 1.42  23 1.42
  25  0.172  0.600  0.001-  26 1.42  12 1.42  22 1.42
  26  0.239  0.734  0.001-  25 1.42  45 1.42  43 1.42
  27  0.572  0.200  0.000-  10 1.42  28 1.42  16 1.42
  28  0.639  0.334  0.000-  27 1.42  37 1.42  31 1.42
  29  0.372  0.600  0.000-  22 1.42  14 1.42  30 1.42
  30  0.439  0.734  0.000-  47 1.42  29 1.42  45 1.42
  31  0.572  0.400  0.000-  32 1.42  28 1.42  24 1.42
  32  0.639  0.534  0.000-  31 1.42  39 1.42  19 1.42
  33  0.772  0.000  0.001-  34 1.42  48 1.42  50 1.42
  34  0.839  0.134  0.001-  33 1.42   5 1.42  35 1.42
  35  0.772  0.200  0.001-  36 1.42  16 1.42  34 1.42
  36  0.839  0.334  0.001-  35 1.42  11 1.42  37 1.42
  37  0.772  0.400  0.001-  28 1.42  38 1.42  36 1.42
  38  0.839  0.534  0.001-  17 1.42  37 1.42  39 1.42
  39  0.772  0.600  0.001-  40 1.42  38 1.42  32 1.42
  40  0.839  0.734  0.001-  39 1.42  49 1.42  41 1.42
  41  0.972  0.800  0.001-  18 1.42  42 1.42  40 1.42
  42  0.039  0.934  0.001-   3 1.42  41 1.42   1 1.42
  43  0.172  0.800  0.001-  18 1.42  44 1.42  26 1.42
  44  0.239  0.934  0.001-   9 1.42  43 1.42   3 1.42
  45  0.372  0.800  0.001-  26 1.42  46 1.42  30 1.42
  46  0.439  0.934  0.001-  15 1.42  45 1.42   9 1.42
  47  0.572  0.800  0.001-  30 1.42  48 1.42  20 1.42
  48  0.639  0.934  0.001-  47 1.42  33 1.42  15 1.42
  49  0.772  0.800  0.001-  50 1.42  20 1.42  40 1.42
  50  0.839  0.934  0.001-  49 1.42   1 1.42  33 1.42
  51  0.373  0.251  0.112-  52 1.18  53 1.18
  52  0.421  0.189  0.115-  51 1.18
  53  0.325  0.313  0.110-  51 1.18
 
  LATTYP: Found a hexagonal cell.
 ALAT       =    12.3250000000
 C/A-ratio  =     2.0283975659
  
  Lattice vectors:
  
 A1 = (  12.3250000000,   0.0000000000,   0.0000000000)
 A2 = (  -6.1625000000,  10.6737631016,   0.0000000000)
 A3 = (   0.0000000000,   0.0000000000,  25.0000000000)


Analysis of symmetry for initial positions (statically):
=====================================================================
 Subroutine PRICEL returns:
 Original cell was already a primitive cell.
 

 Routine SETGRP: Setting up the symmetry group for a 
 hexagonal supercell.


 Subroutine GETGRP returns: Found  1 space group operations
 (whereof  1 operations were pure point group operations)
 out of a pool of 24 trial point group operations.


The static configuration has the point symmetry C_1 .


Analysis of symmetry for dynamics (positions and initial velocities):
=====================================================================
 Subroutine PRICEL returns:
 Original cell was already a primitive cell.
 

 Routine SETGRP: Setting up the symmetry group for a 
 hexagonal supercell.


 Subroutine GETGRP returns: Found  1 space group operations
 (whereof  1 operations were pure point group operations)
 out of a pool of 24 trial point group operations.


The dynamic configuration has the point symmetry C_1 .


 Subroutine INISYM returns: Found  1 space group operations
 (whereof  1 operations are pure point group operations),
 and found     1 'primitive' translations


----------------------------------------------------------------------------------------

                                     Primitive cell                                     

  volume of cell :    3288.8533

  direct lattice vectors                    reciprocal lattice vectors
    12.325000000  0.000000000  0.000000000     0.081135903  0.046843835  0.000000000
    -6.162500000 10.673763102  0.000000000     0.000000000  0.093687670  0.000000000
     0.000000000  0.000000000 25.000000000     0.000000000  0.000000000  0.040000000

  length of vectors
    12.325000000 12.325000000 25.000000000     0.093687670  0.093687670  0.040000000

  position of ions in fractional coordinates (direct lattice)
     0.972450841  0.000320818  0.000566711
     0.039118382  0.133659505  0.000440173
     0.172443627  0.000295449  0.000499628
     0.239096278  0.133647917  0.000256468
     0.972452058  0.200322012  0.000485219
     0.039128360  0.333643771  0.000444150
     0.172451764  0.200354552  0.000219167
     0.239124359  0.333665720  0.000072260
     0.372465565  0.000324403  0.000453913
     0.439137473  0.133619939  0.000258338
     0.972449824  0.400309362  0.000547611
     0.039124981  0.533636789  0.000573410
     0.372416176  0.400329481  0.000000000
     0.439099602  0.533638981  0.000232414
     0.572443676  0.000312125  0.000559580
     0.639110207  0.133631751  0.000547275
     0.972452703  0.600305653  0.000640289
     0.039124495  0.733640359  0.000654513
     0.572433471  0.600306242  0.000402895
     0.639111888  0.733641879  0.000527905
     0.172454630  0.400318228  0.000289045
     0.239120185  0.533636548  0.000378509
     0.372459750  0.200295993  0.000088997
     0.439107096  0.333673419  0.000055762
     0.172452155  0.600311506  0.000524340
     0.239123371  0.733638574  0.000575129
     0.572431082  0.200289171  0.000413296
     0.639112773  0.333618630  0.000462376
     0.372439808  0.600308022  0.000362844
     0.439116090  0.733637858  0.000494190
     0.572469358  0.400320504  0.000339918
     0.639119408  0.533650873  0.000459610
     0.772445723  0.000315427  0.000596161
     0.839116277  0.133640203  0.000575306
     0.772440513  0.200307432  0.000581033
     0.839120241  0.333635728  0.000585467
     0.772446320  0.400298367  0.000582978
     0.839118980  0.533633964  0.000621100
     0.772456143  0.600308173  0.000595712
     0.839115033  0.733643180  0.000631512
     0.972455313  0.800305582  0.000652233
     0.039114714  0.933643289  0.000598051
     0.172457971  0.800312211  0.000623372
     0.239134551  0.933647193  0.000544850
     0.372451396  0.800316674  0.000551399
     0.439124489  0.933644769  0.000541430
     0.572441101  0.800310054  0.000534535
     0.639115067  0.933638985  0.000587644
     0.772445098  0.800313187  0.000602062
     0.839116614  0.933644338  0.000606830
     0.373021009  0.251226878  0.112246205
     0.420879805  0.189313152  0.114823079
     0.325156981  0.313167186  0.109868010

  ion indices of the primitive-cell ions
   primitive index   ion index
                 1           1
                 2           2
                 3           3
                 4           4
                 5           5
                 6           6
                 7           7
                 8           8
                 9           9
                10          10
                11          11
                12          12
                13          13
                14          14
                15          15
                16          16
                17          17
                18          18
                19          19
                20          20
                21          21
                22          22
                23          23
                24          24
                25          25
                26          26
                27          27
                28          28
                29          29
                30          30
                31          31
                32          32
                33          33
                34          34
                35          35
                36          36
                37          37
                38          38
                39          39
                40          40
                41          41
                42          42
                43          43
                44          44
                45          45
                46          46
                47          47
                48          48
                49          49
                50          50
                51          51
                52          52
                53          53

----------------------------------------------------------------------------------------

 
 
 KPOINTS: auto                                    

Automatic generation of k-mesh.
 Grid dimensions read from file:
 generate k-points for:    1    1    1

 Generating k-lattice:

  Cartesian coordinates                     Fractional coordinates (reciprocal lattice)
     0.081135903  0.046843835  0.000000000     1.000000000 -0.000000000  0.000000000
     0.000000000  0.093687670  0.000000000     0.000000000  1.000000000  0.000000000
     0.000000000  0.000000000  0.040000000     0.000000000  0.000000000  1.000000000

  Length of vectors
     0.093687670  0.093687670  0.040000000

  Shift w.r.t. Gamma in fractional coordinates (k-lattice)
     0.000000000  0.000000000  0.000000000

 
 Subroutine IBZKPT returns following result:
 ===========================================
 
 Found      1 irreducible k-points:
 
 Following reciprocal coordinates:
            Coordinates               Weight
  0.000000  0.000000  0.000000      1.000000
 
 Following cartesian coordinates:
            Coordinates               Weight
  0.000000  0.000000  0.000000      1.000000
 


--------------------------------------------------------------------------------------------------------




 Dimension of arrays:
   k-points           NKPTS =      1   k-points in BZ     NKDIM =      1   number of bands    NBANDS=    168
   number of dos      NEDOS =    301   number of ions     NIONS =     53
   non local maximal  LDIM  =      4   non local SUM 2l+1 LMDIM =      8
   total plane-waves  NPLWV = ******
   max r-space proj   IRMAX =      1   max aug-charges    IRDMAX=  10008
   dimension x,y,z NGX =   128 NGY =  128 NGZ =  270
   dimension x,y,z NGXF=   256 NGYF=  256 NGZF=  540
   support grid    NGXF=   256 NGYF=  256 NGZF=  540
   ions per type =              51   2
   NGX,Y,Z   is equivalent  to a cutoff of  17.27, 17.27, 17.95 a.u.
   NGXF,Y,Z  is equivalent  to a cutoff of  34.53, 34.53, 35.91 a.u.

 SYSTEM =  unknown system                          
 POSCAR =   C  O                                   

 Startparameter for this run:
   NWRITE =      2    write-flag & timer
   PREC   = accura    normal or accurate (medium, high low for compatibility)
   ISTART =      0    job   : 0-new  1-cont  2-samecut
   ICHARG =      2    charge: 1-file 2-atom 10-const
   ISPIN  =      1    spin polarized calculation?
   LNONCOLLINEAR =      F non collinear calculations
   LSORBIT =      F    spin-orbit coupling
   INIWAV =      1    electr: 0-lowe 1-rand  2-diag
   LASPH  =      T    aspherical Exc in radial PAW
 Electronic Relaxation 1
   ENCUT  = 1000.0 eV  73.50 Ry    8.57 a.u.  31.78 31.78 64.46*2*pi/ulx,y,z
   ENINI  = 1000.0     initial cutoff
   ENAUG  =  946.8 eV  augmentation charge cutoff
   NELM   =     60;   NELMIN=  2; NELMDL= -5     # of ELM steps 
   EDIFF  = 0.1E-06   stopping-criterion for ELM
   LREAL  =      F    real-space projection
   NLSPLINE    = F    spline interpolate recip. space projectors
   LCOMPAT=      F    compatible to vasp.4.4
   GGA_COMPAT  = T    GGA compatible to vasp.4.4-vasp.4.6
   LMAXPAW     = -100 max onsite density
   LMAXMIX     =    2 max onsite mixed and CHGCAR
   VOSKOWN=      0    Vosko Wilk Nusair interpolation
   ROPT   =    0.00000   0.00000
 Ionic relaxation
   EDIFFG = 0.1E-05   stopping-criterion for IOM
   NSW    =      0    number of steps for IOM
   NBLOCK =      1;   KBLOCK =      1    inner block; outer block 
   IBRION =     -1    ionic relax: 0-MD 1-quasi-New 2-CG
   NFREE  =      0    steps in history (QN), initial steepest desc. (CG)
   ISIF   =      0    stress and relaxation
   IWAVPR =     10    prediction:  0-non 1-charg 2-wave 3-comb
   ISYM   =      2    0-nonsym 1-usesym 2-fastsym
   LCORR  =      T    Harris-Foulkes like correction to forces

   POTIM  = 0.5000    time-step for ionic-motion
   TEIN   =    0.0    initial temperature
   TEBEG  =    0.0;   TEEND  =   0.0 temperature during run
   SMASS  =  -3.00    Nose mass-parameter (am)
   estimated Nose-frequenzy (Omega)   =  0.10E-29 period in steps = 0.13E+47 mass=  -0.347E-26a.u.
   SCALEE = 1.0000    scale energy and forces
   NPACO  =    256;   APACO  = 16.0  distance and # of slots for P.C.
   PSTRESS=    0.0 pullay stress

  Mass of Ions in am
   POMASS =  12.01 16.00
  Ionic Valenz
   ZVAL   =   4.00  6.00
  Atomic Wigner-Seitz radii
   RWIGS  =  -1.00 -1.00
  virtual crystal weights 
   VCA    =   1.00  1.00
   NELECT =     216.0000    total number of electrons
   NUPDOWN=      -1.0000    fix difference up-down

 DOS related values:
   EMIN   =  10.00;   EMAX   =-10.00  energy-range for DOS
   EFERMI =   0.00
   ISMEAR =     0;   SIGMA  =   0.01  broadening in eV -4-tet -1-fermi 0-gaus

 Electronic relaxation 2 (details)
   IALGO  =     58    algorithm
   LDIAG  =      T    sub-space diagonalisation (order eigenvalues)
   LSUBROT=      F    optimize rotation matrix (better conditioning)
   TURBO    =      0    0=normal 1=particle mesh
   IRESTART =      0    0=no restart 2=restart with 2 vectors
   NREBOOT  =      0    no. of reboots
   NMIN     =      0    reboot dimension
   EREF     =   0.00    reference energy to select bands
   IMIX   =      4    mixing-type and parameters
     AMIX     =   0.40;   BMIX     =  1.00
     AMIX_MAG =   1.60;   BMIX_MAG =  1.00
     AMIN     =   0.10
     WC   =   100.;   INIMIX=   1;  MIXPRE=   1;  MAXMIX= -45

 Intra band minimization:
   WEIMIN = 0.0000     energy-eigenvalue tresh-hold
   EBREAK =  0.15E-09  absolut break condition
   DEPER  =   0.30     relativ break condition  

   TIME   =   0.40     timestep for ELM

  volume/ion in A,a.u.               =      62.05       418.76
  Fermi-wavevector in a.u.,A,eV,Ry     =   0.660508  1.248179  5.935820  0.436270
  Thomas-Fermi vector in A             =   1.732977
 
 Write flags
   LWAVE        =      T    write WAVECAR
   LDOWNSAMPLE  =      F    k-point downsampling of WAVECAR
   LCHARG       =      T    write CHGCAR
   LVTOT        =      F    write LOCPOT, total local potential
   LVHAR        =      F    write LOCPOT, Hartree potential only
   LELF         =      F    write electronic localiz. function (ELF)
   LORBIT       =      0    0 simple, 1 ext, 2 COOP (PROOUT), +10 PAW based schemes


 Dipole corrections
   LMONO  =      F    monopole corrections only (constant potential shift)
   LDIPOL =      F    correct potential (dipole corrections)
   IDIPOL =      0    1-x, 2-y, 3-z, 4-all directions 
   EPSILON=  1.0000000 bulk dielectric constant

 Exchange correlation treatment:
   GGA     =    --    GGA type
   LEXCH   =     8    internal setting for exchange type
   VOSKOWN=      0    Vosko Wilk Nusair interpolation
   LHFCALC =     F    Hartree Fock is set to
   LHFONE  =     F    Hartree Fock one center treatment
   AEXX    =    0.0000 exact exchange contribution

 Linear response parameters
   LEPSILON=     F    determine dielectric tensor
   LRPA    =     F    only Hartree local field effects (RPA)
   LNABLA  =     F    use nabla operator in PAW spheres
   LVEL    =     F    velocity operator in full k-point grid
   LINTERFAST=   F  fast interpolation
   KINTER  =     0    interpolate to denser k-point grid
   CSHIFT  =0.1000    complex shift for real part using Kramers Kronig
   OMEGAMAX=  -1.0    maximum frequency
   DEG_THRESHOLD= 0.2000000E-02 threshold for treating states as degnerate
   RTIME   =   -0.100 relaxation time in fs
  (WPLASMAI=    0.000 imaginary part of plasma frequency in eV, 0.658/RTIME)
   DFIELD  = 0.0000000 0.0000000 0.0000000 field for delta impulse in time
 
 Orbital magnetization related:
   ORBITALMAG=     F  switch on orbital magnetization
   LCHIMAG   =     F  perturbation theory with respect to B field
   DQ        =  0.001000  dq finite difference perturbation B field
   LLRAUG    =     F  two centre corrections for induced B field



--------------------------------------------------------------------------------------------------------


 Static calculation
 charge density and potential will be updated during run
 non-spin polarized calculation
 Conjugate gradient for all bands (Freysoldt, et al. PRB 79, 241103 (2009))
 preconditioned conjugated gradient                                        
 perform sub-space diagonalisation
    before iterative eigenvector-optimisation
 modified Broyden-mixing scheme, WC =      100.0
 initial mixing is a Kerker type mixing with AMIX =  0.4000 and BMIX =      1.0000
 Hartree-type preconditioning will be used
 using additional bands           60
 reciprocal scheme for non local part
 use partial core corrections
 no Harris-corrections to forces 
 use gradient corrections 
 use of overlap-Matrix (Vanderbilt PP)
 Gauss-broadening in eV      SIGMA  =   0.01


--------------------------------------------------------------------------------------------------------


  energy-cutoff  :     1000.00
  volume of cell :     3288.85
      direct lattice vectors                 reciprocal lattice vectors
    12.325000000  0.000000000  0.000000000     0.081135903  0.046843835  0.000000000
    -6.162500000 10.673763102  0.000000000     0.000000000  0.093687670  0.000000000
     0.000000000  0.000000000 25.000000000     0.000000000  0.000000000  0.040000000

  length of vectors
    12.325000000 12.325000000 25.000000000     0.093687670  0.093687670  0.040000000


 
 k-points in units of 2pi/SCALE and weight: auto                                    
   0.00000000  0.00000000  0.00000000       1.000
 
 k-points in reciprocal lattice and weights: auto                                    
   0.00000000  0.00000000  0.00000000       1.000
 
 position of ions in fractional coordinates (direct lattice) 
   0.97245084  0.00032082  0.00056671
   0.03911838  0.13365950  0.00044017
   0.17244363  0.00029545  0.00049963
   0.23909628  0.13364792  0.00025647
   0.97245206  0.20032201  0.00048522
   0.03912836  0.33364377  0.00044415
   0.17245176  0.20035455  0.00021917
   0.23912436  0.33366572  0.00007226
   0.37246557  0.00032440  0.00045391
   0.43913747  0.13361994  0.00025834
   0.97244982  0.40030936  0.00054761
   0.03912498  0.53363679  0.00057341
   0.37241618  0.40032948  0.00000000
   0.43909960  0.53363898  0.00023241
   0.57244368  0.00031213  0.00055958
   0.63911021  0.13363175  0.00054727
   0.97245270  0.60030565  0.00064029
   0.03912449  0.73364036  0.00065451
   0.57243347  0.60030624  0.00040289
   0.63911189  0.73364188  0.00052791
   0.17245463  0.40031823  0.00028904
   0.23912018  0.53363655  0.00037851
   0.37245975  0.20029599  0.00008900
   0.43910710  0.33367342  0.00005576
   0.17245216  0.60031151  0.00052434
   0.23912337  0.73363857  0.00057513
   0.57243108  0.20028917  0.00041330
   0.63911277  0.33361863  0.00046238
   0.37243981  0.60030802  0.00036284
   0.43911609  0.73363786  0.00049419
   0.57246936  0.40032050  0.00033992
   0.63911941  0.53365087  0.00045961
   0.77244572  0.00031543  0.00059616
   0.83911628  0.13364020  0.00057531
   0.77244051  0.20030743  0.00058103
   0.83912024  0.33363573  0.00058547
   0.77244632  0.40029837  0.00058298
   0.83911898  0.53363396  0.00062110
   0.77245614  0.60030817  0.00059571
   0.83911503  0.73364318  0.00063151
   0.97245531  0.80030558  0.00065223
   0.03911471  0.93364329  0.00059805
   0.17245797  0.80031221  0.00062337
   0.23913455  0.93364719  0.00054485
   0.37245140  0.80031667  0.00055140
   0.43912449  0.93364477  0.00054143
   0.57244110  0.80031005  0.00053453
   0.63911507  0.93363899  0.00058764
   0.77244510  0.80031319  0.00060206
   0.83911661  0.93364434  0.00060683
   0.37302101  0.25122688  0.11224620
   0.42087980  0.18931315  0.11482308
   0.32515698  0.31316719  0.10986801
 
 position of ions in cartesian coordinates  (Angst):
  11.98347958  0.00342433  0.01416777
  -0.34154264  1.42664989  0.01100432
   2.12354700  0.00315355  0.01249070
   2.12325634  1.42652621  0.00641170
  10.75098721  2.13818970  0.01213047
  -1.57382270  3.56123457  0.01110375
   0.89078307  2.13853702  0.00547917
   0.89099273  3.56146885  0.00180651
   4.58863896  0.00346260  0.01134782
   4.58893648  1.42622757  0.00645846
   9.51853763  4.27280730  0.01369027
  -2.80632132  5.69591267  0.01433526
   2.12299894  4.27302204  0.00000000
   2.12335237  5.69593607  0.00581036
   7.05344483  0.00333155  0.01398950
   7.05352764  1.42635365  0.01368187
   8.28609598  6.40752033  0.01600723
  -4.03884931  7.83070339  0.01636283
   3.35585531  6.40752662  0.01007237
   3.35598594  7.83071962  0.01319763
  -0.34145776  4.27290193  0.00722612
  -0.34137895  5.69591010  0.00946273
   3.35624236  2.13791198  0.00222492
   3.35573251  3.56155103  0.00139405
  -1.57394684  6.40758280  0.01310850
  -1.57385216  7.83068434  0.01437823
   5.82093107  2.13783916  0.01033241
   5.82114012  3.56096622  0.01155939
   0.89092245  6.40754561  0.00907111
   0.89106251  7.83067670  0.01235474
   4.58870974  4.27292622  0.00849795
   4.58852320  5.69606300  0.01149026
   9.51844972  0.00336679  0.01490402
   9.51855036  1.42644387  0.01438264
   8.28593477  2.13803408  0.01452582
   8.28612680  3.56114872  0.01463668
   7.05356221  4.27268994  0.01457444
   7.05362213  5.69588251  0.01552751
   5.82112285  6.40754723  0.01489279
   5.82101669  7.83073350  0.01578780
   7.05362858  8.54227219  0.01630582
  -5.27148792  9.96548729  0.01495127
  -2.80637951  8.54234295  0.01558431
  -2.80626749  9.96552896  0.01362126
  -0.34148805  8.54239058  0.01378498
  -0.34137657  9.96550309  0.01353576
   2.12342586  8.54231992  0.01336337
   2.12354296  9.96544135  0.01469111
   4.58845581  8.54235337  0.01505154
   4.58852904  9.96549848  0.01517076
   3.04929830  2.68153618  2.80615512
   4.02070129  2.02068374  2.87057698
   2.07766701  3.34267235  2.74670025
 


--------------------------------------------------------------------------------------------------------


 k-point   1 :   0.0000 0.0000 0.0000  plane waves:  236157

 maximum and minimum number of plane-waves per node :    236157   236157

 maximum number of plane-waves:    236157
 maximum index in each direction: 
   IXMAX=   31   IYMAX=   31   IZMAX=   64
   IXMIN=  -31   IYMIN=  -31   IZMIN=  -64


 serial   3D FFT for wavefunctions
 parallel 3D FFT for charge:
    minimum data exchange during FFTs selected (reduces bandwidth)


 total amount of memory used by VASP MPI-rank0   698619. kBytes
=======================================================================

   base      :      30000. kBytes
   nonl-proj :     230539. kBytes
   fftplans  :      40716. kBytes
   grid      :     363125. kBytes
   one-center:        162. kBytes
   wavefun   :      34077. kBytes
 
     INWAV:  cpu time    0.0000: real time    0.0000
 Broyden mixing: mesh for mixing (old mesh)
   NGX = 63   NGY = 63   NGZ =129
  (NGX  =256   NGY  =256   NGZ  =540)
  gives a total of 512001 points

 initial charge density was supplied:
 charge density of overlapping atoms calculated
 number of electron     216.0000000 magnetization 
 keeping initial charge density in first step


--------------------------------------------------------------------------------------------------------


 Maximum index for augmentation-charges          471 (set IRDMAX)


--------------------------------------------------------------------------------------------------------


 First call to EWALD:  gamma=   0.119
 Maximum number of real-space cells 4x 4x 2
 Maximum number of reciprocal cells 2x 2x 4

    FEWALD:  cpu time    0.0025: real time    0.0025


--------------------------------------- Iteration      1(   1)  ---------------------------------------


    POTLOK:  cpu time    1.7207: real time    1.7356
    SETDIJ:  cpu time    0.2046: real time    0.2055
    TRIAL :  cpu time   28.1368: real time   28.3859
    CORREC:  cpu time    0.0007: real time    0.0007
    --------------------------------------------
      LOOP:  cpu time   30.0790: real time   30.3505

 eigenvalue-minimisations  :   336
 total energy-change (2. order) : 0.2561834E+04  (-0.1079838E+05)
 number of electron     216.0000000 magnetization 
 augmentation part      216.0000000 magnetization 

 Free energy of the ion-electron system (eV)
  ---------------------------------------------------
  alpha Z        PSCENC =        47.94900195
  Ewald energy   TEWEN  =     48114.18302124
  -Hartree energ DENC   =    -54181.92891958
  -exchange      EXHF   =         0.00000000
  -V(xc)+E(xc)   XCENC  =       605.51596702
  PAW double counting   =      6340.10990386    -6200.63067283
  entropy T*S    EENTRO =        -0.00000001
  eigenvalues    EBANDS =      -532.88795376
  atomic energy  EATOM  =      8369.52358910
  ---------------------------------------------------
  free energy    TOTEN  =      2561.83393699 eV

  energy without entropy =     2561.83393699  energy(sigma->0) =     2561.83393699


--------------------------------------------------------------------------------------------------------




--------------------------------------- Iteration      1(   2)  ---------------------------------------


    TRIAL :  cpu time   39.9856: real time   40.3324
    CORREC:  cpu time    0.0001: real time    0.0001
    --------------------------------------------
      LOOP:  cpu time   40.0599: real time   40.4116

 eigenvalue-minimisations  :   560
 total energy-change (2. order) :-0.2492692E+04  (-0.2327732E+04)
 number of electron     216.0000000 magnetization 
 augmentation part      216.0000000 magnetization 

 Free energy of the ion-electron system (eV)
  ---------------------------------------------------
  alpha Z        PSCENC =        47.94900195
  Ewald energy   TEWEN  =     48114.18302124
  -Hartree energ DENC   =    -54181.92891958
  -exchange      EXHF   =         0.00000000
  -V(xc)+E(xc)   XCENC  =       605.51596702
  PAW double counting   =      6340.10990386    -6200.63067283
  entropy T*S    EENTRO =        -0.00000000
  eigenvalues    EBANDS =     -3025.57949237
  atomic energy  EATOM  =      8369.52358910
  ---------------------------------------------------
  free energy    TOTEN  =        69.14239839 eV

  energy without entropy =       69.14239839  energy(sigma->0) =       69.14239839


--------------------------------------------------------------------------------------------------------




--------------------------------------- Iteration      1(   3)  ---------------------------------------


    TRIAL :  cpu time   31.0698: real time   31.3081
    CORREC:  cpu time    0.0001: real time    0.0001
    --------------------------------------------
      LOOP:  cpu time   31.1215: real time   31.3657

 eigenvalue-minimisations  :   392
 total energy-change (2. order) :-0.6412888E+03  (-0.6378493E+03)
 number of electron     216.0000000 magnetization 
 augmentation part      216.0000000 magnetization 

 Free energy of the ion-electron system (eV)
  ---------------------------------------------------
  alpha Z        PSCENC =        47.94900195
  Ewald energy   TEWEN  =     48114.18302124
  -Hartree energ DENC   =    -54181.92891958
  -exchange      EXHF   =         0.00000000
  -V(xc)+E(xc)   XCENC  =       605.51596702
  PAW double counting   =      6340.10990386    -6200.63067283
  entropy T*S    EENTRO =        -0.00000000
  eigenvalues    EBANDS =     -3666.86825973
  atomic energy  EATOM  =      8369.52358910
  ---------------------------------------------------
  free energy    TOTEN  =      -572.14636897 eV

  energy without entropy =     -572.14636897  energy(sigma->0) =     -572.14636897


--------------------------------------------------------------------------------------------------------




--------------------------------------- Iteration      1(   4)  ---------------------------------------


    TRIAL :  cpu time   34.0181: real time   34.3002
    CORREC:  cpu time    0.0001: real time    0.0001
    --------------------------------------------
      LOOP:  cpu time   34.0578: real time   34.3421

 eigenvalue-minimisations  :   448
 total energy-change (2. order) :-0.3419223E+02  (-0.3392653E+02)
 number of electron     216.0000000 magnetization 
 augmentation part      216.0000000 magnetization 

 Free energy of the ion-electron system (eV)
  ---------------------------------------------------
  alpha Z        PSCENC =        47.94900195
  Ewald energy   TEWEN  =     48114.18302124
  -Hartree energ DENC   =    -54181.92891958
  -exchange      EXHF   =         0.00000000
  -V(xc)+E(xc)   XCENC  =       605.51596702
  PAW double counting   =      6340.10990386    -6200.63067283
  entropy T*S    EENTRO =        -0.00000000
  eigenvalues    EBANDS =     -3701.06048986
  atomic energy  EATOM  =      8369.52358910
  ---------------------------------------------------
  free energy    TOTEN  =      -606.33859910 eV

  energy without entropy =     -606.33859910  energy(sigma->0) =     -606.33859910


--------------------------------------------------------------------------------------------------------




--------------------------------------- Iteration      1(   5)  ---------------------------------------


    TRIAL :  cpu time   34.0147: real time   34.3084
    CORREC:  cpu time    0.0001: real time    0.0001
    CHARGE:  cpu time    3.0013: real time    3.0228
    --------------------------------------------
      LOOP:  cpu time   37.0778: real time   37.3951

 eigenvalue-minimisations  :   448
 total energy-change (2. order) :-0.1150862E+01  (-0.1146346E+01)
 number of electron     216.0000000 magnetization 
 augmentation part       -0.4524361 magnetization 

 Free energy of the ion-electron system (eV)
  ---------------------------------------------------
  alpha Z        PSCENC =        47.94900195
  Ewald energy   TEWEN  =     48114.18302124
  -Hartree energ DENC   =    -54181.92891958
  -exchange      EXHF   =         0.00000000
  -V(xc)+E(xc)   XCENC  =       605.51596702
  PAW double counting   =      6340.10990386    -6200.63067283
  entropy T*S    EENTRO =        -0.00000000
  eigenvalues    EBANDS =     -3702.21135182
  atomic energy  EATOM  =      8369.52358910
  ---------------------------------------------------
  free energy    TOTEN  =      -607.48946106 eV

  energy without entropy =     -607.48946106  energy(sigma->0) =     -607.48946106


--------------------------------------------------------------------------------------------------------




--------------------------------------- Iteration      1(   6)  ---------------------------------------


    POTLOK:  cpu time    1.6905: real time    1.7001
    SETDIJ:  cpu time    0.2055: real time    0.2062
    TRIAL :  cpu time   20.1187: real time   20.2711
    CORREC:  cpu time    8.9673: real time    9.0270
    CHARGE:  cpu time    2.9926: real time    3.0133
    --------------------------------------------
      LOOP:  cpu time   34.0299: real time   34.2776

 eigenvalue-minimisations  :     0
 total energy-change (2. order) : 0.9757562E+02  (-0.1120822E+02)
 number of electron     216.0000000 magnetization 
 augmentation part       -0.5096651 magnetization 

 Free energy of the ion-electron system (eV)
  ---------------------------------------------------
  alpha Z        PSCENC =        47.94900195
  Ewald energy   TEWEN  =     48114.18302124
  -Hartree energ DENC   =    -55526.57044923
  -exchange      EXHF   =         0.00000000
  -V(xc)+E(xc)   XCENC  =       676.62653661
  PAW double counting   =    119719.26825221  -119579.65248735
  entropy T*S    EENTRO =        -0.00000000
  eigenvalues    EBANDS =     -2331.24130463
  atomic energy  EATOM  =      8369.52358910
  ---------------------------------------------------
  free energy    TOTEN  =      -509.91384011 eV

  energy without entropy =     -509.91384011  energy(sigma->0) =     -509.91384011


--------------------------------------------------------------------------------------------------------




--------------------------------------- Iteration      1(   7)  ---------------------------------------


    POTLOK:  cpu time    1.6873: real time    1.6974
    SETDIJ:  cpu time    0.2003: real time    0.2010
    TRIAL :  cpu time   20.0964: real time   20.2473
    CORREC:  cpu time    8.9597: real time    9.0238
    CHARGE:  cpu time    2.9877: real time    3.0084
    --------------------------------------------
      LOOP:  cpu time   33.9396: real time   34.2342

 eigenvalue-minimisations  :     0
 total energy-change (2. order) :-0.1121711E+02  (-0.1402055E+01)
 number of electron     216.0000000 magnetization 
 augmentation part       -0.5410905 magnetization 

 Free energy of the ion-electron system (eV)
  ---------------------------------------------------
  alpha Z        PSCENC =        47.94900195
  Ewald energy   TEWEN  =     48114.18302124
  -Hartree energ DENC   =    -55110.08530570
  -exchange      EXHF   =         0.00000000
  -V(xc)+E(xc)   XCENC  =       659.13710238
  PAW double counting   =    139183.36314388  -139042.03044900
  entropy T*S    EENTRO =        -0.00000000
  eigenvalues    EBANDS =     -2743.17105753
  atomic energy  EATOM  =      8369.52358910
  ---------------------------------------------------
  free energy    TOTEN  =      -521.13095368 eV

  energy without entropy =     -521.13095368  energy(sigma->0) =     -521.13095368


--------------------------------------------------------------------------------------------------------




--------------------------------------- Iteration      1(   8)  ---------------------------------------


    POTLOK:  cpu time    1.6890: real time    1.6989
    SETDIJ:  cpu time    0.1999: real time    0.2007
    TRIAL :  cpu time   20.0557: real time   20.2182
    CORREC:  cpu time    8.9645: real time    9.0262
    CHARGE:  cpu time    3.0030: real time    3.0263
    --------------------------------------------
      LOOP:  cpu time   33.9818: real time   34.2424

 eigenvalue-minimisations  :     0
 total energy-change (2. order) :-0.1402710E+01  (-0.4424166E+00)
 number of electron     216.0000000 magnetization 
 augmentation part       -0.5421288 magnetization 

 Free energy of the ion-electron system (eV)
  ---------------------------------------------------
  alpha Z        PSCENC =        47.94900195
  Ewald energy   TEWEN  =     48114.18302124
  -Hartree energ DENC   =    -55087.86641810
  -exchange      EXHF   =         0.00000000
  -V(xc)+E(xc)   XCENC  =       658.18995607
  PAW double counting   =    148940.46682701  -148799.01278106
  entropy T*S    EENTRO =        -0.00000000
  eigenvalues    EBANDS =     -2765.96686032
  atomic energy  EATOM  =      8369.52358910
  ---------------------------------------------------
  free energy    TOTEN  =      -522.53366412 eV

  energy without entropy =     -522.53366412  energy(sigma->0) =     -522.53366412


--------------------------------------------------------------------------------------------------------




--------------------------------------- Iteration      1(   9)  ---------------------------------------


    POTLOK:  cpu time    1.6988: real time    1.7108
    SETDIJ:  cpu time    0.1863: real time    0.1877
    TRIAL :  cpu time   20.0936: real time   20.2464
    CORREC:  cpu time    8.9733: real time    9.0362
    CHARGE:  cpu time    2.9829: real time    3.0096
    --------------------------------------------
      LOOP:  cpu time   33.9734: real time   34.2304

 eigenvalue-minimisations  :     0
 total energy-change (2. order) :-0.4421091E+00  (-0.1729949E+00)
 number of electron     216.0000000 magnetization 
 augmentation part       -0.5387418 magnetization 

 Free energy of the ion-electron system (eV)
  ---------------------------------------------------
  alpha Z        PSCENC =        47.94900195
  Ewald energy   TEWEN  =     48114.18302124
  -Hartree energ DENC   =    -55093.90501586
  -exchange      EXHF   =         0.00000000
  -V(xc)+E(xc)   XCENC  =       658.15369186
  PAW double counting   =    156589.68931467  -156448.16724815
  entropy T*S    EENTRO =        -0.00000000
  eigenvalues    EBANDS =     -2760.40212805
  atomic energy  EATOM  =      8369.52358910
  ---------------------------------------------------
  free energy    TOTEN  =      -522.97577324 eV

  energy without entropy =     -522.97577324  energy(sigma->0) =     -522.97577324


--------------------------------------------------------------------------------------------------------




--------------------------------------- Iteration      1(  10)  ---------------------------------------


    POTLOK:  cpu time    1.6869: real time    1.6969
    SETDIJ:  cpu time    0.2021: real time    0.2028
    TRIAL :  cpu time   20.1040: real time   20.2568
    CORREC:  cpu time    8.9722: real time    9.0462
    CHARGE:  cpu time    2.9885: real time    3.0106
    --------------------------------------------
      LOOP:  cpu time   34.0198: real time   34.2836

 eigenvalue-minimisations  :     0
 total energy-change (2. order) :-0.1728508E+00  (-0.7535467E-01)
 number of electron     216.0000000 magnetization 
 augmentation part       -0.5339708 magnetization 

 Free energy of the ion-electron system (eV)
  ---------------------------------------------------
  alpha Z        PSCENC =        47.94900195
  Ewald energy   TEWEN  =     48114.18302124
  -Hartree energ DENC   =    -55092.08209048
  -exchange      EXHF   =         0.00000000
  -V(xc)+E(xc)   XCENC  =       658.07045888
  PAW double counting   =    160209.76087597  -160068.19700253
  entropy T*S    EENTRO =        -0.00000000
  eigenvalues    EBANDS =     -2762.35647820
  atomic energy  EATOM  =      8369.52358910
  ---------------------------------------------------
  free energy    TOTEN  =      -523.14862407 eV

  energy without entropy =     -523.14862407  energy(sigma->0) =     -523.14862407


--------------------------------------------------------------------------------------------------------




--------------------------------------- Iteration      1(  11)  ---------------------------------------


    POTLOK:  cpu time    1.6898: real time    1.6997
    SETDIJ:  cpu time    0.2041: real time    0.2049
    TRIAL :  cpu time   20.0897: real time   20.2407
    CORREC:  cpu time    8.9464: real time    9.0157
    CHARGE:  cpu time    2.9954: real time    3.0167
    --------------------------------------------
      LOOP:  cpu time   33.9380: real time   34.2074

 eigenvalue-minimisations  :     0
 total energy-change (2. order) :-0.7522414E-01  (-0.2936280E-01)
 number of electron     216.0000000 magnetization 
 augmentation part       -0.5308274 magnetization 

 Free energy of the ion-electron system (eV)
  ---------------------------------------------------
  alpha Z        PSCENC =        47.94900195
  Ewald energy   TEWEN  =     48114.18302124
  -Hartree energ DENC   =    -55086.44244442
  -exchange      EXHF   =         0.00000000
  -V(xc)+E(xc)   XCENC  =       658.01276713
  PAW double counting   =    160830.96108800  -160689.41500168
  entropy T*S    EENTRO =        -0.00000000
  eigenvalues    EBANDS =     -2767.99586954
  atomic energy  EATOM  =      8369.52358910
  ---------------------------------------------------
  free energy    TOTEN  =      -523.22384822 eV

  energy without entropy =     -523.22384822  energy(sigma->0) =     -523.22384822


--------------------------------------------------------------------------------------------------------




--------------------------------------- Iteration      1(  12)  ---------------------------------------


    POTLOK:  cpu time    1.6854: real time    1.6962
    SETDIJ:  cpu time    0.2022: real time    0.2030
    TRIAL :  cpu time   20.0689: real time   20.2444
    CORREC:  cpu time    8.9714: real time    9.0339
    CHARGE:  cpu time    2.9971: real time    3.0179
    --------------------------------------------
      LOOP:  cpu time   33.9866: real time   34.2578

 eigenvalue-minimisations  :     0
 total energy-change (2. order) :-0.2931628E-01  (-0.9172447E-02)
 number of electron     216.0000000 magnetization 
 augmentation part       -0.5306255 magnetization 

 Free energy of the ion-electron system (eV)
  ---------------------------------------------------
  alpha Z        PSCENC =        47.94900195
  Ewald energy   TEWEN  =     48114.18302124
  -Hartree energ DENC   =    -55082.09092943
  -exchange      EXHF   =         0.00000000
  -V(xc)+E(xc)   XCENC  =       657.94772271
  PAW double counting   =    160250.18566315  -160108.66360950
  entropy T*S    EENTRO =        -0.00000000
  eigenvalues    EBANDS =     -2772.28762372
  atomic energy  EATOM  =      8369.52358910
  ---------------------------------------------------
  free energy    TOTEN  =      -523.25316450 eV

  energy without entropy =     -523.25316450  energy(sigma->0) =     -523.25316450


--------------------------------------------------------------------------------------------------------




--------------------------------------- Iteration      1(  13)  ---------------------------------------


    POTLOK:  cpu time    1.6853: real time    1.6949
    SETDIJ:  cpu time    0.2063: real time    0.2072
    TRIAL :  cpu time   20.0938: real time   20.2537
    CORREC:  cpu time    8.9670: real time    9.0302
    CHARGE:  cpu time    3.0036: real time    3.0257
    --------------------------------------------
      LOOP:  cpu time   34.0664: real time   34.3248

 eigenvalue-minimisations  :     0
 total energy-change (2. order) :-0.9154874E-02  (-0.2551557E-02)
 number of electron     216.0000000 magnetization 
 augmentation part       -0.5310835 magnetization 

 Free energy of the ion-electron system (eV)
  ---------------------------------------------------
  alpha Z        PSCENC =        47.94900195
  Ewald energy   TEWEN  =     48114.18302124
  -Hartree energ DENC   =    -55080.69387815
  -exchange      EXHF   =         0.00000000
  -V(xc)+E(xc)   XCENC  =       657.89880690
  PAW double counting   =    159588.60270406  -159447.08455341
  entropy T*S    EENTRO =        -0.00000000
  eigenvalues    EBANDS =     -2773.64101106
  atomic energy  EATOM  =      8369.52358910
  ---------------------------------------------------
  free energy    TOTEN  =      -523.26231937 eV

  energy without entropy =     -523.26231937  energy(sigma->0) =     -523.26231937


--------------------------------------------------------------------------------------------------------




--------------------------------------- Iteration      1(  14)  ---------------------------------------


    POTLOK:  cpu time    1.6903: real time    1.7001
    SETDIJ:  cpu time    0.1968: real time    0.1975
    TRIAL :  cpu time   20.0606: real time   20.2374
    CORREC:  cpu time    8.9655: real time    9.0322
    CHARGE:  cpu time    3.0028: real time    3.0257
    --------------------------------------------
      LOOP:  cpu time   33.9950: real time   34.2726

 eigenvalue-minimisations  :     0
 total energy-change (2. order) :-0.2541512E-02  (-0.6912877E-03)
 number of electron     216.0000000 magnetization 
 augmentation part       -0.5313596 magnetization 

 Free energy of the ion-electron system (eV)
  ---------------------------------------------------
  alpha Z        PSCENC =        47.94900195
  Ewald energy   TEWEN  =     48114.18302124
  -Hartree energ DENC   =    -55080.79199171
  -exchange      EXHF   =         0.00000000
  -V(xc)+E(xc)   XCENC  =       657.88946151
  PAW double counting   =    159199.51676260  -159057.99784731
  entropy T*S    EENTRO =        -0.00000000
  eigenvalues    EBANDS =     -2773.53685826
  atomic energy  EATOM  =      8369.52358910
  ---------------------------------------------------
  free energy    TOTEN  =      -523.26486089 eV

  energy without entropy =     -523.26486089  energy(sigma->0) =     -523.26486089


--------------------------------------------------------------------------------------------------------




--------------------------------------- Iteration      1(  15)  ---------------------------------------


    POTLOK:  cpu time    1.6874: real time    1.6970
    SETDIJ:  cpu time    0.2053: real time    0.2060
    TRIAL :  cpu time   20.0864: real time   20.2383
    CORREC:  cpu time    8.9722: real time    9.0370
    CHARGE:  cpu time    2.9894: real time    3.0124
    --------------------------------------------
      LOOP:  cpu time   34.0203: real time   34.2737

 eigenvalue-minimisations  :     0
 total energy-change (2. order) :-0.6868912E-03  (-0.1936412E-03)
 number of electron     216.0000000 magnetization 
 augmentation part       -0.5315376 magnetization 

 Free energy of the ion-electron system (eV)
  ---------------------------------------------------
  alpha Z        PSCENC =        47.94900195
  Ewald energy   TEWEN  =     48114.18302124
  -Hartree energ DENC   =    -55080.72785866
  -exchange      EXHF   =         0.00000000
  -V(xc)+E(xc)   XCENC  =       657.88432568
  PAW double counting   =    159007.78096664  -158866.26100940
  entropy T*S    EENTRO =        -0.00000000
  eigenvalues    EBANDS =     -2773.59758432
  atomic energy  EATOM  =      8369.52358910
  ---------------------------------------------------
  free energy    TOTEN  =      -523.26554778 eV

  energy without entropy =     -523.26554778  energy(sigma->0) =     -523.26554778


--------------------------------------------------------------------------------------------------------




--------------------------------------- Iteration      1(  16)  ---------------------------------------


    POTLOK:  cpu time    1.6861: real time    1.6964
    SETDIJ:  cpu time    0.2053: real time    0.2062
    TRIAL :  cpu time   20.0762: real time   20.2469
    CORREC:  cpu time    8.9648: real time    9.0350
    CHARGE:  cpu time    3.0208: real time    3.0486
    --------------------------------------------
      LOOP:  cpu time   34.0120: real time   34.2938

 eigenvalue-minimisations  :     0
 total energy-change (2. order) :-0.1918501E-03  (-0.6264784E-04)
 number of electron     216.0000000 magnetization 
 augmentation part       -0.5316002 magnetization 

 Free energy of the ion-electron system (eV)
  ---------------------------------------------------
  alpha Z        PSCENC =        47.94900195
  Ewald energy   TEWEN  =     48114.18302124
  -Hartree energ DENC   =    -55080.62586240
  -exchange      EXHF   =         0.00000000
  -V(xc)+E(xc)   XCENC  =       657.87871635
  PAW double counting   =    158901.85083019  -158760.32929084
  entropy T*S    EENTRO =        -0.00000000
  eigenvalues    EBANDS =     -2773.69574522
  atomic energy  EATOM  =      8369.52358910
  ---------------------------------------------------
  free energy    TOTEN  =      -523.26573963 eV

  energy without entropy =     -523.26573963  energy(sigma->0) =     -523.26573963


--------------------------------------------------------------------------------------------------------




--------------------------------------- Iteration      1(  17)  ---------------------------------------


    POTLOK:  cpu time    1.6865: real time    1.6960
    SETDIJ:  cpu time    0.2058: real time    0.2065
    TRIAL :  cpu time   20.1000: real time   20.2519
    CORREC:  cpu time    8.9601: real time    9.0304
    CHARGE:  cpu time    2.9899: real time    3.0128
    --------------------------------------------
      LOOP:  cpu time   33.9970: real time   34.2527

 eigenvalue-minimisations  :     0
 total energy-change (2. order) :-0.6154168E-04  (-0.2305706E-04)
 number of electron     216.0000000 magnetization 
 augmentation part       -0.5316302 magnetization 

 Free energy of the ion-electron system (eV)
  ---------------------------------------------------
  alpha Z        PSCENC =        47.94900195
  Ewald energy   TEWEN  =     48114.18302124
  -Hartree energ DENC   =    -55080.78363521
  -exchange      EXHF   =         0.00000000
  -V(xc)+E(xc)   XCENC  =       657.88412174
  PAW double counting   =    158835.78979136  -158694.26807822
  entropy T*S    EENTRO =        -0.00000000
  eigenvalues    EBANDS =     -2773.54361313
  atomic energy  EATOM  =      8369.52358910
  ---------------------------------------------------
  free energy    TOTEN  =      -523.26580117 eV

  energy without entropy =     -523.26580117  energy(sigma->0) =     -523.26580117


--------------------------------------------------------------------------------------------------------




--------------------------------------- Iteration      1(  18)  ---------------------------------------


    POTLOK:  cpu time    1.6883: real time    1.6979
    SETDIJ:  cpu time    0.2001: real time    0.2008
    TRIAL :  cpu time   20.0902: real time   20.2401
    CORREC:  cpu time    8.9394: real time    9.0235
    CHARGE:  cpu time    2.9964: real time    3.0175
    --------------------------------------------
      LOOP:  cpu time   33.9811: real time   34.2475

 eigenvalue-minimisations  :     0
 total energy-change (2. order) :-0.2307529E-04  (-0.8347943E-05)
 number of electron     216.0000000 magnetization 
 augmentation part       -0.5316476 magnetization 

 Free energy of the ion-electron system (eV)
  ---------------------------------------------------
  alpha Z        PSCENC =        47.94900195
  Ewald energy   TEWEN  =     48114.18302124
  -Hartree energ DENC   =    -55080.85384918
  -exchange      EXHF   =         0.00000000
  -V(xc)+E(xc)   XCENC  =       657.88612985
  PAW double counting   =    158808.37625578  -158666.85426351
  entropy T*S    EENTRO =        -0.00000000
  eigenvalues    EBANDS =     -2773.47570948
  atomic energy  EATOM  =      8369.52358910
  ---------------------------------------------------
  free energy    TOTEN  =      -523.26582424 eV

  energy without entropy =     -523.26582424  energy(sigma->0) =     -523.26582424


--------------------------------------------------------------------------------------------------------




--------------------------------------- Iteration      1(  19)  ---------------------------------------


    POTLOK:  cpu time    1.6909: real time    1.7007
    SETDIJ:  cpu time    0.2013: real time    0.2020
    TRIAL :  cpu time   20.0717: real time   20.2172
    CORREC:  cpu time    8.9739: real time    9.0382
    CHARGE:  cpu time    2.9940: real time    3.0169
    --------------------------------------------
      LOOP:  cpu time   33.9687: real time   34.2504

 eigenvalue-minimisations  :     0
 total energy-change (2. order) :-0.8596980E-05  (-0.2909555E-05)
 number of electron     216.0000000 magnetization 
 augmentation part       -0.5316485 magnetization 

 Free energy of the ion-electron system (eV)
  ---------------------------------------------------
  alpha Z        PSCENC =        47.94900195
  Ewald energy   TEWEN  =     48114.18302124
  -Hartree energ DENC   =    -55080.85519129
  -exchange      EXHF   =         0.00000000
  -V(xc)+E(xc)   XCENC  =       657.88593925
  PAW double counting   =    158808.44821934  -158666.92598913
  entropy T*S    EENTRO =        -0.00000000
  eigenvalues    EBANDS =     -2773.47442330
  atomic energy  EATOM  =      8369.52358910
  ---------------------------------------------------
  free energy    TOTEN  =      -523.26583284 eV

  energy without entropy =     -523.26583284  energy(sigma->0) =     -523.26583284


--------------------------------------------------------------------------------------------------------




--------------------------------------- Iteration      1(  20)  ---------------------------------------


    POTLOK:  cpu time    1.6870: real time    1.6995
    SETDIJ:  cpu time    0.2020: real time    0.2029
    TRIAL :  cpu time   20.0608: real time   20.2241
    CORREC:  cpu time    8.9662: real time    9.0316
    CHARGE:  cpu time    2.9893: real time    3.0133
    --------------------------------------------
      LOOP:  cpu time   33.9697: real time   34.2493

 eigenvalue-minimisations  :     0
 total energy-change (2. order) :-0.2987654E-05  (-0.1008321E-05)
 number of electron     216.0000000 magnetization 
 augmentation part       -0.5316463 magnetization 

 Free energy of the ion-electron system (eV)
  ---------------------------------------------------
  alpha Z        PSCENC =        47.94900195
  Ewald energy   TEWEN  =     48114.18302124
  -Hartree energ DENC   =    -55080.87328514
  -exchange      EXHF   =         0.00000000
  -V(xc)+E(xc)   XCENC  =       657.88659996
  PAW double counting   =    158816.90183530  -158675.37963414
  entropy T*S    EENTRO =        -0.00000000
  eigenvalues    EBANDS =     -2773.45696409
  atomic energy  EATOM  =      8369.52358910
  ---------------------------------------------------
  free energy    TOTEN  =      -523.26583583 eV

  energy without entropy =     -523.26583583  energy(sigma->0) =     -523.26583583


--------------------------------------------------------------------------------------------------------




--------------------------------------- Iteration      1(  21)  ---------------------------------------


    POTLOK:  cpu time    1.6882: real time    1.6977
    SETDIJ:  cpu time    0.2024: real time    0.2031
    TRIAL :  cpu time   20.0863: real time   20.2444
    CORREC:  cpu time    8.9636: real time    9.0254
    CHARGE:  cpu time    2.9992: real time    3.0199
    --------------------------------------------
      LOOP:  cpu time   34.0332: real time   34.2873

 eigenvalue-minimisations  :     0
 total energy-change (2. order) :-0.1006207E-05  (-0.3937942E-06)
 number of electron     216.0000000 magnetization 
 augmentation part       -0.5316394 magnetization 

 Free energy of the ion-electron system (eV)
  ---------------------------------------------------
  alpha Z        PSCENC =        47.94900195
  Ewald energy   TEWEN  =     48114.18302124
  -Hartree energ DENC   =    -55080.87958953
  -exchange      EXHF   =         0.00000000
  -V(xc)+E(xc)   XCENC  =       657.88668716
  PAW double counting   =    158824.48516822  -158682.96298915
  entropy T*S    EENTRO =        -0.00000000
  eigenvalues    EBANDS =     -2773.45072582
  atomic energy  EATOM  =      8369.52358910
  ---------------------------------------------------
  free energy    TOTEN  =      -523.26583683 eV

  energy without entropy =     -523.26583683  energy(sigma->0) =     -523.26583683


--------------------------------------------------------------------------------------------------------




--------------------------------------- Iteration      1(  22)  ---------------------------------------


    POTLOK:  cpu time    1.6897: real time    1.6996
    SETDIJ:  cpu time    0.1996: real time    0.2003
    TRIAL :  cpu time   20.0662: real time   20.2385
    CORREC:  cpu time    8.9713: real time    9.0336
    CHARGE:  cpu time    2.9971: real time    3.0184
    --------------------------------------------
      LOOP:  cpu time   33.9501: real time   34.2567

 eigenvalue-minimisations  :     0
 total energy-change (2. order) :-0.3633322E-06  (-0.2232925E-06)
 number of electron     216.0000000 magnetization 
 augmentation part       -0.5316310 magnetization 

 Free energy of the ion-electron system (eV)
  ---------------------------------------------------
  alpha Z        PSCENC =        47.94900195
  Ewald energy   TEWEN  =     48114.18302124
  -Hartree energ DENC   =    -55080.87711706
  -exchange      EXHF   =         0.00000000
  -V(xc)+E(xc)   XCENC  =       657.88657890
  PAW double counting   =    158829.38665395  -158687.86452706
  entropy T*S    EENTRO =        -0.00000000
  eigenvalues    EBANDS =     -2773.45303821
  atomic energy  EATOM  =      8369.52358910
  ---------------------------------------------------
  free energy    TOTEN  =      -523.26583720 eV

  energy without entropy =     -523.26583720  energy(sigma->0) =     -523.26583720


--------------------------------------------------------------------------------------------------------




--------------------------------------- Iteration      1(  23)  ---------------------------------------


    POTLOK:  cpu time    1.6868: real time    1.6968
    SETDIJ:  cpu time    0.2136: real time    0.2144
    TRIAL :  cpu time   20.0781: real time   20.2352
    CORREC:  cpu time    8.9665: real time    9.0273
    CHARGE:  cpu time    2.9927: real time    3.0155
    --------------------------------------------
      LOOP:  cpu time   34.0072: real time   34.2608

 eigenvalue-minimisations  :     0
 total energy-change (2. order) :-0.1342851E-06  (-0.1462829E-06)
 number of electron     216.0000000 magnetization 
 augmentation part       -0.5316306 magnetization 

 Free energy of the ion-electron system (eV)
  ---------------------------------------------------
  alpha Z        PSCENC =        47.94900195
  Ewald energy   TEWEN  =     48114.18302124
  -Hartree energ DENC   =    -55080.87469340
  -exchange      EXHF   =         0.00000000
  -V(xc)+E(xc)   XCENC  =       657.88657532
  PAW double counting   =    158832.80475529  -158691.28270409
  entropy T*S    EENTRO =        -0.00000000
  eigenvalues    EBANDS =     -2773.45538275
  atomic energy  EATOM  =      8369.52358910
  ---------------------------------------------------
  free energy    TOTEN  =      -523.26583733 eV

  energy without entropy =     -523.26583733  energy(sigma->0) =     -523.26583733


--------------------------------------------------------------------------------------------------------




--------------------------------------- Iteration      1(  24)  ---------------------------------------


    POTLOK:  cpu time    1.6900: real time    1.7000
    SETDIJ:  cpu time    0.2083: real time    0.2091
    TRIAL :  cpu time   20.1047: real time   20.2585
    CORREC:  cpu time    8.9627: real time    9.0249
    CHARGE:  cpu time    2.9897: real time    3.0123
    --------------------------------------------
      LOOP:  cpu time   34.0068: real time   34.2626

 eigenvalue-minimisations  :     0
 total energy-change (2. order) : 0.7814378E-07  (-0.1752402E-06)
 number of electron     216.0000000 magnetization 
 augmentation part       -0.5316308 magnetization 

 Free energy of the ion-electron system (eV)
  ---------------------------------------------------
  alpha Z        PSCENC =        47.94900195
  Ewald energy   TEWEN  =     48114.18302124
  -Hartree energ DENC   =    -55080.86802588
  -exchange      EXHF   =         0.00000000
  -V(xc)+E(xc)   XCENC  =       657.88635573
  PAW double counting   =    158835.84587934  -158694.32383672
  entropy T*S    EENTRO =        -0.00000000
  eigenvalues    EBANDS =     -2773.46182202
  atomic energy  EATOM  =      8369.52358910
  ---------------------------------------------------
  free energy    TOTEN  =      -523.26583725 eV

  energy without entropy =     -523.26583725  energy(sigma->0) =     -523.26583725


--------------------------------------------------------------------------------------------------------




--------------------------------------- Iteration      1(  25)  ---------------------------------------


    POTLOK:  cpu time    1.6880: real time    1.6978
    SETDIJ:  cpu time    0.2034: real time    0.2041
    TRIAL :  cpu time   20.0954: real time   20.2467
    CORREC:  cpu time    8.9651: real time    9.0270
    CHARGE:  cpu time    2.9931: real time    3.0150
    --------------------------------------------
      LOOP:  cpu time   34.0114: real time   34.2742

 eigenvalue-minimisations  :     0
 total energy-change (2. order) :-0.8221832E-07  (-0.1017098E-06)
 number of electron     216.0000000 magnetization 
 augmentation part       -0.5316364 magnetization 

 Free energy of the ion-electron system (eV)
  ---------------------------------------------------
  alpha Z        PSCENC =        47.94900195
  Ewald energy   TEWEN  =     48114.18302124
  -Hartree energ DENC   =    -55080.87375165
  -exchange      EXHF   =         0.00000000
  -V(xc)+E(xc)   XCENC  =       657.88666292
  PAW double counting   =    158834.81907678  -158693.29706331
  entropy T*S    EENTRO =        -0.00000000
  eigenvalues    EBANDS =     -2773.45637436
  atomic energy  EATOM  =      8369.52358910
  ---------------------------------------------------
  free energy    TOTEN  =      -523.26583734 eV

  energy without entropy =     -523.26583734  energy(sigma->0) =     -523.26583734


--------------------------------------------------------------------------------------------------------




--------------------------------------- Iteration      1(  26)  ---------------------------------------


    POTLOK:  cpu time    1.6891: real time    1.7004
    SETDIJ:  cpu time    0.2034: real time    0.2041
    TRIAL :  cpu time   20.0874: real time   20.2470
    CORREC:  cpu time    8.8626: real time    8.9261
    EDDIAG:  cpu time    4.1680: real time    4.1996
    CHARGE:  cpu time    3.0068: real time    3.0282
    --------------------------------------------
      LOOP:  cpu time   38.0493: real time   38.3393

 eigenvalue-minimisations  :     0
 total energy-change (2. order) :-0.6600749E-07  ( 0.1131022E-07)
 number of electron     216.0000000 magnetization 
 augmentation part       -0.5316357 magnetization 

 Free energy of the ion-electron system (eV)
  ---------------------------------------------------
  alpha Z        PSCENC =        47.94900195
  Ewald energy   TEWEN  =     48114.18302124
  -Hartree energ DENC   =    -55080.86798884
  -exchange      EXHF   =         0.00000000
  -V(xc)+E(xc)   XCENC  =       657.88632724
  PAW double counting   =    158834.25022735  -158692.72814093
  entropy T*S    EENTRO =        -0.00000000
  eigenvalues    EBANDS =     -2773.46187452
  atomic energy  EATOM  =      8369.52358910
  ---------------------------------------------------
  free energy    TOTEN  =      -523.26583740 eV

  energy without entropy =     -523.26583740  energy(sigma->0) =     -523.26583740


--------------------------------------------------------------------------------------------------------


  average scaling for gradient   0.7846


 average (electrostatic) potential at core
  the test charge radii are     0.5770  0.5955
  (the norm of the test charge is              1.0000)
       1 -87.9894       2 -87.9821       3 -87.9975       4 -88.0047       5 -87.9789
       6 -87.9743       7 -87.9862       8 -87.9603       9 -87.9753      10 -87.9733
      11 -87.9787      12 -87.9853      13 -87.9709      14 -87.9724      15 -87.9762
      16 -87.9745      17 -87.9821      18 -87.9836      19 -87.9877      20 -87.9823
      21 -87.9664      22 -87.9713      23 -87.9988      24 -87.9947      25 -87.9777
      26 -87.9802      27 -87.9755      28 -87.9929      29 -87.9735      30 -87.9775
      31 -88.0042      32 -87.9905      33 -87.9875      34 -87.9801      35 -87.9771
      36 -87.9811      37 -87.9828      38 -87.9865      39 -87.9864      40 -87.9834
      41 -87.9847      42 -87.9886      43 -87.9812      44 -87.9889      45 -87.9766
      46 -87.9746      47 -87.9844      48 -87.9804      49 -87.9851      50 -87.9834
      51 -91.8155      52-124.1812      53-124.1886
 
 
 
 E-fermi :  -4.4056     XC(G=0):  -1.8416     alpha+bet : -1.6890

 Fermi energy:        -4.4056279119

 k-point     1 :       0.0000    0.0000    0.0000
  band No.  band energies     occupation 
      1     -29.1021      2.00000
      2     -27.9921      2.00000
      3     -23.6902      2.00000
      4     -22.7110      2.00000
      5     -22.7019      2.00000
      6     -22.6948      2.00000
      7     -22.6939      2.00000
      8     -22.6911      2.00000
      9     -22.6865      2.00000
     10     -20.7599      2.00000
     11     -20.7560      2.00000
     12     -20.7486      2.00000
     13     -20.7470      2.00000
     14     -20.7454      2.00000
     15     -20.7451      2.00000
     16     -19.8143      2.00000
     17     -19.8108      2.00000
     18     -19.8075      2.00000
     19     -19.8052      2.00000
     20     -19.8038      2.00000
     21     -19.8031      2.00000
     22     -17.5737      2.00000
     23     -17.5714      2.00000
     24     -17.5670      2.00000
     25     -17.5660      2.00000
     26     -17.5617      2.00000
     27     -17.5609      2.00000
     28     -16.4045      2.00000
     29     -16.4026      2.00000
     30     -16.3976      2.00000
     31     -16.3972      2.00000
     32     -16.3951      2.00000
     33     -16.3945      2.00000
     34     -14.9955      2.00000
     35     -14.9941      2.00000
     36     -14.9927      2.00000
     37     -14.9903      2.00000
     38     -14.9900      2.00000
     39     -14.9896      2.00000
     40     -13.1962      2.00000
     41     -12.5040      2.00000
     42     -12.5029      2.00000
     43     -12.4983      2.00000
     44     -12.4977      2.00000
     45     -12.4976      2.00000
     46     -12.4964      2.00000
     47     -12.2980      2.00000
     48     -12.2953      2.00000
     49     -12.2930      2.00000
     50     -12.2926      2.00000
     51     -12.2882      2.00000
     52     -12.2881      2.00000
     53     -11.8593      2.00000
     54     -11.8289      2.00000
     55     -11.6518      2.00000
     56     -10.9156      2.00000
     57     -10.8304      2.00000
     58     -10.8302      2.00000
     59     -10.8285      2.00000
     60     -10.8283      2.00000
     61     -10.8272      2.00000
     62     -10.8262      2.00000
     63      -9.8057      2.00000
     64      -9.8049      2.00000
     65      -9.8026      2.00000
     66      -9.7991      2.00000
     67      -9.7969      2.00000
     68      -9.6866      2.00000
     69      -9.5046      2.00000
     70      -9.4996      2.00000
     71      -9.4978      2.00000
     72      -9.4968      2.00000
     73      -9.4958      2.00000
     74      -9.4935      2.00000
     75      -9.4934      2.00000
     76      -9.4919      2.00000
     77      -9.4898      2.00000
     78      -9.4886      2.00000
     79      -9.4878      2.00000
     80      -9.4870      2.00000
     81      -8.1431      2.00000
     82      -8.0300      2.00000
     83      -7.7552      2.00000
     84      -7.7538      2.00000
     85      -7.7529      2.00000
     86      -7.7494      2.00000
     87      -7.7477      2.00000
     88      -7.7473      2.00000
     89      -7.5664      2.00000
     90      -7.5551      2.00000
     91      -7.5509      2.00000
     92      -7.5398      2.00000
     93      -7.5356      2.00000
     94      -7.4175      2.00000
     95      -6.6206      2.00000
     96      -6.6180      2.00000
     97      -6.6078      2.00000
     98      -6.6063      2.00000
     99      -6.5970      2.00000
    100      -6.5438      2.00000
    101      -6.1812      2.00000
    102      -6.1786      2.00000
    103      -4.5268      2.00000
    104      -4.5200      2.00000
    105      -4.5131      2.00000
    106      -4.5087      2.00000
    107      -4.5061      2.00000
    108      -4.5044      2.00000
    109      -1.5456      0.00000
    110      -1.5393      0.00000
    111      -1.5208      0.00000
    112      -1.5172      0.00000
    113      -1.5150      0.00000
    114      -1.5085      0.00000
    115       0.4283      0.00000
    116       0.4478      0.00000
    117       0.4615      0.00000
    118       0.4721      0.00000
    119       0.4759      0.00000
    120       0.4807      0.00000
    121       0.6514      0.00000
    122       1.2085      0.00000
    123       1.2585      0.00000
    124       1.2937      0.00000
    125       1.5044      0.00000
    126       1.7331      0.00000
    127       2.0156      0.00000
    128       2.0468      0.00000
    129       2.0523      0.00000
    130       2.0592      0.00000
    131       2.1097      0.00000
    132       2.1610      0.00000
    133       2.3202      0.00000
    134       2.3288      0.00000
    135       2.3422      0.00000
    136       2.3435      0.00000
    137       2.3467      0.00000
    138       2.3503      0.00000
    139       2.3785      0.00000
    140       2.5578      0.00000
    141       2.6693      0.00000
    142       2.7296      0.00000
    143       2.7371      0.00000
    144       2.7391      0.00000
    145       2.7663      0.00000
    146       2.8322      0.00000
    147       2.8402      0.00000
    148       2.8430      0.00000
    149       2.8656      0.00000
    150       2.8764      0.00000
    151       3.2020      0.00000
    152       3.4319      0.00000
    153       3.5890      0.00000
    154       3.7302      0.00000
    155       3.8622      0.00000
    156       3.9052      0.00000
    157       4.0087      0.00000
    158       4.1314      0.00000
    159       4.2986      0.00000
    160       4.4285      0.00000
    161       4.6735      0.00000
    162       4.8345      0.00000
    163       4.8607      0.00000
    164       4.8654      0.00000
    165       4.8687      0.00000
    166       4.8737      0.00000
    167       4.8740      0.00000
    168       4.8878      0.00000


--------------------------------------------------------------------------------------------------------


 soft charge-density along one line, spin component           1
         0         1         2         3         4         5         6         7         8         9
 total charge-density along one line
 
 pseudopotential strength for first ion, spin component:           1
 12.639  21.267  -0.000   0.000   0.000  -0.000   0.000   0.000
 21.267  35.784  -0.000   0.000   0.000  -0.000   0.000   0.000
 -0.000  -0.000  -3.235  -0.000   0.000  -5.794   0.000   0.000
  0.000   0.000  -0.000  -3.235  -0.000   0.000  -5.794  -0.000
  0.000   0.000   0.000  -0.000  -3.235   0.000  -0.000  -5.794
 -0.000  -0.000  -5.794   0.000   0.000 -10.355   0.000   0.000
  0.000   0.000   0.000  -5.794  -0.000   0.000 -10.353  -0.000
  0.000   0.000   0.000  -0.000  -5.794   0.000  -0.000 -10.355
 total augmentation occupancy for first ion, spin component:           1
 10.263  -3.893  -0.001  -0.002   0.001   0.000   0.001  -0.000
 -3.893   1.507   0.000   0.001  -0.000  -0.000  -0.000   0.000
 -0.001   0.000   8.468  -0.009   0.000  -3.024   0.003  -0.000
 -0.002   0.001  -0.009   4.014  -0.000   0.003  -1.207   0.000
  0.001  -0.000   0.000  -0.000   8.467  -0.000   0.000  -3.024
  0.000  -0.000  -3.024   0.003  -0.000   1.092  -0.001   0.000
  0.001  -0.000   0.003  -1.207   0.000  -0.001   0.368   0.000
 -0.000   0.000  -0.000   0.000  -3.024   0.000   0.000   1.092


------------------------ aborting loop because EDIFF is reached ----------------------------------------


    FORLOC:  cpu time    0.1353: real time    0.1362
    FORNL :  cpu time    3.8098: real time    3.8418
    FORCOR:  cpu time    1.6203: real time    1.6302
    OFIELD:  cpu time    0.0029: real time    0.0029
 WARNING: Using user supplied parameters
     VDW_A1 = 0.495
     VDW_A2 = 5.731
     VDW_S8 = 0.79
     because the xc functional is not supported. Required parameters not
     defined in the INCAR file will be replaced with PBE defaults ones.


 ---------------------------------------------------------------------------------------------

         DFTD3 V3.0 Rev 1        
 IVDW         = 12
 DF unknown   
 parameters
 VDW_S6       =    1.0000
 VDW_S8       =    0.7898
 VDW_A1       =    0.4948
 VDW_A2       =    5.7308
 k1-k3        =   16.0000    1.3333   -4.0000
 VDW_RADIUS   =   50.2022 A
 VDW_CNRADIUS =   21.1671 A
 Edisp (eV)   -1.80741

 E6    (eV) :    -1.3967
 E8    (eV) :    -0.4107
 % E8        : 22.72
    FORVDW:  cpu time    0.1297: real time    0.1305

 VOLUME and BASIS-vectors are now :
 -----------------------------------------------------------------------------
  energy-cutoff  :     1000.00
  volume of cell :     3288.85
      direct lattice vectors                 reciprocal lattice vectors
    12.325000000  0.000000000  0.000000000     0.081135903  0.046843835  0.000000000
    -6.162500000 10.673763102  0.000000000     0.000000000  0.093687670  0.000000000
     0.000000000  0.000000000 25.000000000     0.000000000  0.000000000  0.040000000

  length of vectors
    12.325000000 12.325000000 25.000000000     0.093687670  0.093687670  0.040000000


 FORCES acting on ions:
    Electron-Ion                     Ewald-Force                    Non-Local-Force
 -----------------------------------------------------------------------------------------------
   0.130E+02 0.114E+02 0.248E+02   -.130E+02 -.114E+02 -.248E+02   0.143E-01 -.880E-02 0.136E-01
   0.221E+02 0.110E+02 0.335E+02   -.221E+02 -.110E+02 -.335E+02   0.242E-01 -.162E-01 -.813E-02
   0.114E+02 0.286E+02 0.429E+02   -.114E+02 -.287E+02 -.429E+02   -.162E-02 0.592E-01 0.503E-01
   0.192E+02 0.283E+02 0.743E+02   -.193E+02 -.283E+02 -.744E+02   0.853E-01 0.365E-01 0.108E+00
   0.142E+02 0.339E+01 0.249E+02   -.142E+02 -.337E+01 -.249E+02   0.181E-02 -.210E-01 -.635E-02
   0.150E+02 -.249E+01 0.255E+02   -.150E+02 0.250E+01 -.255E+02   -.292E-01 -.667E-02 -.143E-01
   0.319E+02 0.135E+02 0.622E+02   -.320E+02 -.134E+02 -.622E+02   0.602E-01 -.940E-01 -.469E-01
   0.320E+02 -.106E+02 0.675E+02   -.320E+02 0.106E+02 -.674E+02   -.237E-01 -.335E-01 -.235E+00
   -.124E+02 0.269E+02 0.448E+02   0.124E+02 -.268E+02 -.447E+02   -.248E-01 -.985E-02 -.577E-01
   -.241E+02 0.208E+02 0.732E+02   0.242E+02 -.208E+02 -.731E+02   -.720E-01 0.324E-01 -.245E+00
   0.344E+01 -.298E+01 0.196E+02   -.342E+01 0.296E+01 -.196E+02   -.836E-02 0.661E-02 -.624E-02
   0.270E+01 -.217E+01 0.182E+02   -.270E+01 0.218E+01 -.182E+02   -.179E-01 0.756E-02 0.175E-02
   0.119E+02 -.301E+02 0.788E+02   -.121E+02 0.302E+02 -.787E+02   0.119E+00 0.776E-02 -.270E+00
   0.518E+01 -.292E+02 0.439E+02   -.522E+01 0.291E+02 -.438E+02   0.327E-01 -.206E-02 -.500E-01
   -.128E+02 0.805E+01 0.244E+02   0.127E+02 -.804E+01 -.244E+02   0.202E-01 -.113E-01 -.854E-02
   -.194E+02 0.538E+01 0.293E+02   0.193E+02 -.538E+01 -.292E+02   0.312E-02 0.881E-02 -.279E-01
   -.183E+01 -.755E+00 0.174E+02   0.184E+01 0.752E+00 -.174E+02   -.424E-02 -.232E-02 0.141E-02
   0.104E+01 0.681E+01 0.187E+02   -.104E+01 -.681E+01 -.187E+02   -.103E-01 0.445E-02 0.845E-02
   -.405E+01 -.230E+02 0.317E+02   0.402E+01 0.230E+02 -.318E+02   0.377E-01 -.195E-02 0.159E-01
   -.163E+01 -.106E+02 0.208E+02   0.163E+01 0.106E+02 -.208E+02   0.435E-02 -.539E-02 -.199E-02
   0.234E+02 -.101E+02 0.369E+02   -.233E+02 0.101E+02 -.369E+02   -.111E-01 -.468E-02 -.547E-01
   0.134E+02 -.116E+02 0.277E+02   -.133E+02 0.116E+02 -.277E+02   -.184E-01 0.249E-01 -.163E-01
   -.589E+01 0.143E+02 0.101E+03   0.602E+01 -.144E+02 -.101E+03   -.132E+00 0.898E-01 -.790E-01
   -.117E+02 -.228E+02 0.934E+02   0.116E+02 0.229E+02 -.935E+02   0.916E-01 -.101E+00 -.258E-01
   0.596E+01 -.268E+01 0.198E+02   -.593E+01 0.267E+01 -.198E+02   -.159E-01 0.371E-02 -.102E-01
   0.106E+01 0.536E+01 0.200E+02   -.105E+01 -.536E+01 -.200E+02   -.146E-01 0.634E-02 -.187E-02
   -.313E+02 0.335E+01 0.506E+02   0.313E+02 -.341E+01 -.505E+02   0.356E-02 0.369E-01 -.751E-01
   -.279E+02 -.122E+02 0.442E+02   0.280E+02 0.122E+02 -.442E+02   -.469E-01 0.448E-01 0.251E-01
   0.816E+01 -.168E+02 0.292E+02   -.816E+01 0.168E+02 -.291E+02   0.856E-02 0.165E-01 -.216E-01
   0.758E+00 -.599E+01 0.212E+02   -.775E+00 0.597E+01 -.212E+02   0.518E-02 0.136E-01 -.102E-01
   -.234E+02 -.254E+02 0.565E+02   0.234E+02 0.255E+02 -.566E+02   -.655E-01 -.441E-01 0.969E-01
   -.125E+02 -.227E+02 0.343E+02   0.125E+02 0.227E+02 -.344E+02   -.883E-03 -.355E-01 0.265E-01
   0.675E+00 0.281E+01 0.180E+02   -.679E+00 -.281E+01 -.180E+02   0.125E-01 -.102E-01 0.384E-02
   0.197E+01 0.287E+01 0.196E+02   -.197E+01 -.285E+01 -.195E+02   0.106E-02 -.830E-02 -.660E-02
   -.884E+01 0.104E+01 0.217E+02   0.883E+01 -.105E+01 -.217E+02   0.139E-01 0.262E-02 -.377E-02
   -.753E+01 -.298E+01 0.210E+02   0.754E+01 0.298E+01 -.210E+02   -.120E-01 0.103E-01 -.461E-02
   -.156E+02 -.815E+01 0.256E+02   0.156E+02 0.814E+01 -.256E+02   -.190E-01 0.424E-02 -.124E-02
   -.875E+01 -.713E+01 0.206E+02   0.876E+01 0.712E+01 -.207E+02   -.118E-01 0.382E-02 0.100E-01
   -.828E+01 -.109E+02 0.224E+02   0.829E+01 0.109E+02 -.224E+02   -.124E-01 -.106E-01 0.618E-02
   -.121E+01 -.253E+01 0.186E+02   0.120E+01 0.254E+01 -.186E+02   0.976E-03 -.204E-02 0.803E-02
   0.310E+01 0.736E+01 0.196E+02   -.310E+01 -.738E+01 -.196E+02   -.345E-02 0.121E-01 0.753E-02
   0.106E+02 0.165E+02 0.267E+02   -.106E+02 -.165E+02 -.267E+02   0.148E-01 0.172E-01 0.137E-01
   0.831E+00 0.133E+02 0.222E+02   -.821E+00 -.134E+02 -.222E+02   -.881E-02 0.107E-01 -.234E-02
   0.301E+00 0.264E+02 0.359E+02   -.264E+00 -.264E+02 -.359E+02   -.470E-01 0.114E-01 0.183E-01
   -.254E+01 0.508E+01 0.212E+02   0.254E+01 -.507E+01 -.212E+02   0.111E-02 -.973E-02 -.783E-02
   -.110E+02 0.141E+02 0.277E+02   0.110E+02 -.141E+02 -.277E+02   -.560E-02 -.485E-02 -.215E-01
   -.176E+01 -.500E+01 0.194E+02   0.175E+01 0.500E+01 -.194E+02   0.165E-01 0.320E-04 0.914E-03
   -.468E+01 0.193E+01 0.185E+02   0.466E+01 -.192E+01 -.185E+02   0.128E-01 -.214E-02 -.866E-02
   0.346E+00 -.310E+01 0.182E+02   -.344E+00 0.309E+01 -.182E+02   0.841E-02 -.293E-02 0.536E-02
   0.490E+01 0.361E+01 0.185E+02   -.490E+01 -.361E+01 -.185E+02   0.440E-02 0.591E-02 0.359E-02
   0.297E+00 -.175E+00 -.425E+03   -.279E+00 0.160E+00 0.426E+03   -.284E-01 0.131E-01 -.642E-01
   -.228E+03 0.155E+03 -.652E+03   0.279E+03 -.190E+03 0.655E+03   -.520E+02 0.355E+02 -.271E+01
   0.229E+03 -.155E+03 -.629E+03   -.279E+03 0.190E+03 0.626E+03   0.520E+02 -.355E+02 0.390E+01
 -----------------------------------------------------------------------------------------------
   0.612E-01 0.230E-02 -.227E+00   0.568E-13 -.142E-12 0.568E-12   -.613E-01 -.265E-02 0.232E+00
 
 
 POSITION                                       TOTAL-FORCE (eV/Angst)
 -----------------------------------------------------------------------------------
     11.98348      0.00342      0.01417         0.001291     -0.002027     -0.000893
     -0.34154      1.42665      0.01100         0.009602      0.007515      0.000943
      2.12355      0.00315      0.01249         0.005038     -0.016792      0.009404
      2.12326      1.42653      0.00641        -0.004801      0.008126     -0.020576
     10.75099      2.13819      0.01213        -0.000090     -0.003151      0.002608
     -1.57382      3.56123      0.01110        -0.006901      0.007165      0.001543
      0.89078      2.13854      0.00548        -0.018806      0.011666     -0.024115
      0.89099      3.56147      0.00181        -0.016441      0.021915     -0.078822
      4.58864      0.00346      0.01135         0.010479      0.034129     -0.004368
      4.58894      1.42623      0.00646         0.021304     -0.019361     -0.109173
      9.51854      4.27281      0.01369         0.009281     -0.012837      0.000190
     -2.80632      5.69591      0.01434        -0.014119      0.007883      0.001010
      2.12300      4.27302      0.00000        -0.020514      0.044456     -0.137390
      2.12335      5.69594      0.00581        -0.006423     -0.043895     -0.003385
      7.05344      0.00333      0.01399         0.003540     -0.001541      0.002475
      7.05353      1.42635      0.01368        -0.006829      0.005943      0.000725
      8.28610      6.40752      0.01601         0.005293     -0.005123     -0.000579
     -4.03885      7.83070      0.01636        -0.006459      0.007230     -0.000334
      3.35586      6.40753      0.01007         0.010054      0.003660      0.004123
      3.35599      7.83072      0.01320        -0.002449     -0.004451      0.000258
     -0.34146      4.27290      0.00723         0.028738     -0.017677     -0.000289
     -0.34138      5.69591      0.00946        -0.006776      0.006406      0.004962
      3.35624      2.13791      0.00222         0.006525     -0.013295     -0.204918
      3.35573      3.56155      0.00139         0.004968      0.022286     -0.135154
     -1.57395      6.40758      0.01311         0.015455     -0.002293     -0.000948
     -1.57385      7.83068      0.01438        -0.005596      0.004274      0.000124
      5.82093      2.13784      0.01033        -0.019126     -0.022922     -0.012588
      5.82114      3.56097      0.01156         0.001621     -0.000261      0.008867
      0.89092      6.40755      0.00907        -0.000037      0.000276      0.004455
      0.89106      7.83068      0.01235        -0.011748     -0.003711      0.000169
      4.58871      4.27293      0.00850         0.000309     -0.011244      0.009214
      4.58852      5.69606      0.01149        -0.000363      0.017350      0.003080
      9.51845      0.00337      0.01490         0.008753     -0.008300      0.000271
      9.51855      1.42644      0.01438        -0.004439      0.013925     -0.000639
      8.28593      2.13803      0.01453         0.002276     -0.008446      0.001005
      8.28613      3.56115      0.01464        -0.005080      0.002038      0.000208
      7.05356      4.27269      0.01457         0.000008     -0.001842      0.001020
      7.05362      5.69588      0.01553        -0.003384      0.001231     -0.000505
      5.82112      6.40755      0.01489        -0.001990     -0.001286     -0.000877
      5.82102      7.83073      0.01579        -0.003924      0.004720     -0.000524
      7.05363      8.54227      0.01631         0.002051     -0.002702      0.000732
     -5.27149      9.96549      0.01495        -0.000963     -0.000582     -0.002484
     -2.80638      8.54234      0.01558         0.001688      0.002149     -0.000598
     -2.80627      9.96553      0.01362        -0.010101     -0.001640      0.005553
     -0.34149      8.54239      0.01378         0.007209      0.000664      0.000458
     -0.34138      9.96550      0.01354        -0.006986      0.004201      0.002904
      2.12343      8.54232      0.01336         0.008081     -0.000148      0.000915
      2.12354      9.96544      0.01469        -0.009489      0.003040     -0.002385
      4.58846      8.54235      0.01505         0.010655     -0.007986      0.000993
      4.58853      9.96550      0.01517        -0.001865      0.006851      0.000639
      3.04930      2.68154      2.80616        -0.010147     -0.001915      0.121109
      4.02070      2.02068      2.87058        -1.387209      0.973654      0.156746
      2.07767      3.34267      2.74670         1.418836     -1.007323      0.394837
 -----------------------------------------------------------------------------------
    total drift:                               -0.000093     -0.000347      0.005147


--------------------------------------------------------------------------------------------------------



  FREE ENERGIE OF THE ION-ELECTRON SYSTEM (eV)
  ---------------------------------------------------
  free  energy   TOTEN  =      -525.07324622 eV

  energy  without entropy=     -525.07324622  energy(sigma->0) =     -525.07324622
 


--------------------------------------------------------------------------------------------------------


    POTLOK:  cpu time    1.8969: real time    1.9070


--------------------------------------------------------------------------------------------------------


 writing wavefunctions
     LOOP+:  cpu time  928.5912: real time  936.2387
    4ORBIT:  cpu time    0.0000: real time    0.0000

 total amount of memory used by VASP MPI-rank0   698619. kBytes
=======================================================================

   base      :      30000. kBytes
   nonl-proj :     230539. kBytes
   fftplans  :      40716. kBytes
   grid      :     363125. kBytes
   one-center:        162. kBytes
   wavefun   :      34077. kBytes
 
  
  
 General timing and accounting informations for this job:
 ========================================================
  
                  Total CPU time used (sec):      971.034
                            User time (sec):      944.370
                          System time (sec):       26.664
                         Elapsed time (sec):      980.055
  
                   Maximum memory used (kb):     1277052.
                   Average memory used (kb):          N/A
  
                          Minor page faults:       204750
                          Major page faults:          100
                 Voluntary context switches:         3701
