 vasp.6.2.1 16May21 (build Nov 06 2021 14:46:37) complex                        
  
 executed on             LinuxIFC date 2025.04.16  23:04:03
 running on  112 total cores
 distrk:  each k-point on   56 cores,    2 groups
 distr:  one band on NCORE=   1 cores,   56 groups


--------------------------------------------------------------------------------------------------------


 INCAR:
   ALGO = Conjugate
   KPAR = 2
   NCORE = 32
   ISMEAR = 0
   SIGMA = 0.01
   PREC = Accurate
   EDIFF = 1E-7
   ENCUT = 1000
   ISIF = 0
   METAGGA = R2SCAN
   LASPH = .TRUE.
   IVDW = 12
   VDW_S8 = 0.7898
   VDW_A1 = 0.4948
   VDW_A2 = 5.7308
   SYMPREC = 1E-7

 POTCAR:    PAW_PBE C_h 06Feb2004                 
 POTCAR:    PAW_PBE O_h 06Feb2004                 
 -----------------------------------------------------------------------------
|                                                                             |
|           W    W    AA    RRRRR   N    N  II  N    N   GGGG   !!!           |
|           W    W   A  A   R    R  NN   N  II  NN   N  G    G  !!!           |
|           W    W  A    A  R    R  N N  N  II  N N  N  G       !!!           |
|           W WW W  AAAAAA  RRRRR   N  N N  II  N  N N  G  GGG   !            |
|           WW  WW  A    A  R   R   N   NN  II  N   NN  G    G                |
|           W    W  A    A  R    R  N    N  II  N    N   GGGG   !!!           |
|                                                                             |
|     The value NCORE = 32 specified in the INCAR file was overwritten,       |
|     because it was not compatible with the 56 processes available:          |
|     NCORE = 1                                                               |
|     was used instead, please check that this makes sense for your           |
|     machine.                                                                |
|                                                                             |
 -----------------------------------------------------------------------------

 -----------------------------------------------------------------------------
|                                                                             |
|           W    W    AA    RRRRR   N    N  II  N    N   GGGG   !!!           |
|           W    W   A  A   R    R  NN   N  II  NN   N  G    G  !!!           |
|           W    W  A    A  R    R  N N  N  II  N N  N  G       !!!           |
|           W WW W  AAAAAA  RRRRR   N  N N  II  N  N N  G  GGG   !            |
|           WW  WW  A    A  R   R   N   NN  II  N   NN  G    G                |
|           W    W  A    A  R    R  N    N  II  N    N   GGGG   !!!           |
|                                                                             |
|     For optimal performance we recommend to set                             |
|       NCORE = 2 up to number-of-cores-per-socket                            |
|     NCORE specifies how many cores store one orbital (NPAR=cpu/NCORE).      |
|     This setting can greatly improve the performance of VASP for DFT.       |
|     The default, NCORE=1 might be grossly inefficient on modern             |
|     multi-core architectures or massively parallel machines. Do your        |
|     own testing! More info at https://www.vasp.at/wiki/index.php/NCORE      |
|     Unfortunately you need to use the default for GW and RPA                |
|     calculations (for HF NCORE is supported but not extensively tested      |
|     yet).                                                                   |
|                                                                             |
 -----------------------------------------------------------------------------

 POTCAR:    PAW_PBE C_h 06Feb2004                 
   VRHFIN =C: s2p2                                                                                  
   LEXCH  = PE                                                                                      
   EATOM  =   147.1560 eV,   10.8157 Ry                                                             
                                                                                                    
   TITEL  = PAW_PBE C_h 06Feb2004                                                                   
   LULTRA =        F    use ultrasoft PP ?                                                          
   IUNSCR =        1    unscreen: 0-lin 1-nonlin 2-no                                               
   RPACOR =    0.800    partial core radius                                                         
   POMASS =   12.011; ZVAL   =    4.000    mass and valenz                                          
   RCORE  =    1.100    outmost cutoff radius                                                       
   RWIGS  =    1.630; RWIGS  =    0.863    wigner-seitz radius (au A)                               
   ENMAX  =  700.000; ENMIN  =  500.000 eV                                                          
   ICORE  =        2    local potential                                                             
   LCOR   =        T    correct aug charges                                                         
   LPAW   =        T    paw PP                                                                      
   EAUG   =  946.768                                                                                
   DEXC   =    0.000                                                                                
   RMAX   =    1.128    core radius for proj-oper                                                   
   RAUG   =    1.300    factor for augmentation sphere                                              
   RDEP   =    1.162    radius for radial grids                                                     
   RDEPT  =    1.088    core radius for aug-charge                                                  
                                                                                                    
   Atomic configuration                                                                             
    4 entries                                                                                       
     n  l   j            E        occ.                                                              
     1  0  0.50      -273.3789   2.0000                                                             
     2  0  0.50       -13.7508   2.0000                                                             
     2  1  0.50        -5.2854   2.0000                                                             
     3  2  1.50        -5.4423   0.0000                                                             
   Description                                                                                      
     l       E           TYP  RCUT    TYP  RCUT                                                     
     0    -13.7508458     23  1.100                                                                 
     0     -8.2022199     23  1.100                                                                 
     1     -5.2854383     23  1.100                                                                 
     1      1.1560700     23  1.100                                                                 
     2     -5.4423304      7  1.100                                                                 
  local pseudopotential read in
  partial core-charges read in
  partial kinetic energy density read in
  atomic valenz-charges read in
  non local Contribution for L=           0  read in
    real space projection operators read in
  non local Contribution for L=           0  read in
    real space projection operators read in
  non local Contribution for L=           1  read in
    real space projection operators read in
  non local Contribution for L=           1  read in
    real space projection operators read in
    PAW grid and wavefunctions read in
 
   number of l-projection  operators is LMAX  =           4
   number of lm-projection operators is LMMAX =           8
 
 POTCAR:    PAW_PBE O_h 06Feb2004                 
   VRHFIN =O: s2p4                                                                                  
   LEXCH  = PE                                                                                      
   EATOM  =   432.3788 eV,   31.7789 Ry                                                             
                                                                                                    
   TITEL  = PAW_PBE O_h 06Feb2004                                                                   
   LULTRA =        F    use ultrasoft PP ?                                                          
   IUNSCR =        1    unscreen: 0-lin 1-nonlin 2-no                                               
   RPACOR =    0.800    partial core radius                                                         
   POMASS =   16.000; ZVAL   =    6.000    mass and valenz                                          
   RCORE  =    1.100    outmost cutoff radius                                                       
   RWIGS  =    1.400; RWIGS  =    0.741    wigner-seitz radius (au A)                               
   ENMAX  =  700.000; ENMIN  =  500.000 eV                                                          
   ICORE  =        2    local potential                                                             
   LCOR   =        T    correct aug charges                                                         
   LPAW   =        T    paw PP                                                                      
   EAUG   =  888.804                                                                                
   DEXC   =    0.000                                                                                
   RMAX   =    1.128    core radius for proj-oper                                                   
   RAUG   =    1.300    factor for augmentation sphere                                              
   RDEP   =    1.125    radius for radial grids                                                     
   RDEPT  =    1.088    core radius for aug-charge                                                  
                                                                                                    
   Atomic configuration                                                                             
    4 entries                                                                                       
     n  l   j            E        occ.                                                              
     1  0  0.50      -514.6923   2.0000                                                             
     2  0  0.50       -23.9615   2.0000                                                             
     2  1  0.50        -9.0305   4.0000                                                             
     3  2  1.50        -9.5241   0.0000                                                             
   Description                                                                                      
     l       E           TYP  RCUT    TYP  RCUT                                                     
     0    -23.9615319     23  1.100                                                                 
     0    -25.3221145     23  1.100                                                                 
     1     -9.0304911     23  1.100                                                                 
     1     -5.4802209     23  1.100                                                                 
     2     -9.5240782      7  1.100                                                                 
  local pseudopotential read in
  partial core-charges read in
  partial kinetic energy density read in
  atomic valenz-charges read in
  non local Contribution for L=           0  read in
    real space projection operators read in
  non local Contribution for L=           0  read in
    real space projection operators read in
  non local Contribution for L=           1  read in
    real space projection operators read in
  non local Contribution for L=           1  read in
    real space projection operators read in
    PAW grid and wavefunctions read in
 
   number of l-projection  operators is LMAX  =           4
   number of lm-projection operators is LMMAX =           8
 
 -----------------------------------------------------------------------------
|                                                                             |
|               ----> ADVICE to this user running VASP <----                  |
|                                                                             |
|     You have a (more or less) 'large supercell' and for larger cells it     |
|     might be more efficient to use real-space projection operators.         |
|     Therefore, try LREAL= Auto in the INCAR file.                           |
|     Mind: For very accurate calculation, you might also keep the            |
|     reciprocal projection scheme (i.e. LREAL=.FALSE.).                      |
|                                                                             |
 -----------------------------------------------------------------------------

  PAW_PBE C_h 06Feb2004                 :
 energy of atom  1       EATOM= -147.1560
 kinetic energy error for atom=    0.0031 (will be added to EATOM!!)
  PAW_PBE O_h 06Feb2004                 :
 energy of atom  2       EATOM= -432.3788
 kinetic energy error for atom=    0.0171 (will be added to EATOM!!)
 
 
 POSCAR:  C  O
  positions in cartesian coordinates
  No initial velocities read in

 METAGGA = R2SCA    LMAXTAU =  6    LMIXTAU =  F

 exchange correlation table for  LEXCH =        8
   RHO(1)=    0.500       N(1)  =     2000
   RHO(2)=  100.500       N(2)  =     4000
 


--------------------------------------------------------------------------------------------------------


 ion  position               nearest neighbor table
   1  0.972  0.000  0.001-  50 1.42   2 1.42  42 1.42
   2  0.039  0.134  0.000-   5 1.42   7 1.42   1 1.42
   3  0.172  0.000  0.000-  42 1.42  44 1.42   4 1.42
   4  0.239  0.134  0.000-   7 1.42   3 1.42  23 1.42
   5  0.972  0.200  0.000-   6 1.42   2 1.42  34 1.42
   6  0.039  0.334  0.000-   5 1.42  21 1.42  11 1.42
   7  0.172  0.200  0.000-   8 1.42   2 1.42   4 1.42
   8  0.239  0.334  0.000-  13 1.42   7 1.42  21 1.42
   9  0.372  0.000  0.000-  10 1.42  44 1.42  46 1.42
  10  0.439  0.134  0.000-  27 1.42   9 1.42  23 1.42
  11  0.972  0.400  0.001-  12 1.42  36 1.42   6 1.42
  12  0.039  0.534  0.001-  25 1.42  11 1.42  17 1.42
  13  0.372  0.400  0.000-   8 1.42  14 1.42  24 1.42
  14  0.439  0.534  0.000-  13 1.42  29 1.42  19 1.42
  15  0.572  0.000  0.001-  46 1.42  16 1.42  48 1.42
  16  0.639  0.134  0.001-  15 1.42  35 1.42  27 1.42
  17  0.972  0.600  0.001-  38 1.42  18 1.42  12 1.42
  18  0.039  0.734  0.001-  43 1.42  41 1.42  17 1.42
  19  0.572  0.600  0.000-  14 1.42  20 1.42  32 1.42
  20  0.639  0.734  0.001-  49 1.42  19 1.42  47 1.42
  21  0.172  0.400  0.000-  22 1.42   8 1.42   6 1.42
  22  0.239  0.534  0.000-  21 1.42  29 1.42  25 1.42
  23  0.372  0.200  0.000-  10 1.42   4 1.42  24 1.42
  24  0.439  0.334  0.000-  13 1.42  31 1.42  23 1.42
  25  0.172  0.600  0.001-  26 1.42  12 1.42  22 1.42
  26  0.239  0.734  0.001-  25 1.42  45 1.42  43 1.42
  27  0.572  0.200  0.000-  10 1.42  28 1.42  16 1.42
  28  0.639  0.334  0.000-  27 1.42  37 1.42  31 1.42
  29  0.372  0.600  0.000-  22 1.42  14 1.42  30 1.42
  30  0.439  0.734  0.000-  47 1.42  29 1.42  45 1.42
  31  0.572  0.400  0.000-  32 1.42  28 1.42  24 1.42
  32  0.639  0.534  0.000-  31 1.42  39 1.42  19 1.42
  33  0.772  0.000  0.001-  34 1.42  48 1.42  50 1.42
  34  0.839  0.134  0.001-  33 1.42   5 1.42  35 1.42
  35  0.772  0.200  0.001-  36 1.42  16 1.42  34 1.42
  36  0.839  0.334  0.001-  35 1.42  11 1.42  37 1.42
  37  0.772  0.400  0.001-  28 1.42  38 1.42  36 1.42
  38  0.839  0.534  0.001-  17 1.42  37 1.42  39 1.42
  39  0.772  0.600  0.001-  40 1.42  38 1.42  32 1.42
  40  0.839  0.734  0.001-  39 1.42  49 1.42  41 1.42
  41  0.972  0.800  0.001-  18 1.42  42 1.42  40 1.42
  42  0.039  0.934  0.001-   3 1.42  41 1.42   1 1.42
  43  0.172  0.800  0.001-  18 1.42  44 1.42  26 1.42
  44  0.239  0.934  0.001-   9 1.42  43 1.42   3 1.42
  45  0.372  0.800  0.001-  26 1.42  46 1.42  30 1.42
  46  0.439  0.934  0.001-  15 1.42  45 1.42   9 1.42
  47  0.572  0.800  0.001-  30 1.42  48 1.42  20 1.42
  48  0.639  0.934  0.001-  47 1.42  33 1.42  15 1.42
  49  0.772  0.800  0.001-  50 1.42  20 1.42  40 1.42
  50  0.839  0.934  0.001-  49 1.42   1 1.42  33 1.42
  51  0.373  0.251  0.336-  52 1.18  53 1.18
  52  0.421  0.189  0.339-  51 1.18
  53  0.325  0.313  0.334-  51 1.18
 
  LATTYP: Found a hexagonal cell.
 ALAT       =    12.3250000000
 C/A-ratio  =     2.0283975659
  
  Lattice vectors:
  
 A1 = (  12.3250000000,   0.0000000000,   0.0000000000)
 A2 = (  -6.1625000000,  10.6737631016,   0.0000000000)
 A3 = (   0.0000000000,   0.0000000000,  25.0000000000)


Analysis of symmetry for initial positions (statically):
=====================================================================
 Subroutine PRICEL returns:
 Original cell was already a primitive cell.
 

 Routine SETGRP: Setting up the symmetry group for a 
 hexagonal supercell.


 Subroutine GETGRP returns: Found  1 space group operations
 (whereof  1 operations were pure point group operations)
 out of a pool of 24 trial point group operations.


The static configuration has the point symmetry C_1 .


Analysis of symmetry for dynamics (positions and initial velocities):
=====================================================================
 Subroutine PRICEL returns:
 Original cell was already a primitive cell.
 

 Routine SETGRP: Setting up the symmetry group for a 
 hexagonal supercell.


 Subroutine GETGRP returns: Found  1 space group operations
 (whereof  1 operations were pure point group operations)
 out of a pool of 24 trial point group operations.


The dynamic configuration has the point symmetry C_1 .


 Subroutine INISYM returns: Found  1 space group operations
 (whereof  1 operations are pure point group operations),
 and found     1 'primitive' translations


----------------------------------------------------------------------------------------

                                     Primitive cell                                     

  volume of cell :    3288.8533

  direct lattice vectors                    reciprocal lattice vectors
    12.325000000  0.000000000  0.000000000     0.081135903  0.046843835  0.000000000
    -6.162500000 10.673763102  0.000000000     0.000000000  0.093687670  0.000000000
     0.000000000  0.000000000 25.000000000     0.000000000  0.000000000  0.040000000

  length of vectors
    12.325000000 12.325000000 25.000000000     0.093687670  0.093687670  0.040000000

  position of ions in fractional coordinates (direct lattice)
     0.972450841  0.000320818  0.000566711
     0.039118382  0.133659505  0.000440173
     0.172443627  0.000295449  0.000499628
     0.239096278  0.133647917  0.000256468
     0.972452058  0.200322012  0.000485219
     0.039128360  0.333643771  0.000444150
     0.172451764  0.200354552  0.000219167
     0.239124359  0.333665720  0.000072260
     0.372465565  0.000324403  0.000453913
     0.439137473  0.133619939  0.000258338
     0.972449824  0.400309362  0.000547611
     0.039124981  0.533636789  0.000573410
     0.372416176  0.400329481  0.000000000
     0.439099602  0.533638981  0.000232414
     0.572443676  0.000312125  0.000559580
     0.639110207  0.133631751  0.000547275
     0.972452703  0.600305653  0.000640289
     0.039124495  0.733640359  0.000654513
     0.572433471  0.600306242  0.000402895
     0.639111888  0.733641879  0.000527905
     0.172454630  0.400318228  0.000289045
     0.239120185  0.533636548  0.000378509
     0.372459750  0.200295993  0.000088997
     0.439107096  0.333673419  0.000055762
     0.172452155  0.600311506  0.000524340
     0.239123371  0.733638574  0.000575129
     0.572431082  0.200289171  0.000413296
     0.639112773  0.333618630  0.000462376
     0.372439808  0.600308022  0.000362844
     0.439116090  0.733637858  0.000494190
     0.572469358  0.400320504  0.000339918
     0.639119408  0.533650873  0.000459610
     0.772445723  0.000315427  0.000596161
     0.839116277  0.133640203  0.000575306
     0.772440513  0.200307432  0.000581033
     0.839120241  0.333635728  0.000585467
     0.772446320  0.400298367  0.000582978
     0.839118980  0.533633964  0.000621100
     0.772456143  0.600308173  0.000595712
     0.839115033  0.733643180  0.000631512
     0.972455313  0.800305582  0.000652233
     0.039114714  0.933643289  0.000598051
     0.172457971  0.800312211  0.000623372
     0.239134551  0.933647193  0.000544850
     0.372451396  0.800316674  0.000551399
     0.439124489  0.933644769  0.000541430
     0.572441101  0.800310054  0.000534535
     0.639115067  0.933638985  0.000587644
     0.772445098  0.800313187  0.000602062
     0.839116614  0.933644338  0.000606830
     0.373021009  0.251226878  0.336358566
     0.420879805  0.189313152  0.338935440
     0.325156981  0.313167186  0.333980371

  ion indices of the primitive-cell ions
   primitive index   ion index
                 1           1
                 2           2
                 3           3
                 4           4
                 5           5
                 6           6
                 7           7
                 8           8
                 9           9
                10          10
                11          11
                12          12
                13          13
                14          14
                15          15
                16          16
                17          17
                18          18
                19          19
                20          20
                21          21
                22          22
                23          23
                24          24
                25          25
                26          26
                27          27
                28          28
                29          29
                30          30
                31          31
                32          32
                33          33
                34          34
                35          35
                36          36
                37          37
                38          38
                39          39
                40          40
                41          41
                42          42
                43          43
                44          44
                45          45
                46          46
                47          47
                48          48
                49          49
                50          50
                51          51
                52          52
                53          53

----------------------------------------------------------------------------------------

 
 
 KPOINTS: auto                                    

Automatic generation of k-mesh.
 Grid dimensions read from file:
 generate k-points for:    1    1    1

 Generating k-lattice:

  Cartesian coordinates                     Fractional coordinates (reciprocal lattice)
     0.081135903  0.046843835  0.000000000     1.000000000 -0.000000000  0.000000000
     0.000000000  0.093687670  0.000000000     0.000000000  1.000000000  0.000000000
     0.000000000  0.000000000  0.040000000     0.000000000  0.000000000  1.000000000

  Length of vectors
     0.093687670  0.093687670  0.040000000

  Shift w.r.t. Gamma in fractional coordinates (k-lattice)
     0.000000000  0.000000000  0.000000000

 
 Subroutine IBZKPT returns following result:
 ===========================================
 
 Found      1 irreducible k-points:
 
 Following reciprocal coordinates:
            Coordinates               Weight
  0.000000  0.000000  0.000000      1.000000
 
 Following cartesian coordinates:
            Coordinates               Weight
  0.000000  0.000000  0.000000      1.000000
 


--------------------------------------------------------------------------------------------------------




 Dimension of arrays:
   k-points           NKPTS =      1   k-points in BZ     NKDIM =      1   number of bands    NBANDS=    168
   number of dos      NEDOS =    301   number of ions     NIONS =     53
   non local maximal  LDIM  =      4   non local SUM 2l+1 LMDIM =      8
   total plane-waves  NPLWV = ******
   max r-space proj   IRMAX =      1   max aug-charges    IRDMAX=  10008
   dimension x,y,z NGX =   128 NGY =  128 NGZ =  270
   dimension x,y,z NGXF=   256 NGYF=  256 NGZF=  540
   support grid    NGXF=   256 NGYF=  256 NGZF=  540
   ions per type =              51   2
   NGX,Y,Z   is equivalent  to a cutoff of  17.27, 17.27, 17.95 a.u.
   NGXF,Y,Z  is equivalent  to a cutoff of  34.53, 34.53, 35.91 a.u.

 SYSTEM =  unknown system                          
 POSCAR =   C  O                                   

 Startparameter for this run:
   NWRITE =      2    write-flag & timer
   PREC   = accura    normal or accurate (medium, high low for compatibility)
   ISTART =      0    job   : 0-new  1-cont  2-samecut
   ICHARG =      2    charge: 1-file 2-atom 10-const
   ISPIN  =      1    spin polarized calculation?
   LNONCOLLINEAR =      F non collinear calculations
   LSORBIT =      F    spin-orbit coupling
   INIWAV =      1    electr: 0-lowe 1-rand  2-diag
   LASPH  =      T    aspherical Exc in radial PAW
 Electronic Relaxation 1
   ENCUT  = 1000.0 eV  73.50 Ry    8.57 a.u.  31.78 31.78 64.46*2*pi/ulx,y,z
   ENINI  = 1000.0     initial cutoff
   ENAUG  =  946.8 eV  augmentation charge cutoff
   NELM   =     60;   NELMIN=  2; NELMDL= -5     # of ELM steps 
   EDIFF  = 0.1E-06   stopping-criterion for ELM
   LREAL  =      F    real-space projection
   NLSPLINE    = F    spline interpolate recip. space projectors
   LCOMPAT=      F    compatible to vasp.4.4
   GGA_COMPAT  = T    GGA compatible to vasp.4.4-vasp.4.6
   LMAXPAW     = -100 max onsite density
   LMAXMIX     =    2 max onsite mixed and CHGCAR
   VOSKOWN=      0    Vosko Wilk Nusair interpolation
   ROPT   =    0.00000   0.00000
 Ionic relaxation
   EDIFFG = 0.1E-05   stopping-criterion for IOM
   NSW    =      0    number of steps for IOM
   NBLOCK =      1;   KBLOCK =      1    inner block; outer block 
   IBRION =     -1    ionic relax: 0-MD 1-quasi-New 2-CG
   NFREE  =      0    steps in history (QN), initial steepest desc. (CG)
   ISIF   =      0    stress and relaxation
   IWAVPR =     10    prediction:  0-non 1-charg 2-wave 3-comb
   ISYM   =      2    0-nonsym 1-usesym 2-fastsym
   LCORR  =      T    Harris-Foulkes like correction to forces

   POTIM  = 0.5000    time-step for ionic-motion
   TEIN   =    0.0    initial temperature
   TEBEG  =    0.0;   TEEND  =   0.0 temperature during run
   SMASS  =  -3.00    Nose mass-parameter (am)
   estimated Nose-frequenzy (Omega)   =  0.10E-29 period in steps = 0.13E+47 mass=  -0.347E-26a.u.
   SCALEE = 1.0000    scale energy and forces
   NPACO  =    256;   APACO  = 16.0  distance and # of slots for P.C.
   PSTRESS=    0.0 pullay stress

  Mass of Ions in am
   POMASS =  12.01 16.00
  Ionic Valenz
   ZVAL   =   4.00  6.00
  Atomic Wigner-Seitz radii
   RWIGS  =  -1.00 -1.00
  virtual crystal weights 
   VCA    =   1.00  1.00
   NELECT =     216.0000    total number of electrons
   NUPDOWN=      -1.0000    fix difference up-down

 DOS related values:
   EMIN   =  10.00;   EMAX   =-10.00  energy-range for DOS
   EFERMI =   0.00
   ISMEAR =     0;   SIGMA  =   0.01  broadening in eV -4-tet -1-fermi 0-gaus

 Electronic relaxation 2 (details)
   IALGO  =     58    algorithm
   LDIAG  =      T    sub-space diagonalisation (order eigenvalues)
   LSUBROT=      F    optimize rotation matrix (better conditioning)
   TURBO    =      0    0=normal 1=particle mesh
   IRESTART =      0    0=no restart 2=restart with 2 vectors
   NREBOOT  =      0    no. of reboots
   NMIN     =      0    reboot dimension
   EREF     =   0.00    reference energy to select bands
   IMIX   =      4    mixing-type and parameters
     AMIX     =   0.40;   BMIX     =  1.00
     AMIX_MAG =   1.60;   BMIX_MAG =  1.00
     AMIN     =   0.10
     WC   =   100.;   INIMIX=   1;  MIXPRE=   1;  MAXMIX= -45

 Intra band minimization:
   WEIMIN = 0.0000     energy-eigenvalue tresh-hold
   EBREAK =  0.15E-09  absolut break condition
   DEPER  =   0.30     relativ break condition  

   TIME   =   0.40     timestep for ELM

  volume/ion in A,a.u.               =      62.05       418.76
  Fermi-wavevector in a.u.,A,eV,Ry     =   0.660508  1.248179  5.935820  0.436270
  Thomas-Fermi vector in A             =   1.732977
 
 Write flags
   LWAVE        =      T    write WAVECAR
   LDOWNSAMPLE  =      F    k-point downsampling of WAVECAR
   LCHARG       =      T    write CHGCAR
   LVTOT        =      F    write LOCPOT, total local potential
   LVHAR        =      F    write LOCPOT, Hartree potential only
   LELF         =      F    write electronic localiz. function (ELF)
   LORBIT       =      0    0 simple, 1 ext, 2 COOP (PROOUT), +10 PAW based schemes


 Dipole corrections
   LMONO  =      F    monopole corrections only (constant potential shift)
   LDIPOL =      F    correct potential (dipole corrections)
   IDIPOL =      0    1-x, 2-y, 3-z, 4-all directions 
   EPSILON=  1.0000000 bulk dielectric constant

 Exchange correlation treatment:
   GGA     =    --    GGA type
   LEXCH   =     8    internal setting for exchange type
   VOSKOWN=      0    Vosko Wilk Nusair interpolation
   LHFCALC =     F    Hartree Fock is set to
   LHFONE  =     F    Hartree Fock one center treatment
   AEXX    =    0.0000 exact exchange contribution

 Linear response parameters
   LEPSILON=     F    determine dielectric tensor
   LRPA    =     F    only Hartree local field effects (RPA)
   LNABLA  =     F    use nabla operator in PAW spheres
   LVEL    =     F    velocity operator in full k-point grid
   LINTERFAST=   F  fast interpolation
   KINTER  =     0    interpolate to denser k-point grid
   CSHIFT  =0.1000    complex shift for real part using Kramers Kronig
   OMEGAMAX=  -1.0    maximum frequency
   DEG_THRESHOLD= 0.2000000E-02 threshold for treating states as degnerate
   RTIME   =   -0.100 relaxation time in fs
  (WPLASMAI=    0.000 imaginary part of plasma frequency in eV, 0.658/RTIME)
   DFIELD  = 0.0000000 0.0000000 0.0000000 field for delta impulse in time
 
 Orbital magnetization related:
   ORBITALMAG=     F  switch on orbital magnetization
   LCHIMAG   =     F  perturbation theory with respect to B field
   DQ        =  0.001000  dq finite difference perturbation B field
   LLRAUG    =     F  two centre corrections for induced B field



--------------------------------------------------------------------------------------------------------


 Static calculation
 charge density and potential will be updated during run
 non-spin polarized calculation
 Conjugate gradient for all bands (Freysoldt, et al. PRB 79, 241103 (2009))
 preconditioned conjugated gradient                                        
 perform sub-space diagonalisation
    before iterative eigenvector-optimisation
 modified Broyden-mixing scheme, WC =      100.0
 initial mixing is a Kerker type mixing with AMIX =  0.4000 and BMIX =      1.0000
 Hartree-type preconditioning will be used
 using additional bands           60
 reciprocal scheme for non local part
 use partial core corrections
 no Harris-corrections to forces 
 use gradient corrections 
 use of overlap-Matrix (Vanderbilt PP)
 Gauss-broadening in eV      SIGMA  =   0.01


--------------------------------------------------------------------------------------------------------


  energy-cutoff  :     1000.00
  volume of cell :     3288.85
      direct lattice vectors                 reciprocal lattice vectors
    12.325000000  0.000000000  0.000000000     0.081135903  0.046843835  0.000000000
    -6.162500000 10.673763102  0.000000000     0.000000000  0.093687670  0.000000000
     0.000000000  0.000000000 25.000000000     0.000000000  0.000000000  0.040000000

  length of vectors
    12.325000000 12.325000000 25.000000000     0.093687670  0.093687670  0.040000000


 
 k-points in units of 2pi/SCALE and weight: auto                                    
   0.00000000  0.00000000  0.00000000       1.000
 
 k-points in reciprocal lattice and weights: auto                                    
   0.00000000  0.00000000  0.00000000       1.000
 
 position of ions in fractional coordinates (direct lattice) 
   0.97245084  0.00032082  0.00056671
   0.03911838  0.13365950  0.00044017
   0.17244363  0.00029545  0.00049963
   0.23909628  0.13364792  0.00025647
   0.97245206  0.20032201  0.00048522
   0.03912836  0.33364377  0.00044415
   0.17245176  0.20035455  0.00021917
   0.23912436  0.33366572  0.00007226
   0.37246557  0.00032440  0.00045391
   0.43913747  0.13361994  0.00025834
   0.97244982  0.40030936  0.00054761
   0.03912498  0.53363679  0.00057341
   0.37241618  0.40032948  0.00000000
   0.43909960  0.53363898  0.00023241
   0.57244368  0.00031213  0.00055958
   0.63911021  0.13363175  0.00054727
   0.97245270  0.60030565  0.00064029
   0.03912449  0.73364036  0.00065451
   0.57243347  0.60030624  0.00040289
   0.63911189  0.73364188  0.00052791
   0.17245463  0.40031823  0.00028904
   0.23912018  0.53363655  0.00037851
   0.37245975  0.20029599  0.00008900
   0.43910710  0.33367342  0.00005576
   0.17245216  0.60031151  0.00052434
   0.23912337  0.73363857  0.00057513
   0.57243108  0.20028917  0.00041330
   0.63911277  0.33361863  0.00046238
   0.37243981  0.60030802  0.00036284
   0.43911609  0.73363786  0.00049419
   0.57246936  0.40032050  0.00033992
   0.63911941  0.53365087  0.00045961
   0.77244572  0.00031543  0.00059616
   0.83911628  0.13364020  0.00057531
   0.77244051  0.20030743  0.00058103
   0.83912024  0.33363573  0.00058547
   0.77244632  0.40029837  0.00058298
   0.83911898  0.53363396  0.00062110
   0.77245614  0.60030817  0.00059571
   0.83911503  0.73364318  0.00063151
   0.97245531  0.80030558  0.00065223
   0.03911471  0.93364329  0.00059805
   0.17245797  0.80031221  0.00062337
   0.23913455  0.93364719  0.00054485
   0.37245140  0.80031667  0.00055140
   0.43912449  0.93364477  0.00054143
   0.57244110  0.80031005  0.00053453
   0.63911507  0.93363899  0.00058764
   0.77244510  0.80031319  0.00060206
   0.83911661  0.93364434  0.00060683
   0.37302101  0.25122688  0.33635857
   0.42087980  0.18931315  0.33893544
   0.32515698  0.31316719  0.33398037
 
 position of ions in cartesian coordinates  (Angst):
  11.98347958  0.00342433  0.01416777
  -0.34154264  1.42664989  0.01100432
   2.12354700  0.00315355  0.01249070
   2.12325634  1.42652621  0.00641170
  10.75098721  2.13818970  0.01213047
  -1.57382270  3.56123457  0.01110375
   0.89078307  2.13853702  0.00547917
   0.89099273  3.56146885  0.00180651
   4.58863896  0.00346260  0.01134782
   4.58893648  1.42622757  0.00645846
   9.51853763  4.27280730  0.01369027
  -2.80632132  5.69591267  0.01433526
   2.12299894  4.27302204  0.00000000
   2.12335237  5.69593607  0.00581036
   7.05344483  0.00333155  0.01398950
   7.05352764  1.42635365  0.01368187
   8.28609598  6.40752033  0.01600723
  -4.03884931  7.83070339  0.01636283
   3.35585531  6.40752662  0.01007237
   3.35598594  7.83071962  0.01319763
  -0.34145776  4.27290193  0.00722612
  -0.34137895  5.69591010  0.00946273
   3.35624236  2.13791198  0.00222492
   3.35573251  3.56155103  0.00139405
  -1.57394684  6.40758280  0.01310850
  -1.57385216  7.83068434  0.01437823
   5.82093107  2.13783916  0.01033241
   5.82114012  3.56096622  0.01155939
   0.89092245  6.40754561  0.00907111
   0.89106251  7.83067670  0.01235474
   4.58870974  4.27292622  0.00849795
   4.58852320  5.69606300  0.01149026
   9.51844972  0.00336679  0.01490402
   9.51855036  1.42644387  0.01438264
   8.28593477  2.13803408  0.01452582
   8.28612680  3.56114872  0.01463668
   7.05356221  4.27268994  0.01457444
   7.05362213  5.69588251  0.01552751
   5.82112285  6.40754723  0.01489279
   5.82101669  7.83073350  0.01578780
   7.05362858  8.54227219  0.01630582
  -5.27148792  9.96548729  0.01495127
  -2.80637951  8.54234295  0.01558431
  -2.80626749  9.96552896  0.01362126
  -0.34148805  8.54239058  0.01378498
  -0.34137657  9.96550309  0.01353576
   2.12342586  8.54231992  0.01336337
   2.12354296  9.96544135  0.01469111
   4.58845581  8.54235337  0.01505154
   4.58852904  9.96549848  0.01517076
   3.04929830  2.68153618  8.40896415
   4.02070129  2.02068374  8.47338601
   2.07766701  3.34267235  8.34950928
 


--------------------------------------------------------------------------------------------------------


 k-point   1 :   0.0000 0.0000 0.0000  plane waves:  236157

 maximum and minimum number of plane-waves per node :    236157   236157

 maximum number of plane-waves:    236157
 maximum index in each direction: 
   IXMAX=   31   IYMAX=   31   IZMAX=   64
   IXMIN=  -31   IYMIN=  -31   IZMIN=  -64


 serial   3D FFT for wavefunctions
 parallel 3D FFT for charge:
    minimum data exchange during FFTs selected (reduces bandwidth)


 total amount of memory used by VASP MPI-rank0   698619. kBytes
=======================================================================

   base      :      30000. kBytes
   nonl-proj :     230539. kBytes
   fftplans  :      40716. kBytes
   grid      :     363125. kBytes
   one-center:        162. kBytes
   wavefun   :      34077. kBytes
 
     INWAV:  cpu time    0.0000: real time    0.0000
 Broyden mixing: mesh for mixing (old mesh)
   NGX = 63   NGY = 63   NGZ =129
  (NGX  =256   NGY  =256   NGZ  =540)
  gives a total of 512001 points

 initial charge density was supplied:
 charge density of overlapping atoms calculated
 number of electron     216.0000000 magnetization 
 keeping initial charge density in first step


--------------------------------------------------------------------------------------------------------


 Maximum index for augmentation-charges          471 (set IRDMAX)


--------------------------------------------------------------------------------------------------------


 First call to EWALD:  gamma=   0.119
 Maximum number of real-space cells 4x 4x 2
 Maximum number of reciprocal cells 2x 2x 4

    FEWALD:  cpu time    0.0036: real time    0.0036


--------------------------------------- Iteration      1(   1)  ---------------------------------------


    POTLOK:  cpu time    1.7246: real time    1.7364
    SETDIJ:  cpu time    0.2154: real time    0.2162
    TRIAL :  cpu time   28.1727: real time   28.3953
    CORREC:  cpu time    0.0004: real time    0.0006
    --------------------------------------------
      LOOP:  cpu time   30.1261: real time   30.3686

 eigenvalue-minimisations  :   336
 total energy-change (2. order) : 0.2542371E+04  (-0.1080405E+05)
 number of electron     216.0000000 magnetization 
 augmentation part      216.0000000 magnetization 

 Free energy of the ion-electron system (eV)
  ---------------------------------------------------
  alpha Z        PSCENC =        47.94900195
  Ewald energy   TEWEN  =     41309.03722986
  -Hartree energ DENC   =    -47378.26075386
  -exchange      EXHF   =         0.00000000
  -V(xc)+E(xc)   XCENC  =       605.05708227
  PAW double counting   =      6340.10990386    -6200.63067283
  entropy T*S    EENTRO =        -0.00000000
  eigenvalues    EBANDS =      -550.41406726
  atomic energy  EATOM  =      8369.52358910
  ---------------------------------------------------
  free energy    TOTEN  =      2542.37131309 eV

  energy without entropy =     2542.37131309  energy(sigma->0) =     2542.37131309


--------------------------------------------------------------------------------------------------------




--------------------------------------- Iteration      1(   2)  ---------------------------------------


    TRIAL :  cpu time   45.8277: real time   46.1899
    CORREC:  cpu time    0.0001: real time    0.0001
    --------------------------------------------
      LOOP:  cpu time   45.8636: real time   46.2323

 eigenvalue-minimisations  :   672
 total energy-change (2. order) :-0.2532571E+04  (-0.2410051E+04)
 number of electron     216.0000000 magnetization 
 augmentation part      216.0000000 magnetization 

 Free energy of the ion-electron system (eV)
  ---------------------------------------------------
  alpha Z        PSCENC =        47.94900195
  Ewald energy   TEWEN  =     41309.03722986
  -Hartree energ DENC   =    -47378.26075386
  -exchange      EXHF   =         0.00000000
  -V(xc)+E(xc)   XCENC  =       605.05708227
  PAW double counting   =      6340.10990386    -6200.63067283
  entropy T*S    EENTRO =        -0.00000000
  eigenvalues    EBANDS =     -3082.98474909
  atomic energy  EATOM  =      8369.52358910
  ---------------------------------------------------
  free energy    TOTEN  =         9.80063126 eV

  energy without entropy =        9.80063126  energy(sigma->0) =        9.80063126


--------------------------------------------------------------------------------------------------------




--------------------------------------- Iteration      1(   3)  ---------------------------------------


    TRIAL :  cpu time   31.0142: real time   31.2704
    CORREC:  cpu time    0.0001: real time    0.0001
    --------------------------------------------
      LOOP:  cpu time   31.0827: real time   31.3566

 eigenvalue-minimisations  :   392
 total energy-change (2. order) :-0.5867093E+03  (-0.5840002E+03)
 number of electron     216.0000000 magnetization 
 augmentation part      216.0000000 magnetization 

 Free energy of the ion-electron system (eV)
  ---------------------------------------------------
  alpha Z        PSCENC =        47.94900195
  Ewald energy   TEWEN  =     41309.03722986
  -Hartree energ DENC   =    -47378.26075386
  -exchange      EXHF   =         0.00000000
  -V(xc)+E(xc)   XCENC  =       605.05708227
  PAW double counting   =      6340.10990386    -6200.63067283
  entropy T*S    EENTRO =        -0.00000000
  eigenvalues    EBANDS =     -3669.69409221
  atomic energy  EATOM  =      8369.52358910
  ---------------------------------------------------
  free energy    TOTEN  =      -576.90871186 eV

  energy without entropy =     -576.90871186  energy(sigma->0) =     -576.90871186


--------------------------------------------------------------------------------------------------------




--------------------------------------- Iteration      1(   4)  ---------------------------------------


    TRIAL :  cpu time   33.9932: real time   34.2596
    CORREC:  cpu time    0.0001: real time    0.0001
    --------------------------------------------
      LOOP:  cpu time   34.0642: real time   34.3342

 eigenvalue-minimisations  :   448
 total energy-change (2. order) :-0.2981874E+02  (-0.2958679E+02)
 number of electron     216.0000000 magnetization 
 augmentation part      216.0000000 magnetization 

 Free energy of the ion-electron system (eV)
  ---------------------------------------------------
  alpha Z        PSCENC =        47.94900195
  Ewald energy   TEWEN  =     41309.03722986
  -Hartree energ DENC   =    -47378.26075386
  -exchange      EXHF   =         0.00000000
  -V(xc)+E(xc)   XCENC  =       605.05708227
  PAW double counting   =      6340.10990386    -6200.63067283
  entropy T*S    EENTRO =        -0.00000000
  eigenvalues    EBANDS =     -3699.51283140
  atomic energy  EATOM  =      8369.52358910
  ---------------------------------------------------
  free energy    TOTEN  =      -606.72745105 eV

  energy without entropy =     -606.72745105  energy(sigma->0) =     -606.72745105


--------------------------------------------------------------------------------------------------------




--------------------------------------- Iteration      1(   5)  ---------------------------------------


    TRIAL :  cpu time   33.9965: real time   34.2603
    CORREC:  cpu time    0.0001: real time    0.0001
    CHARGE:  cpu time    2.9909: real time    3.0127
    --------------------------------------------
      LOOP:  cpu time   37.0392: real time   37.3465

 eigenvalue-minimisations  :   448
 total energy-change (2. order) :-0.1015839E+01  (-0.1011393E+01)
 number of electron     216.0000000 magnetization 
 augmentation part       -0.4481860 magnetization 

 Free energy of the ion-electron system (eV)
  ---------------------------------------------------
  alpha Z        PSCENC =        47.94900195
  Ewald energy   TEWEN  =     41309.03722986
  -Hartree energ DENC   =    -47378.26075386
  -exchange      EXHF   =         0.00000000
  -V(xc)+E(xc)   XCENC  =       605.05708227
  PAW double counting   =      6340.10990386    -6200.63067283
  entropy T*S    EENTRO =        -0.00000000
  eigenvalues    EBANDS =     -3700.52866999
  atomic energy  EATOM  =      8369.52358910
  ---------------------------------------------------
  free energy    TOTEN  =      -607.74328964 eV

  energy without entropy =     -607.74328964  energy(sigma->0) =     -607.74328964


--------------------------------------------------------------------------------------------------------




--------------------------------------- Iteration      1(   6)  ---------------------------------------


    POTLOK:  cpu time    1.6855: real time    1.6954
    SETDIJ:  cpu time    0.2221: real time    0.2230
    TRIAL :  cpu time   20.1216: real time   20.2743
    CORREC:  cpu time    8.9850: real time    9.0519
    CHARGE:  cpu time    2.9922: real time    3.0252
    --------------------------------------------
      LOOP:  cpu time   34.0357: real time   34.3098

 eigenvalue-minimisations  :     0
 total energy-change (2. order) : 0.9797852E+02  (-0.1132020E+02)
 number of electron     216.0000000 magnetization 
 augmentation part       -0.5048653 magnetization 

 Free energy of the ion-electron system (eV)
  ---------------------------------------------------
  alpha Z        PSCENC =        47.94900195
  Ewald energy   TEWEN  =     41309.03722986
  -Hartree energ DENC   =    -48720.97613202
  -exchange      EXHF   =         0.00000000
  -V(xc)+E(xc)   XCENC  =       676.76377879
  PAW double counting   =    119406.76572336  -119267.17534093
  entropy T*S    EENTRO =        -0.00000000
  eigenvalues    EBANDS =     -2331.65262195
  atomic energy  EATOM  =      8369.52358910
  ---------------------------------------------------
  free energy    TOTEN  =      -509.76477184 eV

  energy without entropy =     -509.76477184  energy(sigma->0) =     -509.76477184


--------------------------------------------------------------------------------------------------------




--------------------------------------- Iteration      1(   7)  ---------------------------------------


    POTLOK:  cpu time    1.6822: real time    1.6919
    SETDIJ:  cpu time    0.2142: real time    0.2149
    TRIAL :  cpu time   20.1318: real time   20.2922
    CORREC:  cpu time    8.9929: real time    9.0554
    CHARGE:  cpu time    2.9873: real time    3.0086
    --------------------------------------------
      LOOP:  cpu time   34.0945: real time   34.3502

 eigenvalue-minimisations  :     0
 total energy-change (2. order) :-0.1133653E+02  (-0.1463661E+01)
 number of electron     216.0000000 magnetization 
 augmentation part       -0.5384066 magnetization 

 Free energy of the ion-electron system (eV)
  ---------------------------------------------------
  alpha Z        PSCENC =        47.94900195
  Ewald energy   TEWEN  =     41309.03722986
  -Hartree energ DENC   =    -48309.24628567
  -exchange      EXHF   =         0.00000000
  -V(xc)+E(xc)   XCENC  =       659.06044743
  PAW double counting   =    138538.01539537  -138396.68149618
  entropy T*S    EENTRO =        -0.00000000
  eigenvalues    EBANDS =     -2738.75918803
  atomic energy  EATOM  =      8369.52358910
  ---------------------------------------------------
  free energy    TOTEN  =      -521.10130617 eV

  energy without entropy =     -521.10130617  energy(sigma->0) =     -521.10130617


--------------------------------------------------------------------------------------------------------




--------------------------------------- Iteration      1(   8)  ---------------------------------------


    POTLOK:  cpu time    1.6828: real time    1.6923
    SETDIJ:  cpu time    0.2180: real time    0.2189
    TRIAL :  cpu time   20.1286: real time   20.2855
    CORREC:  cpu time    8.9773: real time    9.0415
    CHARGE:  cpu time    2.9880: real time    3.0092
    --------------------------------------------
      LOOP:  cpu time   34.0816: real time   34.3371

 eigenvalue-minimisations  :     0
 total energy-change (2. order) :-0.1463229E+01  (-0.4544818E+00)
 number of electron     216.0000000 magnetization 
 augmentation part       -0.5409088 magnetization 

 Free energy of the ion-electron system (eV)
  ---------------------------------------------------
  alpha Z        PSCENC =        47.94900195
  Ewald energy   TEWEN  =     41309.03722986
  -Hartree energ DENC   =    -48279.71042290
  -exchange      EXHF   =         0.00000000
  -V(xc)+E(xc)   XCENC  =       658.00462270
  PAW double counting   =    148071.72762976  -147930.26935502
  entropy T*S    EENTRO =        -0.00000000
  eigenvalues    EBANDS =     -2768.82683080
  atomic energy  EATOM  =      8369.52358910
  ---------------------------------------------------
  free energy    TOTEN  =      -522.56453534 eV

  energy without entropy =     -522.56453534  energy(sigma->0) =     -522.56453534


--------------------------------------------------------------------------------------------------------




--------------------------------------- Iteration      1(   9)  ---------------------------------------


    POTLOK:  cpu time    1.6832: real time    1.6929
    SETDIJ:  cpu time    0.2122: real time    0.2130
    TRIAL :  cpu time   20.0897: real time   20.2495
    CORREC:  cpu time    8.9768: real time    9.0397
    CHARGE:  cpu time    2.9867: real time    3.0102
    --------------------------------------------
      LOOP:  cpu time   34.0273: real time   34.2851

 eigenvalue-minimisations  :     0
 total energy-change (2. order) :-0.4543939E+00  (-0.1765977E+00)
 number of electron     216.0000000 magnetization 
 augmentation part       -0.5388889 magnetization 

 Free energy of the ion-electron system (eV)
  ---------------------------------------------------
  alpha Z        PSCENC =        47.94900195
  Ewald energy   TEWEN  =     41309.03722986
  -Hartree energ DENC   =    -48287.48958821
  -exchange      EXHF   =         0.00000000
  -V(xc)+E(xc)   XCENC  =       657.98850956
  PAW double counting   =    155852.90940883  -155711.38393623
  entropy T*S    EENTRO =        -0.00000000
  eigenvalues    EBANDS =     -2761.55314415
  atomic energy  EATOM  =      8369.52358910
  ---------------------------------------------------
  free energy    TOTEN  =      -523.01892929 eV

  energy without entropy =     -523.01892929  energy(sigma->0) =     -523.01892929


--------------------------------------------------------------------------------------------------------




--------------------------------------- Iteration      1(  10)  ---------------------------------------


    POTLOK:  cpu time    1.6815: real time    1.6915
    SETDIJ:  cpu time    0.2152: real time    0.2159
    TRIAL :  cpu time   20.1080: real time   20.2581
    CORREC:  cpu time    8.9785: real time    9.0414
    CHARGE:  cpu time    2.9849: real time    3.0060
    --------------------------------------------
      LOOP:  cpu time   34.0614: real time   34.3076

 eigenvalue-minimisations  :     0
 total energy-change (2. order) :-0.1764106E+00  (-0.7647625E-01)
 number of electron     216.0000000 magnetization 
 augmentation part       -0.5341037 magnetization 

 Free energy of the ion-electron system (eV)
  ---------------------------------------------------
  alpha Z        PSCENC =        47.94900195
  Ewald energy   TEWEN  =     41309.03722986
  -Hartree energ DENC   =    -48287.38976108
  -exchange      EXHF   =         0.00000000
  -V(xc)+E(xc)   XCENC  =       657.91557767
  PAW double counting   =    159749.22502406  -159607.65361479
  entropy T*S    EENTRO =        -0.00000000
  eigenvalues    EBANDS =     -2761.80238664
  atomic energy  EATOM  =      8369.52358910
  ---------------------------------------------------
  free energy    TOTEN  =      -523.19533988 eV

  energy without entropy =     -523.19533988  energy(sigma->0) =     -523.19533988


--------------------------------------------------------------------------------------------------------




--------------------------------------- Iteration      1(  11)  ---------------------------------------


    POTLOK:  cpu time    1.6820: real time    1.6917
    SETDIJ:  cpu time    0.2175: real time    0.2183
    TRIAL :  cpu time   20.1052: real time   20.2615
    CORREC:  cpu time    8.9774: real time    9.0384
    CHARGE:  cpu time    2.9933: real time    3.0142
    --------------------------------------------
      LOOP:  cpu time   34.0437: real time   34.2943

 eigenvalue-minimisations  :     0
 total energy-change (2. order) :-0.7630429E-01  (-0.2963951E-01)
 number of electron     216.0000000 magnetization 
 augmentation part       -0.5307472 magnetization 

 Free energy of the ion-electron system (eV)
  ---------------------------------------------------
  alpha Z        PSCENC =        47.94900195
  Ewald energy   TEWEN  =     41309.03722986
  -Hartree energ DENC   =    -48281.79899418
  -exchange      EXHF   =         0.00000000
  -V(xc)+E(xc)   XCENC  =       657.85258375
  PAW double counting   =    160567.96290593  -160426.41066406
  entropy T*S    EENTRO =        -0.00000000
  eigenvalues    EBANDS =     -2767.38729652
  atomic energy  EATOM  =      8369.52358910
  ---------------------------------------------------
  free energy    TOTEN  =      -523.27164418 eV

  energy without entropy =     -523.27164418  energy(sigma->0) =     -523.27164418


--------------------------------------------------------------------------------------------------------




--------------------------------------- Iteration      1(  12)  ---------------------------------------


    POTLOK:  cpu time    1.6903: real time    1.7013
    SETDIJ:  cpu time    0.2108: real time    0.2116
    TRIAL :  cpu time   20.1458: real time   20.2963
    CORREC:  cpu time    8.9856: real time    9.0508
    CHARGE:  cpu time    3.0070: real time    3.0287
    --------------------------------------------
      LOOP:  cpu time   34.0766: real time   34.3414

 eigenvalue-minimisations  :     0
 total energy-change (2. order) :-0.2959379E-01  (-0.9489834E-02)
 number of electron     216.0000000 magnetization 
 augmentation part       -0.5305120 magnetization 

 Free energy of the ion-electron system (eV)
  ---------------------------------------------------
  alpha Z        PSCENC =        47.94900195
  Ewald energy   TEWEN  =     41309.03722986
  -Hartree energ DENC   =    -48277.50783758
  -exchange      EXHF   =         0.00000000
  -V(xc)+E(xc)   XCENC  =       657.78827302
  PAW double counting   =    160114.97751118  -159973.45053964
  entropy T*S    EENTRO =        -0.00000000
  eigenvalues    EBANDS =     -2771.61846586
  atomic energy  EATOM  =      8369.52358910
  ---------------------------------------------------
  free energy    TOTEN  =      -523.30123797 eV

  energy without entropy =     -523.30123797  energy(sigma->0) =     -523.30123797


--------------------------------------------------------------------------------------------------------




--------------------------------------- Iteration      1(  13)  ---------------------------------------


    POTLOK:  cpu time    1.6842: real time    1.6941
    SETDIJ:  cpu time    0.2107: real time    0.2115
    TRIAL :  cpu time   20.1049: real time   20.2588
    CORREC:  cpu time    8.9472: real time    9.0443
    CHARGE:  cpu time    3.0043: real time    3.0281
    --------------------------------------------
      LOOP:  cpu time   34.0372: real time   34.3243

 eigenvalue-minimisations  :     0
 total energy-change (2. order) :-0.9471743E-02  (-0.2658185E-02)
 number of electron     216.0000000 magnetization 
 augmentation part       -0.5309683 magnetization 

 Free energy of the ion-electron system (eV)
  ---------------------------------------------------
  alpha Z        PSCENC =        47.94900195
  Ewald energy   TEWEN  =     41309.03722986
  -Hartree energ DENC   =    -48276.25545968
  -exchange      EXHF   =         0.00000000
  -V(xc)+E(xc)   XCENC  =       657.74487940
  PAW double counting   =    159468.64187031  -159327.11993838
  entropy T*S    EENTRO =        -0.00000000
  eigenvalues    EBANDS =     -2772.83188227
  atomic energy  EATOM  =      8369.52358910
  ---------------------------------------------------
  free energy    TOTEN  =      -523.31070971 eV

  energy without entropy =     -523.31070971  energy(sigma->0) =     -523.31070971


--------------------------------------------------------------------------------------------------------




--------------------------------------- Iteration      1(  14)  ---------------------------------------


    POTLOK:  cpu time    1.6837: real time    1.6939
    SETDIJ:  cpu time    0.2121: real time    0.2129
    TRIAL :  cpu time   20.1064: real time   20.2702
    CORREC:  cpu time    8.9831: real time    9.0465
    CHARGE:  cpu time    2.9987: real time    3.0221
    --------------------------------------------
      LOOP:  cpu time   34.0133: real time   34.2768

 eigenvalue-minimisations  :     0
 total energy-change (2. order) :-0.2647570E-02  (-0.7277991E-03)
 number of electron     216.0000000 magnetization 
 augmentation part       -0.5312369 magnetization 

 Free energy of the ion-electron system (eV)
  ---------------------------------------------------
  alpha Z        PSCENC =        47.94900195
  Ewald energy   TEWEN  =     41309.03722986
  -Hartree energ DENC   =    -48276.29965436
  -exchange      EXHF   =         0.00000000
  -V(xc)+E(xc)   XCENC  =       657.73238801
  PAW double counting   =    159069.57316476  -158928.05009317
  entropy T*S    EENTRO =        -0.00000000
  eigenvalues    EBANDS =     -2772.77898343
  atomic energy  EATOM  =      8369.52358910
  ---------------------------------------------------
  free energy    TOTEN  =      -523.31335728 eV

  energy without entropy =     -523.31335728  energy(sigma->0) =     -523.31335728


--------------------------------------------------------------------------------------------------------




--------------------------------------- Iteration      1(  15)  ---------------------------------------


    POTLOK:  cpu time    1.6819: real time    1.6918
    SETDIJ:  cpu time    0.2162: real time    0.2170
    TRIAL :  cpu time   20.0792: real time   20.2321
    CORREC:  cpu time    8.9706: real time    9.0348
    CHARGE:  cpu time    2.9845: real time    3.0080
    --------------------------------------------
      LOOP:  cpu time   33.9679: real time   34.2571

 eigenvalue-minimisations  :     0
 total energy-change (2. order) :-0.7228723E-03  (-0.2088024E-03)
 number of electron     216.0000000 magnetization 
 augmentation part       -0.5314437 magnetization 

 Free energy of the ion-electron system (eV)
  ---------------------------------------------------
  alpha Z        PSCENC =        47.94900195
  Ewald energy   TEWEN  =     41309.03722986
  -Hartree energ DENC   =    -48276.21353707
  -exchange      EXHF   =         0.00000000
  -V(xc)+E(xc)   XCENC  =       657.72657128
  PAW double counting   =    158868.02191081  -158726.49778234
  entropy T*S    EENTRO =        -0.00000000
  eigenvalues    EBANDS =     -2772.86106374
  atomic energy  EATOM  =      8369.52358910
  ---------------------------------------------------
  free energy    TOTEN  =      -523.31408015 eV

  energy without entropy =     -523.31408015  energy(sigma->0) =     -523.31408015


--------------------------------------------------------------------------------------------------------




--------------------------------------- Iteration      1(  16)  ---------------------------------------


    POTLOK:  cpu time    1.6815: real time    1.6931
    SETDIJ:  cpu time    0.2154: real time    0.2163
    TRIAL :  cpu time   20.0813: real time   20.2580
    CORREC:  cpu time    9.0137: real time    9.0793
    CHARGE:  cpu time    2.9849: real time    3.0063
    --------------------------------------------
      LOOP:  cpu time   34.0281: real time   34.3289

 eigenvalue-minimisations  :     0
 total energy-change (2. order) :-0.2066124E-03  (-0.6834832E-04)
 number of electron     216.0000000 magnetization 
 augmentation part       -0.5315325 magnetization 

 Free energy of the ion-electron system (eV)
  ---------------------------------------------------
  alpha Z        PSCENC =        47.94900195
  Ewald energy   TEWEN  =     41309.03722986
  -Hartree energ DENC   =    -48276.11942200
  -exchange      EXHF   =         0.00000000
  -V(xc)+E(xc)   XCENC  =       657.72100523
  PAW double counting   =    158753.02829575  -158611.50262278
  entropy T*S    EENTRO =        -0.00000000
  eigenvalues    EBANDS =     -2772.95136387
  atomic energy  EATOM  =      8369.52358910
  ---------------------------------------------------
  free energy    TOTEN  =      -523.31428676 eV

  energy without entropy =     -523.31428676  energy(sigma->0) =     -523.31428676


--------------------------------------------------------------------------------------------------------




--------------------------------------- Iteration      1(  17)  ---------------------------------------


    POTLOK:  cpu time    1.6852: real time    1.6952
    SETDIJ:  cpu time    0.2106: real time    0.2114
    TRIAL :  cpu time   20.0916: real time   20.2421
    CORREC:  cpu time    8.9705: real time    9.0366
    CHARGE:  cpu time    2.9869: real time    3.0086
    --------------------------------------------
      LOOP:  cpu time   34.0246: real time   34.2742

 eigenvalue-minimisations  :     0
 total energy-change (2. order) :-0.6711221E-04  (-0.2377115E-04)
 number of electron     216.0000000 magnetization 
 augmentation part       -0.5315602 magnetization 

 Free energy of the ion-electron system (eV)
  ---------------------------------------------------
  alpha Z        PSCENC =        47.94900195
  Ewald energy   TEWEN  =     41309.03722986
  -Hartree energ DENC   =    -48276.25213878
  -exchange      EXHF   =         0.00000000
  -V(xc)+E(xc)   XCENC  =       657.72631676
  PAW double counting   =    158682.53401300  -158541.00812679
  entropy T*S    EENTRO =        -0.00000000
  eigenvalues    EBANDS =     -2772.82423898
  atomic energy  EATOM  =      8369.52358910
  ---------------------------------------------------
  free energy    TOTEN  =      -523.31435388 eV

  energy without entropy =     -523.31435388  energy(sigma->0) =     -523.31435388


--------------------------------------------------------------------------------------------------------




--------------------------------------- Iteration      1(  18)  ---------------------------------------


    POTLOK:  cpu time    1.6853: real time    1.6952
    SETDIJ:  cpu time    0.2201: real time    0.2209
    TRIAL :  cpu time   20.0839: real time   20.2429
    CORREC:  cpu time    8.9614: real time    9.0332
    CHARGE:  cpu time    2.9857: real time    3.0089
    --------------------------------------------
      LOOP:  cpu time   33.9851: real time   34.2513

 eigenvalue-minimisations  :     0
 total energy-change (2. order) :-0.2386360E-04  (-0.8427018E-05)
 number of electron     216.0000000 magnetization 
 augmentation part       -0.5315767 magnetization 

 Free energy of the ion-electron system (eV)
  ---------------------------------------------------
  alpha Z        PSCENC =        47.94900195
  Ewald energy   TEWEN  =     41309.03722986
  -Hartree energ DENC   =    -48276.30609318
  -exchange      EXHF   =         0.00000000
  -V(xc)+E(xc)   XCENC  =       657.72825938
  PAW double counting   =    158656.45031844  -158514.92416337
  entropy T*S    EENTRO =        -0.00000000
  eigenvalues    EBANDS =     -2772.77251993
  atomic energy  EATOM  =      8369.52358910
  ---------------------------------------------------
  free energy    TOTEN  =      -523.31437774 eV

  energy without entropy =     -523.31437774  energy(sigma->0) =     -523.31437774


--------------------------------------------------------------------------------------------------------




--------------------------------------- Iteration      1(  19)  ---------------------------------------


    POTLOK:  cpu time    1.6872: real time    1.6969
    SETDIJ:  cpu time    0.2122: real time    0.2130
    TRIAL :  cpu time   20.1066: real time   20.2531
    CORREC:  cpu time    8.9883: real time    9.0491
    CHARGE:  cpu time    2.9904: real time    3.0113
    --------------------------------------------
      LOOP:  cpu time   34.0213: real time   34.2644

 eigenvalue-minimisations  :     0
 total energy-change (2. order) :-0.8705654E-05  (-0.2888811E-05)
 number of electron     216.0000000 magnetization 
 augmentation part       -0.5315783 magnetization 

 Free energy of the ion-electron system (eV)
  ---------------------------------------------------
  alpha Z        PSCENC =        47.94900195
  Ewald energy   TEWEN  =     41309.03722986
  -Hartree energ DENC   =    -48276.30900998
  -exchange      EXHF   =         0.00000000
  -V(xc)+E(xc)   XCENC  =       657.72808453
  PAW double counting   =    158657.55735233  -158516.03093711
  entropy T*S    EENTRO =        -0.00000000
  eigenvalues    EBANDS =     -2772.76969712
  atomic energy  EATOM  =      8369.52358910
  ---------------------------------------------------
  free energy    TOTEN  =      -523.31438645 eV

  energy without entropy =     -523.31438645  energy(sigma->0) =     -523.31438645


--------------------------------------------------------------------------------------------------------




--------------------------------------- Iteration      1(  20)  ---------------------------------------


    POTLOK:  cpu time    1.6821: real time    1.6920
    SETDIJ:  cpu time    0.2146: real time    0.2153
    TRIAL :  cpu time   20.0930: real time   20.2440
    CORREC:  cpu time    8.9696: real time    9.0309
    CHARGE:  cpu time    2.9855: real time    3.0079
    --------------------------------------------
      LOOP:  cpu time   34.0350: real time   34.2928

 eigenvalue-minimisations  :     0
 total energy-change (2. order) :-0.2984860E-05  (-0.1001515E-05)
 number of electron     216.0000000 magnetization 
 augmentation part       -0.5315753 magnetization 

 Free energy of the ion-electron system (eV)
  ---------------------------------------------------
  alpha Z        PSCENC =        47.94900195
  Ewald energy   TEWEN  =     41309.03722986
  -Hartree energ DENC   =    -48276.32796086
  -exchange      EXHF   =         0.00000000
  -V(xc)+E(xc)   XCENC  =       657.72883245
  PAW double counting   =    158666.48540577  -158524.95900652
  entropy T*S    EENTRO =        -0.00000000
  eigenvalues    EBANDS =     -2772.75148118
  atomic energy  EATOM  =      8369.52358910
  ---------------------------------------------------
  free energy    TOTEN  =      -523.31438943 eV

  energy without entropy =     -523.31438943  energy(sigma->0) =     -523.31438943


--------------------------------------------------------------------------------------------------------




--------------------------------------- Iteration      1(  21)  ---------------------------------------


    POTLOK:  cpu time    1.6841: real time    1.6940
    SETDIJ:  cpu time    0.2172: real time    0.2181
    TRIAL :  cpu time   20.1184: real time   20.2683
    CORREC:  cpu time    8.9791: real time    9.0443
    CHARGE:  cpu time    2.9963: real time    3.0368
    --------------------------------------------
      LOOP:  cpu time   34.0205: real time   34.3031

 eigenvalue-minimisations  :     0
 total energy-change (2. order) :-0.1015665E-05  (-0.3666508E-06)
 number of electron     216.0000000 magnetization 
 augmentation part       -0.5315674 magnetization 

 Free energy of the ion-electron system (eV)
  ---------------------------------------------------
  alpha Z        PSCENC =        47.94900195
  Ewald energy   TEWEN  =     41309.03722986
  -Hartree energ DENC   =    -48276.33457790
  -exchange      EXHF   =         0.00000000
  -V(xc)+E(xc)   XCENC  =       657.72893488
  PAW double counting   =    158674.14754142  -158532.62115471
  entropy T*S    EENTRO =        -0.00000000
  eigenvalues    EBANDS =     -2772.74495505
  atomic energy  EATOM  =      8369.52358910
  ---------------------------------------------------
  free energy    TOTEN  =      -523.31439045 eV

  energy without entropy =     -523.31439045  energy(sigma->0) =     -523.31439045


--------------------------------------------------------------------------------------------------------




--------------------------------------- Iteration      1(  22)  ---------------------------------------


    POTLOK:  cpu time    1.6806: real time    1.6906
    SETDIJ:  cpu time    0.2164: real time    0.2172
    TRIAL :  cpu time   20.1219: real time   20.2713
    CORREC:  cpu time    8.9653: real time    9.0294
    CHARGE:  cpu time    2.9901: real time    3.0128
    --------------------------------------------
      LOOP:  cpu time   34.0500: real time   34.3054

 eigenvalue-minimisations  :     0
 total energy-change (2. order) :-0.3506429E-06  (-0.2000995E-06)
 number of electron     216.0000000 magnetization 
 augmentation part       -0.5315582 magnetization 

 Free energy of the ion-electron system (eV)
  ---------------------------------------------------
  alpha Z        PSCENC =        47.94900195
  Ewald energy   TEWEN  =     41309.03722986
  -Hartree energ DENC   =    -48276.33421920
  -exchange      EXHF   =         0.00000000
  -V(xc)+E(xc)   XCENC  =       657.72885689
  PAW double counting   =    158678.67725467  -158537.15090754
  entropy T*S    EENTRO =        -0.00000000
  eigenvalues    EBANDS =     -2772.74519652
  atomic energy  EATOM  =      8369.52358910
  ---------------------------------------------------
  free energy    TOTEN  =      -523.31439080 eV

  energy without entropy =     -523.31439080  energy(sigma->0) =     -523.31439080


--------------------------------------------------------------------------------------------------------




--------------------------------------- Iteration      1(  23)  ---------------------------------------


    POTLOK:  cpu time    1.6828: real time    1.6924
    SETDIJ:  cpu time    0.2187: real time    0.2195
    TRIAL :  cpu time   20.1023: real time   20.2472
    CORREC:  cpu time    8.9756: real time    9.0386
    CHARGE:  cpu time    2.9892: real time    3.0112
    --------------------------------------------
      LOOP:  cpu time   34.0123: real time   34.2541

 eigenvalue-minimisations  :     0
 total energy-change (2. order) :-0.1539593E-06  (-0.1883722E-06)
 number of electron     216.0000000 magnetization 
 augmentation part       -0.5315541 magnetization 

 Free energy of the ion-electron system (eV)
  ---------------------------------------------------
  alpha Z        PSCENC =        47.94900195
  Ewald energy   TEWEN  =     41309.03722986
  -Hartree energ DENC   =    -48276.33384723
  -exchange      EXHF   =         0.00000000
  -V(xc)+E(xc)   XCENC  =       657.72886375
  PAW double counting   =    158681.68073190  -158540.15444614
  entropy T*S    EENTRO =        -0.00000000
  eigenvalues    EBANDS =     -2772.74551414
  atomic energy  EATOM  =      8369.52358910
  ---------------------------------------------------
  free energy    TOTEN  =      -523.31439095 eV

  energy without entropy =     -523.31439095  energy(sigma->0) =     -523.31439095


--------------------------------------------------------------------------------------------------------




--------------------------------------- Iteration      1(  24)  ---------------------------------------


    POTLOK:  cpu time    1.6808: real time    1.6920
    SETDIJ:  cpu time    0.2176: real time    0.2184
    TRIAL :  cpu time   20.0756: real time   20.2428
    CORREC:  cpu time    8.9858: real time    9.0478
    CHARGE:  cpu time    2.9766: real time    3.0111
    --------------------------------------------
      LOOP:  cpu time   34.0480: real time   34.3260

 eigenvalue-minimisations  :     0
 total energy-change (2. order) : 0.1044828E-06  (-0.1861873E-06)
 number of electron     216.0000000 magnetization 
 augmentation part       -0.5315550 magnetization 

 Free energy of the ion-electron system (eV)
  ---------------------------------------------------
  alpha Z        PSCENC =        47.94900195
  Ewald energy   TEWEN  =     41309.03722986
  -Hartree energ DENC   =    -48276.32904442
  -exchange      EXHF   =         0.00000000
  -V(xc)+E(xc)   XCENC  =       657.72865116
  PAW double counting   =    158685.13111954  -158543.60485916
  entropy T*S    EENTRO =        -0.00000000
  eigenvalues    EBANDS =     -2772.75007888
  atomic energy  EATOM  =      8369.52358910
  ---------------------------------------------------
  free energy    TOTEN  =      -523.31439085 eV

  energy without entropy =     -523.31439085  energy(sigma->0) =     -523.31439085


--------------------------------------------------------------------------------------------------------




--------------------------------------- Iteration      1(  25)  ---------------------------------------


    POTLOK:  cpu time    1.6827: real time    1.6923
    SETDIJ:  cpu time    0.2171: real time    0.2179
    TRIAL :  cpu time   20.0928: real time   20.2437
    CORREC:  cpu time    8.8749: real time    8.9394
    CHARGE:  cpu time    3.0111: real time    3.0369
    --------------------------------------------
      LOOP:  cpu time   33.9627: real time   34.2173

 eigenvalue-minimisations  :     0
 total energy-change (2. order) :-0.1369335E-06  ( 0.1339185E-06)
 number of electron     216.0000000 magnetization 
 augmentation part       -0.5315600 magnetization 

 Free energy of the ion-electron system (eV)
  ---------------------------------------------------
  alpha Z        PSCENC =        47.94900195
  Ewald energy   TEWEN  =     41309.03722986
  -Hartree energ DENC   =    -48276.33184951
  -exchange      EXHF   =         0.00000000
  -V(xc)+E(xc)   XCENC  =       657.72888976
  PAW double counting   =    158684.49146377  -158542.96522649
  entropy T*S    EENTRO =        -0.00000000
  eigenvalues    EBANDS =     -2772.74748942
  atomic energy  EATOM  =      8369.52358910
  ---------------------------------------------------
  free energy    TOTEN  =      -523.31439098 eV

  energy without entropy =     -523.31439098  energy(sigma->0) =     -523.31439098


--------------------------------------------------------------------------------------------------------




--------------------------------------- Iteration      1(  26)  ---------------------------------------


    POTLOK:  cpu time    1.6791: real time    1.6949
    SETDIJ:  cpu time    0.2156: real time    0.2164
    TRIAL :  cpu time   20.0955: real time   20.2441
    CORREC:  cpu time    8.8497: real time    8.9248
    EDDIAG:  cpu time    4.1609: real time    4.1980
    CHARGE:  cpu time    2.9987: real time    3.0202
    --------------------------------------------
      LOOP:  cpu time   38.0642: real time   38.3930

 eigenvalue-minimisations  :     0
 total energy-change (2. order) :-0.5107722E-07  ( 0.6615807E-08)
 number of electron     216.0000000 magnetization 
 augmentation part       -0.5315612 magnetization 

 Free energy of the ion-electron system (eV)
  ---------------------------------------------------
  alpha Z        PSCENC =        47.94900195
  Ewald energy   TEWEN  =     41309.03722986
  -Hartree energ DENC   =    -48276.32976144
  -exchange      EXHF   =         0.00000000
  -V(xc)+E(xc)   XCENC  =       657.72872549
  PAW double counting   =    158683.82309588  -158542.29681214
  entropy T*S    EENTRO =        -0.00000000
  eigenvalues    EBANDS =     -2772.74945973
  atomic energy  EATOM  =      8369.52358910
  ---------------------------------------------------
  free energy    TOTEN  =      -523.31439103 eV

  energy without entropy =     -523.31439103  energy(sigma->0) =     -523.31439103


--------------------------------------------------------------------------------------------------------


  average scaling for gradient   0.9097


 average (electrostatic) potential at core
  the test charge radii are     0.5770  0.5955
  (the norm of the test charge is              1.0000)
       1 -87.9770       2 -87.9766       3 -87.9770       4 -87.9774       5 -87.9760
       6 -87.9760       7 -87.9769       8 -87.9760       9 -87.9763      10 -87.9764
      11 -87.9760      12 -87.9759      13 -87.9763      14 -87.9762      15 -87.9759
      16 -87.9760      17 -87.9764      18 -87.9767      19 -87.9769      20 -87.9764
      21 -87.9758      22 -87.9757      23 -87.9776      24 -87.9776      25 -87.9759
      26 -87.9760      27 -87.9763      28 -87.9770      29 -87.9758      30 -87.9758
      31 -87.9770      32 -87.9767      33 -87.9761      34 -87.9761      35 -87.9760
      36 -87.9761      37 -87.9765      38 -87.9768      39 -87.9766      40 -87.9767
      41 -87.9767      42 -87.9767      43 -87.9765      44 -87.9770      45 -87.9759
      46 -87.9760      47 -87.9759      48 -87.9760      49 -87.9768      50 -87.9766
      51 -91.8732      52-124.2563      53-124.2556
 
 
 
 E-fermi :  -4.4530     XC(G=0):  -1.8858     alpha+bet : -1.6890

 Fermi energy:        -4.4529911199

 k-point     1 :       0.0000    0.0000    0.0000
  band No.  band energies     occupation 
      1     -29.1530      2.00000
      2     -28.0444      2.00000
      3     -23.6831      2.00000
      4     -22.6909      2.00000
      5     -22.6894      2.00000
      6     -22.6893      2.00000
      7     -22.6890      2.00000
      8     -22.6889      2.00000
      9     -22.6882      2.00000
     10     -20.7437      2.00000
     11     -20.7436      2.00000
     12     -20.7433      2.00000
     13     -20.7426      2.00000
     14     -20.7421      2.00000
     15     -20.7419      2.00000
     16     -19.8009      2.00000
     17     -19.8007      2.00000
     18     -19.8003      2.00000
     19     -19.8000      2.00000
     20     -19.7992      2.00000
     21     -19.7989      2.00000
     22     -17.5603      2.00000
     23     -17.5599      2.00000
     24     -17.5592      2.00000
     25     -17.5590      2.00000
     26     -17.5585      2.00000
     27     -17.5583      2.00000
     28     -16.3920      2.00000
     29     -16.3919      2.00000
     30     -16.3909      2.00000
     31     -16.3907      2.00000
     32     -16.3903      2.00000
     33     -16.3902      2.00000
     34     -14.9851      2.00000
     35     -14.9849      2.00000
     36     -14.9843      2.00000
     37     -14.9841      2.00000
     38     -14.9840      2.00000
     39     -14.9837      2.00000
     40     -13.2135      2.00000
     41     -12.4932      2.00000
     42     -12.4929      2.00000
     43     -12.4924      2.00000
     44     -12.4924      2.00000
     45     -12.4912      2.00000
     46     -12.4909      2.00000
     47     -12.2856      2.00000
     48     -12.2855      2.00000
     49     -12.2848      2.00000
     50     -12.2847      2.00000
     51     -12.2846      2.00000
     52     -12.2844      2.00000
     53     -11.8682      2.00000
     54     -11.6733      2.00000
     55     -11.6731      2.00000
     56     -10.9765      2.00000
     57     -10.8231      2.00000
     58     -10.8230      2.00000
     59     -10.8213      2.00000
     60     -10.8209      2.00000
     61     -10.8208      2.00000
     62     -10.8206      2.00000
     63      -9.8000      2.00000
     64      -9.7989      2.00000
     65      -9.7986      2.00000
     66      -9.7985      2.00000
     67      -9.7983      2.00000
     68      -9.7980      2.00000
     69      -9.4915      2.00000
     70      -9.4904      2.00000
     71      -9.4900      2.00000
     72      -9.4899      2.00000
     73      -9.4895      2.00000
     74      -9.4893      2.00000
     75      -9.4850      2.00000
     76      -9.4847      2.00000
     77      -9.4838      2.00000
     78      -9.4836      2.00000
     79      -9.4834      2.00000
     80      -9.4828      2.00000
     81      -8.0356      2.00000
     82      -8.0355      2.00000
     83      -7.7465      2.00000
     84      -7.7447      2.00000
     85      -7.7445      2.00000
     86      -7.7442      2.00000
     87      -7.7432      2.00000
     88      -7.7431      2.00000
     89      -7.5519      2.00000
     90      -7.5516      2.00000
     91      -7.5514      2.00000
     92      -7.5509      2.00000
     93      -7.5506      2.00000
     94      -7.5503      2.00000
     95      -6.6064      2.00000
     96      -6.6063      2.00000
     97      -6.6060      2.00000
     98      -6.6059      2.00000
     99      -6.6052      2.00000
    100      -6.6049      2.00000
    101      -6.1744      2.00000
    102      -6.1721      2.00000
    103      -4.5069      2.00000
    104      -4.5064      2.00000
    105      -4.5059      2.00000
    106      -4.5058      2.00000
    107      -4.5053      2.00000
    108      -4.5052      2.00000
    109      -1.5130      0.00000
    110      -1.5128      0.00000
    111      -1.5125      0.00000
    112      -1.5124      0.00000
    113      -1.5116      0.00000
    114      -1.5113      0.00000
    115       0.4789      0.00000
    116       0.4792      0.00000
    117       0.4795      0.00000
    118       0.4796      0.00000
    119       0.4799      0.00000
    120       0.4812      0.00000
    121       0.7213      0.00000
    122       0.9715      0.00000
    123       1.1857      0.00000
    124       1.1857      0.00000
    125       1.4394      0.00000
    126       1.7861      0.00000
    127       2.0366      0.00000
    128       2.0401      0.00000
    129       2.0445      0.00000
    130       2.0485      0.00000
    131       2.0510      0.00000
    132       2.0519      0.00000
    133       2.2407      0.00000
    134       2.3461      0.00000
    135       2.3463      0.00000
    136       2.3467      0.00000
    137       2.3470      0.00000
    138       2.3472      0.00000
    139       2.3476      0.00000
    140       2.3558      0.00000
    141       2.5974      0.00000
    142       2.7072      0.00000
    143       2.7215      0.00000
    144       2.7267      0.00000
    145       2.7329      0.00000
    146       2.7415      0.00000
    147       2.7496      0.00000
    148       2.8042      0.00000
    149       2.8166      0.00000
    150       2.8211      0.00000
    151       2.8271      0.00000
    152       3.1576      0.00000
    153       3.3477      0.00000
    154       3.4150      0.00000
    155       3.4740      0.00000
    156       3.6368      0.00000
    157       4.0305      0.00000
    158       4.0994      0.00000
    159       4.1710      0.00000
    160       4.3445      0.00000
    161       4.5374      0.00000
    162       4.5750      0.00000
    163       4.8645      0.00000
    164       4.8722      0.00000
    165       4.8752      0.00000
    166       4.8780      0.00000
    167       4.8809      0.00000
    168       4.8821      0.00000


--------------------------------------------------------------------------------------------------------


 soft charge-density along one line, spin component           1
         0         1         2         3         4         5         6         7         8         9
 total charge-density along one line
 
 pseudopotential strength for first ion, spin component:           1
 12.639  21.266   0.000   0.000   0.000   0.000   0.000   0.000
 21.266  35.783   0.000   0.000   0.000   0.000   0.000   0.000
  0.000   0.000  -3.235  -0.000   0.000  -5.794   0.000   0.000
  0.000   0.000  -0.000  -3.235  -0.000   0.000  -5.793  -0.000
  0.000   0.000   0.000  -0.000  -3.235   0.000  -0.000  -5.794
  0.000   0.000  -5.794   0.000   0.000 -10.354   0.000   0.000
  0.000   0.000   0.000  -5.793  -0.000   0.000 -10.352  -0.000
  0.000   0.000   0.000  -0.000  -5.794   0.000  -0.000 -10.354
 total augmentation occupancy for first ion, spin component:           1
 10.264  -3.894  -0.000  -0.002  -0.000   0.000   0.001   0.000
 -3.894   1.507   0.000   0.001   0.000  -0.000  -0.000  -0.000
 -0.000   0.000   8.468  -0.009   0.000  -3.024   0.003  -0.000
 -0.002   0.001  -0.009   4.016  -0.000   0.003  -1.207   0.000
 -0.000   0.000   0.000  -0.000   8.468  -0.000   0.000  -3.024
  0.000  -0.000  -3.024   0.003  -0.000   1.093  -0.001   0.000
  0.001  -0.000   0.003  -1.207   0.000  -0.001   0.368  -0.000
  0.000  -0.000  -0.000   0.000  -3.024   0.000  -0.000   1.093


------------------------ aborting loop because EDIFF is reached ----------------------------------------


    FORLOC:  cpu time    0.1384: real time    0.1394
    FORNL :  cpu time    3.8149: real time    3.8473
    FORCOR:  cpu time    1.6114: real time    1.6206
    OFIELD:  cpu time    0.0029: real time    0.0029
 WARNING: Using user supplied parameters
     VDW_A1 = 0.495
     VDW_A2 = 5.731
     VDW_S8 = 0.79
     because the xc functional is not supported. Required parameters not
     defined in the INCAR file will be replaced with PBE defaults ones.


 ---------------------------------------------------------------------------------------------

         DFTD3 V3.0 Rev 1        
 IVDW         = 12
 DF unknown   
 parameters
 VDW_S6       =    1.0000
 VDW_S8       =    0.7898
 VDW_A1       =    0.4948
 VDW_A2       =    5.7308
 k1-k3        =   16.0000    1.3333   -4.0000
 VDW_RADIUS   =   50.2022 A
 VDW_CNRADIUS =   21.1671 A
 Edisp (eV)   -1.69098

 E6    (eV) :    -1.3053
 E8    (eV) :    -0.3857
 % E8        : 22.81
    FORVDW:  cpu time    0.1425: real time    0.1441

 VOLUME and BASIS-vectors are now :
 -----------------------------------------------------------------------------
  energy-cutoff  :     1000.00
  volume of cell :     3288.85
      direct lattice vectors                 reciprocal lattice vectors
    12.325000000  0.000000000  0.000000000     0.081135903  0.046843835  0.000000000
    -6.162500000 10.673763102  0.000000000     0.000000000  0.093687670  0.000000000
     0.000000000  0.000000000 25.000000000     0.000000000  0.000000000  0.040000000

  length of vectors
    12.325000000 12.325000000 25.000000000     0.093687670  0.093687670  0.040000000


 FORCES acting on ions:
    Electron-Ion                     Ewald-Force                    Non-Local-Force
 -----------------------------------------------------------------------------------------------
   0.628E+00 0.561E+00 0.136E+02   -.629E+00 -.562E+00 -.136E+02   0.447E-02 -.726E-03 0.606E-02
   0.861E+00 0.485E+00 0.146E+02   -.864E+00 -.482E+00 -.146E+02   0.274E-02 -.323E-02 -.606E-02
   0.342E+00 0.940E+00 0.146E+02   -.344E+00 -.940E+00 -.146E+02   -.301E-03 0.113E-01 -.197E-02
   0.430E+00 0.632E+00 0.168E+02   -.427E+00 -.631E+00 -.168E+02   0.116E-01 0.442E-03 -.172E-01
   0.711E+00 0.191E+00 0.141E+02   -.710E+00 -.191E+00 -.141E+02   -.683E-03 -.525E-02 0.392E-02
   0.726E+00 -.164E+00 0.143E+02   -.729E+00 0.165E+00 -.143E+02   -.648E-02 0.335E-02 -.217E-02
   0.817E+00 0.377E+00 0.169E+02   -.818E+00 -.377E+00 -.169E+02   0.116E-01 -.192E-01 -.730E-02
   0.846E+00 -.258E+00 0.181E+02   -.851E+00 0.261E+00 -.181E+02   -.742E-02 -.537E-02 -.606E-02
   -.405E+00 0.933E+00 0.150E+02   0.408E+00 -.936E+00 -.150E+02   0.998E-04 -.134E-01 -.529E-02
   -.505E+00 0.450E+00 0.171E+02   0.506E+00 -.451E+00 -.171E+02   -.256E-01 0.146E-01 0.209E-02
   0.189E+00 -.192E+00 0.134E+02   -.186E+00 0.192E+00 -.134E+02   0.396E-02 -.265E-02 0.880E-03
   0.191E+00 -.156E+00 0.132E+02   -.192E+00 0.157E+00 -.132E+02   -.659E-02 0.326E-02 0.695E-02
   0.219E+00 -.651E+00 0.189E+02   -.219E+00 0.654E+00 -.189E+02   0.263E-01 -.745E-02 -.269E-02
   0.143E+00 -.102E+01 0.162E+02   -.147E+00 0.103E+01 -.162E+02   0.346E-02 0.705E-02 -.168E-01
   -.672E+00 0.401E+00 0.137E+02   0.674E+00 -.402E+00 -.137E+02   0.745E-02 -.415E-02 0.840E-02
   -.840E+00 0.223E+00 0.139E+02   0.839E+00 -.223E+00 -.139E+02   -.123E-02 0.496E-02 -.436E-02
   -.117E+00 -.508E-01 0.128E+02   0.120E+00 0.490E-01 -.128E+02   0.132E-03 0.412E-03 0.236E-02
   0.576E-01 0.411E+00 0.128E+02   -.572E-01 -.412E+00 -.129E+02   -.282E-02 0.150E-02 0.963E-02
   -.181E+00 -.968E+00 0.148E+02   0.181E+00 0.969E+00 -.148E+02   0.575E-02 -.131E-02 0.526E-04
   -.109E+00 -.602E+00 0.136E+02   0.106E+00 0.603E+00 -.136E+02   -.147E-03 -.646E-03 -.525E-03
   0.920E+00 -.384E+00 0.156E+02   -.920E+00 0.385E+00 -.156E+02   -.211E-02 -.193E-02 -.165E-01
   0.668E+00 -.531E+00 0.147E+02   -.670E+00 0.533E+00 -.147E+02   -.695E-02 0.537E-02 -.139E-02
   -.150E+00 0.255E+00 0.187E+02   0.146E+00 -.253E+00 -.187E+02   -.104E-01 0.103E-01 -.568E-03
   -.228E+00 -.404E+00 0.187E+02   0.230E+00 0.402E+00 -.187E+02   0.121E-01 -.148E-01 -.127E-01
   0.359E+00 -.131E+00 0.135E+02   -.357E+00 0.129E+00 -.135E+02   0.372E-02 -.260E-02 -.231E-02
   0.112E+00 0.302E+00 0.133E+02   -.113E+00 -.301E+00 -.133E+02   -.494E-02 0.326E-02 0.653E-02
   -.997E+00 0.788E-01 0.154E+02   0.100E+01 -.811E-01 -.155E+02   0.122E-01 0.758E-02 -.283E-02
   -.909E+00 -.387E+00 0.149E+02   0.910E+00 0.386E+00 -.149E+02   -.820E-02 0.900E-02 0.152E-03
   0.353E+00 -.754E+00 0.149E+02   -.352E+00 0.754E+00 -.148E+02   0.394E-02 0.249E-02 -.630E-02
   0.361E-01 -.331E+00 0.137E+02   -.383E-01 0.333E+00 -.137E+02   -.488E-02 0.251E-02 -.140E-02
   -.650E+00 -.638E+00 0.159E+02   0.648E+00 0.639E+00 -.158E+02   -.117E-01 -.775E-02 -.149E-01
   -.484E+00 -.927E+00 0.146E+02   0.486E+00 0.926E+00 -.146E+02   0.756E-03 -.716E-03 0.125E-02
   0.331E-01 0.212E+00 0.131E+02   -.328E-01 -.212E+00 -.131E+02   0.482E-02 -.460E-02 0.795E-02
   0.117E+00 0.179E+00 0.132E+02   -.119E+00 -.178E+00 -.132E+02   -.237E-02 0.458E-02 -.341E-03
   -.444E+00 0.855E-01 0.134E+02   0.447E+00 -.865E-01 -.134E+02   0.428E-02 -.252E-02 0.699E-02
   -.389E+00 -.187E+00 0.133E+02   0.388E+00 0.187E+00 -.133E+02   -.353E-02 0.217E-02 0.458E-02
   -.728E+00 -.407E+00 0.135E+02   0.731E+00 0.404E+00 -.135E+02   -.429E-03 0.102E-02 0.355E-02
   -.488E+00 -.396E+00 0.131E+02   0.489E+00 0.396E+00 -.131E+02   -.356E-02 0.130E-02 0.924E-02
   -.451E+00 -.564E+00 0.133E+02   0.450E+00 0.566E+00 -.133E+02   -.273E-02 0.570E-03 0.462E-02
   -.656E-01 -.164E+00 0.130E+02   0.667E-01 0.163E+00 -.130E+02   0.190E-02 0.814E-03 0.733E-02
   0.174E+00 0.427E+00 0.129E+02   -.175E+00 -.427E+00 -.129E+02   -.389E-02 0.159E-02 0.696E-02
   0.519E+00 0.771E+00 0.135E+02   -.518E+00 -.772E+00 -.136E+02   -.899E-03 -.110E-02 0.726E-02
   0.652E-01 0.697E+00 0.131E+02   -.621E-01 -.698E+00 -.131E+02   0.682E-04 0.401E-03 0.260E-02
   0.829E-02 0.996E+00 0.142E+02   -.769E-02 -.998E+00 -.142E+02   -.788E-02 0.144E-02 0.489E-02
   -.138E+00 0.250E+00 0.135E+02   0.140E+00 -.252E+00 -.135E+02   0.409E-02 -.315E-02 0.249E-02
   -.474E+00 0.618E+00 0.139E+02   0.474E+00 -.618E+00 -.139E+02   -.570E-02 -.274E-04 -.612E-03
   -.152E+00 -.314E+00 0.135E+02   0.153E+00 0.313E+00 -.135E+02   0.587E-02 -.117E-02 0.683E-02
   -.284E+00 0.961E-01 0.131E+02   0.283E+00 -.954E-01 -.131E+02   -.364E-02 0.335E-02 -.225E-02
   0.208E-01 -.187E+00 0.131E+02   -.209E-01 0.187E+00 -.131E+02   0.406E-02 -.297E-02 0.597E-02
   0.301E+00 0.218E+00 0.130E+02   -.304E+00 -.217E+00 -.130E+02   -.477E-03 0.181E-02 0.351E-02
   -.297E-02 0.282E-01 -.179E+03   -.143E-02 -.241E-01 0.180E+03   -.284E-02 0.178E-02 -.946E-03
   -.228E+03 0.155E+03 -.282E+03   0.279E+03 -.190E+03 0.285E+03   -.523E+02 0.356E+02 -.351E+01
   0.228E+03 -.155E+03 -.260E+03   -.279E+03 0.190E+03 0.257E+03   0.523E+02 -.356E+02 0.316E+01
 -----------------------------------------------------------------------------------------------
   -.798E-02 0.146E-01 0.358E+00   0.114E-12 -.114E-12 -.114E-12   0.778E-02 -.149E-01 -.354E+00
 
 
 POSITION                                       TOTAL-FORCE (eV/Angst)
 -----------------------------------------------------------------------------------
     11.98348      0.00342      0.01417         0.003514     -0.001907     -0.001430
     -0.34154      1.42665      0.01100        -0.000771     -0.000127     -0.003708
      2.12355      0.00315      0.01249        -0.002261      0.011027     -0.007258
      2.12326      1.42653      0.00641         0.014155      0.001030     -0.008596
     10.75099      2.13819      0.01213         0.000944     -0.005916     -0.000178
     -1.57382      3.56123      0.01110        -0.009463      0.004501     -0.001473
      0.89078      2.13854      0.00548         0.009977     -0.019747      0.002957
      0.89099      3.56147      0.00181        -0.011898     -0.002835      0.013613
      4.58864      0.00346      0.01135         0.003470     -0.016179     -0.003756
      4.58894      1.42623      0.00646        -0.024024      0.013670      0.015365
      9.51854      4.27281      0.01369         0.007034     -0.002885      0.000118
     -2.80632      5.69591      0.01434        -0.007103      0.003402      0.000682
      2.12300      4.27302      0.00000         0.025582     -0.005168      0.023016
      2.12335      5.69594      0.00581        -0.000478      0.009138     -0.002236
      7.05344      0.00333      0.01399         0.009492     -0.005701     -0.000579
      7.05353      1.42635      0.01368        -0.001802      0.005165     -0.004201
      8.28610      6.40752      0.01601         0.003088     -0.001245     -0.001053
     -4.03885      7.83070      0.01636        -0.002568      0.001055     -0.000430
      3.35586      6.40753      0.01007         0.005648      0.000665     -0.001263
      3.35599      7.83072      0.01320        -0.002998      0.000176     -0.000792
     -0.34146      4.27290      0.00723        -0.001583     -0.001396     -0.004331
     -0.34138      5.69591      0.00946        -0.009460      0.006578     -0.001019
      3.35624      2.13791      0.00222        -0.014718      0.012332      0.017880
      3.35573      3.56155      0.00139         0.014459     -0.016823      0.009997
     -1.57395      6.40758      0.01311         0.005614     -0.003935     -0.000639
     -1.57385      7.83068      0.01438        -0.005259      0.004098     -0.000180
      5.82093      2.13784      0.01033         0.015989      0.005111     -0.003065
      5.82114      3.56097      0.01156        -0.006488      0.008878     -0.004172
      0.89092      6.40755      0.00907         0.004792      0.002255     -0.002206
      0.89106      7.83068      0.01235        -0.006918      0.004280      0.000308
      4.58871      4.27293      0.00850        -0.013840     -0.006217     -0.011469
      4.58852      5.69606      0.01149         0.002549     -0.001588     -0.004426
      9.51845      0.00337      0.01490         0.005131     -0.005002     -0.000028
      9.51855      1.42644      0.01438        -0.005408      0.005496     -0.000514
      8.28593      2.13803      0.01453         0.007178     -0.003511      0.000397
      8.28613      3.56115      0.01464        -0.004721      0.002205     -0.000248
      7.05356      4.27269      0.01457         0.002710     -0.000945     -0.001022
      7.05362      5.69588      0.01553        -0.002669      0.001588     -0.000373
      5.82112      6.40755      0.01489        -0.003351      0.002000     -0.000382
      5.82102      7.83073      0.01579         0.003097      0.000216     -0.000573
      7.05363      8.54227      0.01631        -0.004873      0.001560      0.000772
     -5.27149      9.96549      0.01495         0.000460     -0.002101     -0.002778
     -2.80638      8.54234      0.01558         0.003203     -0.001429     -0.001635
     -2.80627      9.96553      0.01362        -0.007315      0.000107     -0.004442
     -0.34149      8.54239      0.01378         0.005885     -0.005320      0.000098
     -0.34138      9.96550      0.01354        -0.006052      0.000330     -0.001477
      2.12343      8.54232      0.01336         0.006079     -0.001810      0.000753
      2.12354      9.96544      0.01469        -0.005157      0.004202     -0.002091
      4.58846      8.54235      0.01505         0.003869     -0.002880      0.000810
      4.58853      9.96550      0.01517        -0.002638      0.003563     -0.000104
      3.04930      2.68154      8.40896        -0.007280      0.005871      0.038933
      4.02070      2.02068      8.47339        -1.425054      0.969236     -0.111720
      2.07767      3.34267      8.34951         1.432231     -0.975067      0.070147
 -----------------------------------------------------------------------------------
    total drift:                               -0.000203     -0.000360      0.003973


--------------------------------------------------------------------------------------------------------



  FREE ENERGIE OF THE ION-ELECTRON SYSTEM (eV)
  ---------------------------------------------------
  free  energy   TOTEN  =      -525.00536650 eV

  energy  without entropy=     -525.00536650  energy(sigma->0) =     -525.00536650
 


--------------------------------------------------------------------------------------------------------


    POTLOK:  cpu time    1.8943: real time    1.9048


--------------------------------------------------------------------------------------------------------


 writing wavefunctions
     LOOP+:  cpu time  935.3674: real time  942.8651
    4ORBIT:  cpu time    0.0000: real time    0.0000

 total amount of memory used by VASP MPI-rank0   698619. kBytes
=======================================================================

   base      :      30000. kBytes
   nonl-proj :     230539. kBytes
   fftplans  :      40716. kBytes
   grid      :     363125. kBytes
   one-center:        162. kBytes
   wavefun   :      34077. kBytes
 
  
  
 General timing and accounting informations for this job:
 ========================================================
  
                  Total CPU time used (sec):      980.484
                            User time (sec):      954.153
                          System time (sec):       26.332
                         Elapsed time (sec):      989.438
  
                   Maximum memory used (kb):     1235156.
                   Average memory used (kb):          N/A
  
                          Minor page faults:       151608
                          Major page faults:          139
                 Voluntary context switches:         3793
