 vasp.6.2.1 16May21 (build Nov 06 2021 14:46:37) complex                        
  
 executed on             LinuxIFC date 2025.04.06  13:24:02
 running on  112 total cores
 distrk:  each k-point on   56 cores,    2 groups
 distr:  one band on NCORE=   1 cores,   56 groups


--------------------------------------------------------------------------------------------------------


 INCAR:
   ALGO = Conjugate
   KPAR = 2
   NCORE = 32
   ISMEAR = 0
   SIGMA = 0.01
   PREC = Accurate
   EDIFF = 1E-7
   ENCUT = 1000
   ISIF = 0
   METAGGA = R2SCAN
   LASPH = .TRUE.
   IVDW = 12
   VDW_S8 = 0.7898
   VDW_A1 = 0.4948
   VDW_A2 = 5.7308
   SYMPREC = 1E-7

 POTCAR:    PAW_PBE C_h 06Feb2004                 
 POTCAR:    PAW_PBE O_h 06Feb2004                 
 -----------------------------------------------------------------------------
|                                                                             |
|           W    W    AA    RRRRR   N    N  II  N    N   GGGG   !!!           |
|           W    W   A  A   R    R  NN   N  II  NN   N  G    G  !!!           |
|           W    W  A    A  R    R  N N  N  II  N N  N  G       !!!           |
|           W WW W  AAAAAA  RRRRR   N  N N  II  N  N N  G  GGG   !            |
|           WW  WW  A    A  R   R   N   NN  II  N   NN  G    G                |
|           W    W  A    A  R    R  N    N  II  N    N   GGGG   !!!           |
|                                                                             |
|     The value NCORE = 32 specified in the INCAR file was overwritten,       |
|     because it was not compatible with the 56 processes available:          |
|     NCORE = 1                                                               |
|     was used instead, please check that this makes sense for your           |
|     machine.                                                                |
|                                                                             |
 -----------------------------------------------------------------------------

 -----------------------------------------------------------------------------
|                                                                             |
|           W    W    AA    RRRRR   N    N  II  N    N   GGGG   !!!           |
|           W    W   A  A   R    R  NN   N  II  NN   N  G    G  !!!           |
|           W    W  A    A  R    R  N N  N  II  N N  N  G       !!!           |
|           W WW W  AAAAAA  RRRRR   N  N N  II  N  N N  G  GGG   !            |
|           WW  WW  A    A  R   R   N   NN  II  N   NN  G    G                |
|           W    W  A    A  R    R  N    N  II  N    N   GGGG   !!!           |
|                                                                             |
|     For optimal performance we recommend to set                             |
|       NCORE = 2 up to number-of-cores-per-socket                            |
|     NCORE specifies how many cores store one orbital (NPAR=cpu/NCORE).      |
|     This setting can greatly improve the performance of VASP for DFT.       |
|     The default, NCORE=1 might be grossly inefficient on modern             |
|     multi-core architectures or massively parallel machines. Do your        |
|     own testing! More info at https://www.vasp.at/wiki/index.php/NCORE      |
|     Unfortunately you need to use the default for GW and RPA                |
|     calculations (for HF NCORE is supported but not extensively tested      |
|     yet).                                                                   |
|                                                                             |
 -----------------------------------------------------------------------------

 POTCAR:    PAW_PBE C_h 06Feb2004                 
   VRHFIN =C: s2p2                                                                                  
   LEXCH  = PE                                                                                      
   EATOM  =   147.1560 eV,   10.8157 Ry                                                             
                                                                                                    
   TITEL  = PAW_PBE C_h 06Feb2004                                                                   
   LULTRA =        F    use ultrasoft PP ?                                                          
   IUNSCR =        1    unscreen: 0-lin 1-nonlin 2-no                                               
   RPACOR =    0.800    partial core radius                                                         
   POMASS =   12.011; ZVAL   =    4.000    mass and valenz                                          
   RCORE  =    1.100    outmost cutoff radius                                                       
   RWIGS  =    1.630; RWIGS  =    0.863    wigner-seitz radius (au A)                               
   ENMAX  =  700.000; ENMIN  =  500.000 eV                                                          
   ICORE  =        2    local potential                                                             
   LCOR   =        T    correct aug charges                                                         
   LPAW   =        T    paw PP                                                                      
   EAUG   =  946.768                                                                                
   DEXC   =    0.000                                                                                
   RMAX   =    1.128    core radius for proj-oper                                                   
   RAUG   =    1.300    factor for augmentation sphere                                              
   RDEP   =    1.162    radius for radial grids                                                     
   RDEPT  =    1.088    core radius for aug-charge                                                  
                                                                                                    
   Atomic configuration                                                                             
    4 entries                                                                                       
     n  l   j            E        occ.                                                              
     1  0  0.50      -273.3789   2.0000                                                             
     2  0  0.50       -13.7508   2.0000                                                             
     2  1  0.50        -5.2854   2.0000                                                             
     3  2  1.50        -5.4423   0.0000                                                             
   Description                                                                                      
     l       E           TYP  RCUT    TYP  RCUT                                                     
     0    -13.7508458     23  1.100                                                                 
     0     -8.2022199     23  1.100                                                                 
     1     -5.2854383     23  1.100                                                                 
     1      1.1560700     23  1.100                                                                 
     2     -5.4423304      7  1.100                                                                 
  local pseudopotential read in
  partial core-charges read in
  partial kinetic energy density read in
  atomic valenz-charges read in
  non local Contribution for L=           0  read in
    real space projection operators read in
  non local Contribution for L=           0  read in
    real space projection operators read in
  non local Contribution for L=           1  read in
    real space projection operators read in
  non local Contribution for L=           1  read in
    real space projection operators read in
    PAW grid and wavefunctions read in
 
   number of l-projection  operators is LMAX  =           4
   number of lm-projection operators is LMMAX =           8
 
 POTCAR:    PAW_PBE O_h 06Feb2004                 
   VRHFIN =O: s2p4                                                                                  
   LEXCH  = PE                                                                                      
   EATOM  =   432.3788 eV,   31.7789 Ry                                                             
                                                                                                    
   TITEL  = PAW_PBE O_h 06Feb2004                                                                   
   LULTRA =        F    use ultrasoft PP ?                                                          
   IUNSCR =        1    unscreen: 0-lin 1-nonlin 2-no                                               
   RPACOR =    0.800    partial core radius                                                         
   POMASS =   16.000; ZVAL   =    6.000    mass and valenz                                          
   RCORE  =    1.100    outmost cutoff radius                                                       
   RWIGS  =    1.400; RWIGS  =    0.741    wigner-seitz radius (au A)                               
   ENMAX  =  700.000; ENMIN  =  500.000 eV                                                          
   ICORE  =        2    local potential                                                             
   LCOR   =        T    correct aug charges                                                         
   LPAW   =        T    paw PP                                                                      
   EAUG   =  888.804                                                                                
   DEXC   =    0.000                                                                                
   RMAX   =    1.128    core radius for proj-oper                                                   
   RAUG   =    1.300    factor for augmentation sphere                                              
   RDEP   =    1.125    radius for radial grids                                                     
   RDEPT  =    1.088    core radius for aug-charge                                                  
                                                                                                    
   Atomic configuration                                                                             
    4 entries                                                                                       
     n  l   j            E        occ.                                                              
     1  0  0.50      -514.6923   2.0000                                                             
     2  0  0.50       -23.9615   2.0000                                                             
     2  1  0.50        -9.0305   4.0000                                                             
     3  2  1.50        -9.5241   0.0000                                                             
   Description                                                                                      
     l       E           TYP  RCUT    TYP  RCUT                                                     
     0    -23.9615319     23  1.100                                                                 
     0    -25.3221145     23  1.100                                                                 
     1     -9.0304911     23  1.100                                                                 
     1     -5.4802209     23  1.100                                                                 
     2     -9.5240782      7  1.100                                                                 
  local pseudopotential read in
  partial core-charges read in
  partial kinetic energy density read in
  atomic valenz-charges read in
  non local Contribution for L=           0  read in
    real space projection operators read in
  non local Contribution for L=           0  read in
    real space projection operators read in
  non local Contribution for L=           1  read in
    real space projection operators read in
  non local Contribution for L=           1  read in
    real space projection operators read in
    PAW grid and wavefunctions read in
 
   number of l-projection  operators is LMAX  =           4
   number of lm-projection operators is LMMAX =           8
 
 -----------------------------------------------------------------------------
|                                                                             |
|               ----> ADVICE to this user running VASP <----                  |
|                                                                             |
|     You have a (more or less) 'large supercell' and for larger cells it     |
|     might be more efficient to use real-space projection operators.         |
|     Therefore, try LREAL= Auto in the INCAR file.                           |
|     Mind: For very accurate calculation, you might also keep the            |
|     reciprocal projection scheme (i.e. LREAL=.FALSE.).                      |
|                                                                             |
 -----------------------------------------------------------------------------

  PAW_PBE C_h 06Feb2004                 :
 energy of atom  1       EATOM= -147.1560
 kinetic energy error for atom=    0.0031 (will be added to EATOM!!)
  PAW_PBE O_h 06Feb2004                 :
 energy of atom  2       EATOM= -432.3788
 kinetic energy error for atom=    0.0171 (will be added to EATOM!!)
 
 
 POSCAR:  C  O
  positions in cartesian coordinates
  No initial velocities read in

 METAGGA = R2SCA    LMAXTAU =  6    LMIXTAU =  F

 exchange correlation table for  LEXCH =        8
   RHO(1)=    0.500       N(1)  =     2000
   RHO(2)=  100.500       N(2)  =     4000
 


--------------------------------------------------------------------------------------------------------


 ion  position               nearest neighbor table
   1  0.972  0.000  0.001-  50 1.42   2 1.42  42 1.42
   2  0.039  0.134  0.001-   5 1.42   7 1.42   1 1.42
   3  0.172  0.000  0.001-  42 1.42  44 1.42   4 1.42
   4  0.239  0.134  0.000-   7 1.42   3 1.42  23 1.42
   5  0.972  0.200  0.001-   6 1.42   2 1.42  34 1.42
   6  0.039  0.334  0.001-   5 1.42  21 1.42  11 1.42
   7  0.172  0.200  0.000-   8 1.42   2 1.42   4 1.42
   8  0.239  0.334  0.000-  13 1.42   7 1.42  21 1.42
   9  0.372  0.000  0.001-  10 1.42  44 1.42  46 1.42
  10  0.439  0.134  0.000-  27 1.42   9 1.42  23 1.42
  11  0.972  0.400  0.001-  12 1.42  36 1.42   6 1.42
  12  0.039  0.534  0.001-  25 1.42  11 1.42  17 1.42
  13  0.372  0.400  0.000-   8 1.42  14 1.42  24 1.42
  14  0.439  0.534  0.000-  13 1.42  29 1.42  19 1.42
  15  0.572  0.000  0.001-  46 1.42  16 1.42  48 1.42
  16  0.639  0.134  0.001-  15 1.42  35 1.42  27 1.42
  17  0.972  0.600  0.001-  38 1.42  18 1.42  12 1.42
  18  0.039  0.734  0.001-  43 1.42  41 1.42  17 1.42
  19  0.572  0.600  0.001-  14 1.42  20 1.42  32 1.42
  20  0.639  0.734  0.001-  49 1.42  19 1.42  47 1.42
  21  0.172  0.400  0.000-  22 1.42   8 1.42   6 1.42
  22  0.239  0.534  0.000-  21 1.42  29 1.42  25 1.42
  23  0.372  0.200  0.000-  10 1.42   4 1.42  24 1.42
  24  0.439  0.334  0.000-  13 1.42  31 1.42  23 1.42
  25  0.172  0.600  0.001-  26 1.42  12 1.42  22 1.42
  26  0.239  0.734  0.001-  25 1.42  45 1.42  43 1.42
  27  0.572  0.200  0.001-  10 1.42  28 1.42  16 1.42
  28  0.639  0.334  0.001-  27 1.42  37 1.42  31 1.42
  29  0.372  0.600  0.000-  22 1.42  14 1.42  30 1.42
  30  0.439  0.734  0.001-  47 1.42  29 1.42  45 1.42
  31  0.572  0.400  0.000-  32 1.42  28 1.42  24 1.42
  32  0.639  0.534  0.001-  31 1.42  39 1.42  19 1.42
  33  0.772  0.000  0.001-  34 1.42  48 1.42  50 1.42
  34  0.839  0.134  0.001-  33 1.42   5 1.42  35 1.42
  35  0.772  0.200  0.001-  36 1.42  16 1.42  34 1.42
  36  0.839  0.334  0.001-  35 1.42  11 1.42  37 1.42
  37  0.772  0.400  0.001-  28 1.42  38 1.42  36 1.42
  38  0.839  0.534  0.001-  17 1.42  37 1.42  39 1.42
  39  0.772  0.600  0.001-  40 1.42  38 1.42  32 1.42
  40  0.839  0.734  0.001-  39 1.42  49 1.42  41 1.42
  41  0.972  0.800  0.001-  18 1.42  42 1.42  40 1.42
  42  0.039  0.934  0.001-   3 1.42  41 1.42   1 1.42
  43  0.172  0.800  0.001-  18 1.42  44 1.42  26 1.42
  44  0.239  0.934  0.001-   9 1.42  43 1.42   3 1.42
  45  0.372  0.800  0.001-  26 1.42  46 1.42  30 1.42
  46  0.439  0.934  0.001-  15 1.42  45 1.42   9 1.42
  47  0.572  0.800  0.001-  30 1.42  48 1.42  20 1.42
  48  0.639  0.934  0.001-  47 1.42  33 1.42  15 1.42
  49  0.772  0.800  0.001-  50 1.42  20 1.42  40 1.42
  50  0.839  0.934  0.001-  49 1.42   1 1.42  33 1.42
  51  0.373  0.251  0.334-  52 1.18  53 1.18
  52  0.421  0.189  0.337-  51 1.18
  53  0.325  0.313  0.331-  51 1.18
 
  LATTYP: Found a hexagonal cell.
 ALAT       =    12.3250000000
 C/A-ratio  =     1.6227180527
  
  Lattice vectors:
  
 A1 = (  12.3250000000,   0.0000000000,   0.0000000000)
 A2 = (  -6.1625000000,  10.6737631016,   0.0000000000)
 A3 = (   0.0000000000,   0.0000000000,  20.0000000000)


Analysis of symmetry for initial positions (statically):
=====================================================================
 Subroutine PRICEL returns:
 Original cell was already a primitive cell.
 

 Routine SETGRP: Setting up the symmetry group for a 
 hexagonal supercell.


 Subroutine GETGRP returns: Found  1 space group operations
 (whereof  1 operations were pure point group operations)
 out of a pool of 24 trial point group operations.


The static configuration has the point symmetry C_1 .


Analysis of symmetry for dynamics (positions and initial velocities):
=====================================================================
 Subroutine PRICEL returns:
 Original cell was already a primitive cell.
 

 Routine SETGRP: Setting up the symmetry group for a 
 hexagonal supercell.


 Subroutine GETGRP returns: Found  1 space group operations
 (whereof  1 operations were pure point group operations)
 out of a pool of 24 trial point group operations.


The dynamic configuration has the point symmetry C_1 .


 Subroutine INISYM returns: Found  1 space group operations
 (whereof  1 operations are pure point group operations),
 and found     1 'primitive' translations


----------------------------------------------------------------------------------------

                                     Primitive cell                                     

  volume of cell :    2631.0826

  direct lattice vectors                    reciprocal lattice vectors
    12.325000000  0.000000000  0.000000000     0.081135903  0.046843835  0.000000000
    -6.162500000 10.673763102  0.000000000     0.000000000  0.093687670  0.000000000
     0.000000000  0.000000000 20.000000000     0.000000000  0.000000000  0.050000000

  length of vectors
    12.325000000 12.325000000 20.000000000     0.093687670  0.093687670  0.050000000

  position of ions in fractional coordinates (direct lattice)
     0.972450841  0.000320818  0.000708389
     0.039118382  0.133659505  0.000550216
     0.172443627  0.000295449  0.000624535
     0.239096278  0.133647917  0.000320585
     0.972452058  0.200322012  0.000606523
     0.039128360  0.333643771  0.000555187
     0.172451764  0.200354552  0.000273959
     0.239124359  0.333665720  0.000090325
     0.372465565  0.000324403  0.000567391
     0.439137473  0.133619939  0.000322923
     0.972449824  0.400309362  0.000684513
     0.039124981  0.533636789  0.000716763
     0.372416176  0.400329481  0.000000000
     0.439099602  0.533638981  0.000290518
     0.572443676  0.000312125  0.000699475
     0.639110207  0.133631751  0.000684093
     0.972452703  0.600305653  0.000800361
     0.039124495  0.733640359  0.000818141
     0.572433471  0.600306242  0.000503618
     0.639111888  0.733641879  0.000659881
     0.172454630  0.400318228  0.000361306
     0.239120185  0.533636548  0.000473136
     0.372459750  0.200295993  0.000111246
     0.439107096  0.333673419  0.000069702
     0.172452155  0.600311506  0.000655425
     0.239123371  0.733638574  0.000718912
     0.572431082  0.200289171  0.000516621
     0.639112773  0.333618630  0.000577970
     0.372439808  0.600308022  0.000453556
     0.439116090  0.733637858  0.000617737
     0.572469358  0.400320504  0.000424897
     0.639119408  0.533650873  0.000574513
     0.772445723  0.000315427  0.000745201
     0.839116277  0.133640203  0.000719132
     0.772440513  0.200307432  0.000726291
     0.839120241  0.333635728  0.000731834
     0.772446320  0.400298367  0.000728722
     0.839118980  0.533633964  0.000776376
     0.772456143  0.600308173  0.000744639
     0.839115033  0.733643180  0.000789390
     0.972455313  0.800305582  0.000815291
     0.039114714  0.933643289  0.000747563
     0.172457971  0.800312211  0.000779216
     0.239134551  0.933647193  0.000681063
     0.372451396  0.800316674  0.000689249
     0.439124489  0.933644769  0.000676788
     0.572441101  0.800310054  0.000668168
     0.639115067  0.933638985  0.000734556
     0.772445098  0.800313187  0.000752577
     0.839116614  0.933644338  0.000758538
     0.373021009  0.251226878  0.333709963
     0.420879805  0.189313152  0.336931056
     0.325156981  0.313167186  0.330737220

  ion indices of the primitive-cell ions
   primitive index   ion index
                 1           1
                 2           2
                 3           3
                 4           4
                 5           5
                 6           6
                 7           7
                 8           8
                 9           9
                10          10
                11          11
                12          12
                13          13
                14          14
                15          15
                16          16
                17          17
                18          18
                19          19
                20          20
                21          21
                22          22
                23          23
                24          24
                25          25
                26          26
                27          27
                28          28
                29          29
                30          30
                31          31
                32          32
                33          33
                34          34
                35          35
                36          36
                37          37
                38          38
                39          39
                40          40
                41          41
                42          42
                43          43
                44          44
                45          45
                46          46
                47          47
                48          48
                49          49
                50          50
                51          51
                52          52
                53          53

----------------------------------------------------------------------------------------

 
 
 KPOINTS: auto                                    

Automatic generation of k-mesh.
 Grid dimensions read from file:
 generate k-points for:    1    1    1

 Generating k-lattice:

  Cartesian coordinates                     Fractional coordinates (reciprocal lattice)
     0.081135903  0.046843835  0.000000000     1.000000000 -0.000000000  0.000000000
     0.000000000  0.093687670  0.000000000     0.000000000  1.000000000  0.000000000
     0.000000000  0.000000000  0.050000000     0.000000000  0.000000000  1.000000000

  Length of vectors
     0.093687670  0.093687670  0.050000000

  Shift w.r.t. Gamma in fractional coordinates (k-lattice)
     0.000000000  0.000000000  0.000000000

 
 Subroutine IBZKPT returns following result:
 ===========================================
 
 Found      1 irreducible k-points:
 
 Following reciprocal coordinates:
            Coordinates               Weight
  0.000000  0.000000  0.000000      1.000000
 
 Following cartesian coordinates:
            Coordinates               Weight
  0.000000  0.000000  0.000000      1.000000
 


--------------------------------------------------------------------------------------------------------




 Dimension of arrays:
   k-points           NKPTS =      1   k-points in BZ     NKDIM =      1   number of bands    NBANDS=    168
   number of dos      NEDOS =    301   number of ions     NIONS =     53
   non local maximal  LDIM  =      4   non local SUM 2l+1 LMDIM =      8
   total plane-waves  NPLWV = ******
   max r-space proj   IRMAX =      1   max aug-charges    IRDMAX=   9736
   dimension x,y,z NGX =   128 NGY =  128 NGZ =  210
   dimension x,y,z NGXF=   256 NGYF=  256 NGZF=  420
   support grid    NGXF=   256 NGYF=  256 NGZF=  420
   ions per type =              51   2
   NGX,Y,Z   is equivalent  to a cutoff of  17.27, 17.27, 17.46 a.u.
   NGXF,Y,Z  is equivalent  to a cutoff of  34.53, 34.53, 34.91 a.u.

 SYSTEM =  unknown system                          
 POSCAR =   C  O                                   

 Startparameter for this run:
   NWRITE =      2    write-flag & timer
   PREC   = accura    normal or accurate (medium, high low for compatibility)
   ISTART =      0    job   : 0-new  1-cont  2-samecut
   ICHARG =      2    charge: 1-file 2-atom 10-const
   ISPIN  =      1    spin polarized calculation?
   LNONCOLLINEAR =      F non collinear calculations
   LSORBIT =      F    spin-orbit coupling
   INIWAV =      1    electr: 0-lowe 1-rand  2-diag
   LASPH  =      T    aspherical Exc in radial PAW
 Electronic Relaxation 1
   ENCUT  = 1000.0 eV  73.50 Ry    8.57 a.u.  31.78 31.78 51.57*2*pi/ulx,y,z
   ENINI  = 1000.0     initial cutoff
   ENAUG  =  946.8 eV  augmentation charge cutoff
   NELM   =     60;   NELMIN=  2; NELMDL= -5     # of ELM steps 
   EDIFF  = 0.1E-06   stopping-criterion for ELM
   LREAL  =      F    real-space projection
   NLSPLINE    = F    spline interpolate recip. space projectors
   LCOMPAT=      F    compatible to vasp.4.4
   GGA_COMPAT  = T    GGA compatible to vasp.4.4-vasp.4.6
   LMAXPAW     = -100 max onsite density
   LMAXMIX     =    2 max onsite mixed and CHGCAR
   VOSKOWN=      0    Vosko Wilk Nusair interpolation
   ROPT   =    0.00000   0.00000
 Ionic relaxation
   EDIFFG = 0.1E-05   stopping-criterion for IOM
   NSW    =      0    number of steps for IOM
   NBLOCK =      1;   KBLOCK =      1    inner block; outer block 
   IBRION =     -1    ionic relax: 0-MD 1-quasi-New 2-CG
   NFREE  =      0    steps in history (QN), initial steepest desc. (CG)
   ISIF   =      0    stress and relaxation
   IWAVPR =     10    prediction:  0-non 1-charg 2-wave 3-comb
   ISYM   =      2    0-nonsym 1-usesym 2-fastsym
   LCORR  =      T    Harris-Foulkes like correction to forces

   POTIM  = 0.5000    time-step for ionic-motion
   TEIN   =    0.0    initial temperature
   TEBEG  =    0.0;   TEEND  =   0.0 temperature during run
   SMASS  =  -3.00    Nose mass-parameter (am)
   estimated Nose-frequenzy (Omega)   =  0.10E-29 period in steps = 0.13E+47 mass=  -0.347E-26a.u.
   SCALEE = 1.0000    scale energy and forces
   NPACO  =    256;   APACO  = 16.0  distance and # of slots for P.C.
   PSTRESS=    0.0 pullay stress

  Mass of Ions in am
   POMASS =  12.01 16.00
  Ionic Valenz
   ZVAL   =   4.00  6.00
  Atomic Wigner-Seitz radii
   RWIGS  =  -1.00 -1.00
  virtual crystal weights 
   VCA    =   1.00  1.00
   NELECT =     216.0000    total number of electrons
   NUPDOWN=      -1.0000    fix difference up-down

 DOS related values:
   EMIN   =  10.00;   EMAX   =-10.00  energy-range for DOS
   EFERMI =   0.00
   ISMEAR =     0;   SIGMA  =   0.01  broadening in eV -4-tet -1-fermi 0-gaus

 Electronic relaxation 2 (details)
   IALGO  =     58    algorithm
   LDIAG  =      T    sub-space diagonalisation (order eigenvalues)
   LSUBROT=      F    optimize rotation matrix (better conditioning)
   TURBO    =      0    0=normal 1=particle mesh
   IRESTART =      0    0=no restart 2=restart with 2 vectors
   NREBOOT  =      0    no. of reboots
   NMIN     =      0    reboot dimension
   EREF     =   0.00    reference energy to select bands
   IMIX   =      4    mixing-type and parameters
     AMIX     =   0.40;   BMIX     =  1.00
     AMIX_MAG =   1.60;   BMIX_MAG =  1.00
     AMIN     =   0.10
     WC   =   100.;   INIMIX=   1;  MIXPRE=   1;  MAXMIX= -45

 Intra band minimization:
   WEIMIN = 0.0000     energy-eigenvalue tresh-hold
   EBREAK =  0.15E-09  absolut break condition
   DEPER  =   0.30     relativ break condition  

   TIME   =   0.40     timestep for ELM

  volume/ion in A,a.u.               =      49.64       335.01
  Fermi-wavevector in a.u.,A,eV,Ry     =   0.711510  1.344560  6.887909  0.506247
  Thomas-Fermi vector in A             =   1.798641
 
 Write flags
   LWAVE        =      T    write WAVECAR
   LDOWNSAMPLE  =      F    k-point downsampling of WAVECAR
   LCHARG       =      T    write CHGCAR
   LVTOT        =      F    write LOCPOT, total local potential
   LVHAR        =      F    write LOCPOT, Hartree potential only
   LELF         =      F    write electronic localiz. function (ELF)
   LORBIT       =      0    0 simple, 1 ext, 2 COOP (PROOUT), +10 PAW based schemes


 Dipole corrections
   LMONO  =      F    monopole corrections only (constant potential shift)
   LDIPOL =      F    correct potential (dipole corrections)
   IDIPOL =      0    1-x, 2-y, 3-z, 4-all directions 
   EPSILON=  1.0000000 bulk dielectric constant

 Exchange correlation treatment:
   GGA     =    --    GGA type
   LEXCH   =     8    internal setting for exchange type
   VOSKOWN=      0    Vosko Wilk Nusair interpolation
   LHFCALC =     F    Hartree Fock is set to
   LHFONE  =     F    Hartree Fock one center treatment
   AEXX    =    0.0000 exact exchange contribution

 Linear response parameters
   LEPSILON=     F    determine dielectric tensor
   LRPA    =     F    only Hartree local field effects (RPA)
   LNABLA  =     F    use nabla operator in PAW spheres
   LVEL    =     F    velocity operator in full k-point grid
   LINTERFAST=   F  fast interpolation
   KINTER  =     0    interpolate to denser k-point grid
   CSHIFT  =0.1000    complex shift for real part using Kramers Kronig
   OMEGAMAX=  -1.0    maximum frequency
   DEG_THRESHOLD= 0.2000000E-02 threshold for treating states as degnerate
   RTIME   =   -0.100 relaxation time in fs
  (WPLASMAI=    0.000 imaginary part of plasma frequency in eV, 0.658/RTIME)
   DFIELD  = 0.0000000 0.0000000 0.0000000 field for delta impulse in time
 
 Orbital magnetization related:
   ORBITALMAG=     F  switch on orbital magnetization
   LCHIMAG   =     F  perturbation theory with respect to B field
   DQ        =  0.001000  dq finite difference perturbation B field
   LLRAUG    =     F  two centre corrections for induced B field



--------------------------------------------------------------------------------------------------------


 Static calculation
 charge density and potential will be updated during run
 non-spin polarized calculation
 Conjugate gradient for all bands (Freysoldt, et al. PRB 79, 241103 (2009))
 preconditioned conjugated gradient                                        
 perform sub-space diagonalisation
    before iterative eigenvector-optimisation
 modified Broyden-mixing scheme, WC =      100.0
 initial mixing is a Kerker type mixing with AMIX =  0.4000 and BMIX =      1.0000
 Hartree-type preconditioning will be used
 using additional bands           60
 reciprocal scheme for non local part
 use partial core corrections
 no Harris-corrections to forces 
 use gradient corrections 
 use of overlap-Matrix (Vanderbilt PP)
 Gauss-broadening in eV      SIGMA  =   0.01


--------------------------------------------------------------------------------------------------------


  energy-cutoff  :     1000.00
  volume of cell :     2631.08
      direct lattice vectors                 reciprocal lattice vectors
    12.325000000  0.000000000  0.000000000     0.081135903  0.046843835  0.000000000
    -6.162500000 10.673763102  0.000000000     0.000000000  0.093687670  0.000000000
     0.000000000  0.000000000 20.000000000     0.000000000  0.000000000  0.050000000

  length of vectors
    12.325000000 12.325000000 20.000000000     0.093687670  0.093687670  0.050000000


 
 k-points in units of 2pi/SCALE and weight: auto                                    
   0.00000000  0.00000000  0.00000000       1.000
 
 k-points in reciprocal lattice and weights: auto                                    
   0.00000000  0.00000000  0.00000000       1.000
 
 position of ions in fractional coordinates (direct lattice) 
   0.97245084  0.00032082  0.00070839
   0.03911838  0.13365950  0.00055022
   0.17244363  0.00029545  0.00062454
   0.23909628  0.13364792  0.00032058
   0.97245206  0.20032201  0.00060652
   0.03912836  0.33364377  0.00055519
   0.17245176  0.20035455  0.00027396
   0.23912436  0.33366572  0.00009033
   0.37246557  0.00032440  0.00056739
   0.43913747  0.13361994  0.00032292
   0.97244982  0.40030936  0.00068451
   0.03912498  0.53363679  0.00071676
   0.37241618  0.40032948  0.00000000
   0.43909960  0.53363898  0.00029052
   0.57244368  0.00031213  0.00069947
   0.63911021  0.13363175  0.00068409
   0.97245270  0.60030565  0.00080036
   0.03912449  0.73364036  0.00081814
   0.57243347  0.60030624  0.00050362
   0.63911189  0.73364188  0.00065988
   0.17245463  0.40031823  0.00036131
   0.23912018  0.53363655  0.00047314
   0.37245975  0.20029599  0.00011125
   0.43910710  0.33367342  0.00006970
   0.17245216  0.60031151  0.00065542
   0.23912337  0.73363857  0.00071891
   0.57243108  0.20028917  0.00051662
   0.63911277  0.33361863  0.00057797
   0.37243981  0.60030802  0.00045356
   0.43911609  0.73363786  0.00061774
   0.57246936  0.40032050  0.00042490
   0.63911941  0.53365087  0.00057451
   0.77244572  0.00031543  0.00074520
   0.83911628  0.13364020  0.00071913
   0.77244051  0.20030743  0.00072629
   0.83912024  0.33363573  0.00073183
   0.77244632  0.40029837  0.00072872
   0.83911898  0.53363396  0.00077638
   0.77245614  0.60030817  0.00074464
   0.83911503  0.73364318  0.00078939
   0.97245531  0.80030558  0.00081529
   0.03911471  0.93364329  0.00074756
   0.17245797  0.80031221  0.00077922
   0.23913455  0.93364719  0.00068106
   0.37245140  0.80031667  0.00068925
   0.43912449  0.93364477  0.00067679
   0.57244110  0.80031005  0.00066817
   0.63911507  0.93363899  0.00073456
   0.77244510  0.80031319  0.00075258
   0.83911661  0.93364434  0.00075854
   0.37302101  0.25122688  0.33370996
   0.42087980  0.18931315  0.33693106
   0.32515698  0.31316719  0.33073722
 
 position of ions in cartesian coordinates  (Angst):
  11.98347958  0.00342433  0.01416777
  -0.34154264  1.42664989  0.01100432
   2.12354700  0.00315355  0.01249070
   2.12325634  1.42652621  0.00641170
  10.75098721  2.13818970  0.01213047
  -1.57382270  3.56123457  0.01110375
   0.89078307  2.13853702  0.00547917
   0.89099273  3.56146885  0.00180651
   4.58863896  0.00346260  0.01134782
   4.58893648  1.42622757  0.00645846
   9.51853763  4.27280730  0.01369027
  -2.80632132  5.69591267  0.01433526
   2.12299894  4.27302204  0.00000000
   2.12335237  5.69593607  0.00581036
   7.05344483  0.00333155  0.01398950
   7.05352764  1.42635365  0.01368187
   8.28609598  6.40752033  0.01600723
  -4.03884931  7.83070339  0.01636283
   3.35585531  6.40752662  0.01007237
   3.35598594  7.83071962  0.01319763
  -0.34145776  4.27290193  0.00722612
  -0.34137895  5.69591010  0.00946273
   3.35624236  2.13791198  0.00222492
   3.35573251  3.56155103  0.00139405
  -1.57394684  6.40758280  0.01310850
  -1.57385216  7.83068434  0.01437823
   5.82093107  2.13783916  0.01033241
   5.82114012  3.56096622  0.01155939
   0.89092245  6.40754561  0.00907111
   0.89106251  7.83067670  0.01235474
   4.58870974  4.27292622  0.00849795
   4.58852320  5.69606300  0.01149026
   9.51844972  0.00336679  0.01490402
   9.51855036  1.42644387  0.01438264
   8.28593477  2.13803408  0.01452582
   8.28612680  3.56114872  0.01463668
   7.05356221  4.27268994  0.01457444
   7.05362213  5.69588251  0.01552751
   5.82112285  6.40754723  0.01489279
   5.82101669  7.83073350  0.01578780
   7.05362858  8.54227219  0.01630582
  -5.27148792  9.96548729  0.01495127
  -2.80637951  8.54234295  0.01558431
  -2.80626749  9.96552896  0.01362126
  -0.34148805  8.54239058  0.01378498
  -0.34137657  9.96550309  0.01353576
   2.12342586  8.54231992  0.01336337
   2.12354296  9.96544135  0.01469111
   4.58845581  8.54235337  0.01505154
   4.58852904  9.96549848  0.01517076
   3.04929830  2.68153618  6.67419927
   4.02070129  2.02068374  6.73862113
   2.07766701  3.34267235  6.61474440
 


--------------------------------------------------------------------------------------------------------


 k-point   1 :   0.0000 0.0000 0.0000  plane waves:  189031

 maximum and minimum number of plane-waves per node :    189031   189031

 maximum number of plane-waves:    189031
 maximum index in each direction: 
   IXMAX=   31   IYMAX=   31   IZMAX=   51
   IXMIN=  -31   IYMIN=  -31   IZMIN=  -51


 serial   3D FFT for wavefunctions
 parallel 3D FFT for charge:
    minimum data exchange during FFTs selected (reduces bandwidth)


 total amount of memory used by VASP MPI-rank0   556209. kBytes
=======================================================================

   base      :      30000. kBytes
   nonl-proj :     184518. kBytes
   fftplans  :      31725. kBytes
   grid      :     282516. kBytes
   one-center:        162. kBytes
   wavefun   :      27288. kBytes
 
     INWAV:  cpu time    0.0000: real time    0.0000
 Broyden mixing: mesh for mixing (old mesh)
   NGX = 63   NGY = 63   NGZ =103
  (NGX  =256   NGY  =256   NGZ  =420)
  gives a total of 408807 points

 initial charge density was supplied:
 charge density of overlapping atoms calculated
 number of electron     216.0000000 magnetization 
 keeping initial charge density in first step


--------------------------------------------------------------------------------------------------------


 Maximum index for augmentation-charges          459 (set IRDMAX)


--------------------------------------------------------------------------------------------------------


 First call to EWALD:  gamma=   0.128
 Maximum number of real-space cells 3x 3x 2
 Maximum number of reciprocal cells 3x 3x 4

    FEWALD:  cpu time    0.0021: real time    0.0022


--------------------------------------- Iteration      1(   1)  ---------------------------------------


    POTLOK:  cpu time    1.2855: real time    1.2933
    SETDIJ:  cpu time    0.1772: real time    0.1778
    TRIAL :  cpu time   21.8535: real time   22.0171
    CORREC:  cpu time    0.0008: real time    0.0011
    --------------------------------------------
      LOOP:  cpu time   23.3268: real time   23.5130

 eigenvalue-minimisations  :   336
 total energy-change (2. order) : 0.2410304E+04  (-0.1180651E+05)
 number of electron     216.0000000 magnetization 
 augmentation part      216.0000000 magnetization 

 Free energy of the ion-electron system (eV)
  ---------------------------------------------------
  alpha Z        PSCENC =        59.93625244
  Ewald energy   TEWEN  =     30433.92553120
  -Hartree energ DENC   =    -36609.37782081
  -exchange      EXHF   =         0.00000000
  -V(xc)+E(xc)   XCENC  =       605.05843010
  PAW double counting   =      6340.10990386    -6200.63067283
  entropy T*S    EENTRO =        -0.00000001
  eigenvalues    EBANDS =      -588.24082950
  atomic energy  EATOM  =      8369.52358910
  ---------------------------------------------------
  free energy    TOTEN  =      2410.30438356 eV

  energy without entropy =     2410.30438356  energy(sigma->0) =     2410.30438356


--------------------------------------------------------------------------------------------------------




--------------------------------------- Iteration      1(   2)  ---------------------------------------


    TRIAL :  cpu time   35.6476: real time   35.9235
    CORREC:  cpu time    0.0001: real time    0.0003
    --------------------------------------------
      LOOP:  cpu time   35.7026: real time   35.9848

 eigenvalue-minimisations  :   672
 total energy-change (2. order) :-0.2462233E+04  (-0.2354197E+04)
 number of electron     216.0000000 magnetization 
 augmentation part      216.0000000 magnetization 

 Free energy of the ion-electron system (eV)
  ---------------------------------------------------
  alpha Z        PSCENC =        59.93625244
  Ewald energy   TEWEN  =     30433.92553120
  -Hartree energ DENC   =    -36609.37782081
  -exchange      EXHF   =         0.00000000
  -V(xc)+E(xc)   XCENC  =       605.05843010
  PAW double counting   =      6340.10990386    -6200.63067283
  entropy T*S    EENTRO =        -0.00000000
  eigenvalues    EBANDS =     -3050.47416336
  atomic energy  EATOM  =      8369.52358910
  ---------------------------------------------------
  free energy    TOTEN  =       -51.92895029 eV

  energy without entropy =      -51.92895029  energy(sigma->0) =      -51.92895029


--------------------------------------------------------------------------------------------------------




--------------------------------------- Iteration      1(   3)  ---------------------------------------


    TRIAL :  cpu time   24.0447: real time   24.2510
    CORREC:  cpu time    0.0001: real time    0.0001
    --------------------------------------------
      LOOP:  cpu time   24.1057: real time   24.3130

 eigenvalue-minimisations  :   392
 total energy-change (2. order) :-0.5305900E+03  (-0.5279540E+03)
 number of electron     216.0000000 magnetization 
 augmentation part      216.0000000 magnetization 

 Free energy of the ion-electron system (eV)
  ---------------------------------------------------
  alpha Z        PSCENC =        59.93625244
  Ewald energy   TEWEN  =     30433.92553120
  -Hartree energ DENC   =    -36609.37782081
  -exchange      EXHF   =         0.00000000
  -V(xc)+E(xc)   XCENC  =       605.05843010
  PAW double counting   =      6340.10990386    -6200.63067283
  entropy T*S    EENTRO =        -0.00000000
  eigenvalues    EBANDS =     -3581.06418506
  atomic energy  EATOM  =      8369.52358910
  ---------------------------------------------------
  free energy    TOTEN  =      -582.51897200 eV

  energy without entropy =     -582.51897200  energy(sigma->0) =     -582.51897200


--------------------------------------------------------------------------------------------------------




--------------------------------------- Iteration      1(   4)  ---------------------------------------


    TRIAL :  cpu time   26.4137: real time   26.6100
    CORREC:  cpu time    0.0001: real time    0.0001
    --------------------------------------------
      LOOP:  cpu time   26.4730: real time   26.6813

 eigenvalue-minimisations  :   448
 total energy-change (2. order) :-0.2437478E+02  (-0.2421979E+02)
 number of electron     216.0000000 magnetization 
 augmentation part      216.0000000 magnetization 

 Free energy of the ion-electron system (eV)
  ---------------------------------------------------
  alpha Z        PSCENC =        59.93625244
  Ewald energy   TEWEN  =     30433.92553120
  -Hartree energ DENC   =    -36609.37782081
  -exchange      EXHF   =         0.00000000
  -V(xc)+E(xc)   XCENC  =       605.05843010
  PAW double counting   =      6340.10990386    -6200.63067283
  entropy T*S    EENTRO =        -0.00000000
  eigenvalues    EBANDS =     -3605.43896241
  atomic energy  EATOM  =      8369.52358910
  ---------------------------------------------------
  free energy    TOTEN  =      -606.89374935 eV

  energy without entropy =     -606.89374935  energy(sigma->0) =     -606.89374935


--------------------------------------------------------------------------------------------------------




--------------------------------------- Iteration      1(   5)  ---------------------------------------


    TRIAL :  cpu time   21.8067: real time   21.9754
    CORREC:  cpu time    0.0001: real time    0.0001
    CHARGE:  cpu time    2.2914: real time    2.3079
    --------------------------------------------
      LOOP:  cpu time   24.1407: real time   24.3466

 eigenvalue-minimisations  :   336
 total energy-change (2. order) :-0.8491492E+00  (-0.8487053E+00)
 number of electron     216.0000000 magnetization 
 augmentation part       -0.4465424 magnetization 

 Free energy of the ion-electron system (eV)
  ---------------------------------------------------
  alpha Z        PSCENC =        59.93625244
  Ewald energy   TEWEN  =     30433.92553120
  -Hartree energ DENC   =    -36609.37782081
  -exchange      EXHF   =         0.00000000
  -V(xc)+E(xc)   XCENC  =       605.05843010
  PAW double counting   =      6340.10990386    -6200.63067283
  entropy T*S    EENTRO =        -0.00000000
  eigenvalues    EBANDS =     -3606.28811159
  atomic energy  EATOM  =      8369.52358910
  ---------------------------------------------------
  free energy    TOTEN  =      -607.74289853 eV

  energy without entropy =     -607.74289853  energy(sigma->0) =     -607.74289853


--------------------------------------------------------------------------------------------------------




--------------------------------------- Iteration      1(   6)  ---------------------------------------


    POTLOK:  cpu time    1.2600: real time    1.2675
    SETDIJ:  cpu time    0.1799: real time    0.1805
    TRIAL :  cpu time   15.5837: real time   15.6954
    CORREC:  cpu time    6.8920: real time    6.9388
    CHARGE:  cpu time    2.2790: real time    2.2955
    --------------------------------------------
      LOOP:  cpu time   26.2612: real time   26.4472

 eigenvalue-minimisations  :     0
 total energy-change (2. order) : 0.9802060E+02  (-0.1125534E+02)
 number of electron     216.0000000 magnetization 
 augmentation part       -0.5086857 magnetization 

 Free energy of the ion-electron system (eV)
  ---------------------------------------------------
  alpha Z        PSCENC =        59.93625244
  Ewald energy   TEWEN  =     30433.92553120
  -Hartree energ DENC   =    -37924.14469905
  -exchange      EXHF   =         0.00000000
  -V(xc)+E(xc)   XCENC  =       676.78672908
  PAW double counting   =    119278.58248270  -119138.99650459
  entropy T*S    EENTRO =        -0.00000000
  eigenvalues    EBANDS =     -2265.33568197
  atomic energy  EATOM  =      8369.52358910
  ---------------------------------------------------
  free energy    TOTEN  =      -509.72230108 eV

  energy without entropy =     -509.72230108  energy(sigma->0) =     -509.72230108


--------------------------------------------------------------------------------------------------------




--------------------------------------- Iteration      1(   7)  ---------------------------------------


    POTLOK:  cpu time    1.2594: real time    1.2668
    SETDIJ:  cpu time    0.1738: real time    0.1745
    TRIAL :  cpu time   15.5838: real time   15.6987
    CORREC:  cpu time    6.8771: real time    6.9247
    CHARGE:  cpu time    2.2850: real time    2.3012
    --------------------------------------------
      LOOP:  cpu time   26.2110: real time   26.4011

 eigenvalue-minimisations  :     0
 total energy-change (2. order) :-0.1126953E+02  (-0.1496170E+01)
 number of electron     216.0000000 magnetization 
 augmentation part       -0.5422979 magnetization 

 Free energy of the ion-electron system (eV)
  ---------------------------------------------------
  alpha Z        PSCENC =        59.93625244
  Ewald energy   TEWEN  =     30433.92553120
  -Hartree energ DENC   =    -37524.52380329
  -exchange      EXHF   =         0.00000000
  -V(xc)+E(xc)   XCENC  =       659.20812754
  PAW double counting   =    138596.71992949  -138455.39572390
  entropy T*S    EENTRO =        -0.00000000
  eigenvalues    EBANDS =     -2660.38573280
  atomic energy  EATOM  =      8369.52358910
  ---------------------------------------------------
  free energy    TOTEN  =      -520.99183021 eV

  energy without entropy =     -520.99183021  energy(sigma->0) =     -520.99183021


--------------------------------------------------------------------------------------------------------




--------------------------------------- Iteration      1(   8)  ---------------------------------------


    POTLOK:  cpu time    1.2578: real time    1.2652
    SETDIJ:  cpu time    0.1724: real time    0.1730
    TRIAL :  cpu time   15.5929: real time   15.7052
    CORREC:  cpu time    6.8793: real time    6.9262
    CHARGE:  cpu time    2.2823: real time    2.3012
    --------------------------------------------
      LOOP:  cpu time   26.2555: real time   26.4427

 eigenvalue-minimisations  :     0
 total energy-change (2. order) :-0.1495812E+01  (-0.4924764E+00)
 number of electron     216.0000000 magnetization 
 augmentation part       -0.5435520 magnetization 

 Free energy of the ion-electron system (eV)
  ---------------------------------------------------
  alpha Z        PSCENC =        59.93625244
  Ewald energy   TEWEN  =     30433.92553120
  -Hartree energ DENC   =    -37493.75290465
  -exchange      EXHF   =         0.00000000
  -V(xc)+E(xc)   XCENC  =       658.09783575
  PAW double counting   =    148248.24674132  -148106.79675902
  entropy T*S    EENTRO =        -0.00000000
  eigenvalues    EBANDS =     -2691.66792863
  atomic energy  EATOM  =      8369.52358910
  ---------------------------------------------------
  free energy    TOTEN  =      -522.48764248 eV

  energy without entropy =     -522.48764248  energy(sigma->0) =     -522.48764248


--------------------------------------------------------------------------------------------------------




--------------------------------------- Iteration      1(   9)  ---------------------------------------


    POTLOK:  cpu time    1.2563: real time    1.2637
    SETDIJ:  cpu time    0.1759: real time    0.1765
    TRIAL :  cpu time   15.5666: real time   15.6844
    CORREC:  cpu time    6.8741: real time    6.9217
    CHARGE:  cpu time    2.2833: real time    2.2993
    --------------------------------------------
      LOOP:  cpu time   26.1859: real time   26.3801

 eigenvalue-minimisations  :     0
 total energy-change (2. order) :-0.4920903E+00  (-0.1988194E+00)
 number of electron     216.0000000 magnetization 
 augmentation part       -0.5403415 magnetization 

 Free energy of the ion-electron system (eV)
  ---------------------------------------------------
  alpha Z        PSCENC =        59.93625244
  Ewald energy   TEWEN  =     30433.92553120
  -Hartree energ DENC   =    -37500.02877214
  -exchange      EXHF   =         0.00000000
  -V(xc)+E(xc)   XCENC  =       658.03306364
  PAW double counting   =    156416.36290417  -156274.83917584
  entropy T*S    EENTRO =        -0.00000000
  eigenvalues    EBANDS =     -2685.89312541
  atomic energy  EATOM  =      8369.52358910
  ---------------------------------------------------
  free energy    TOTEN  =      -522.97973283 eV

  energy without entropy =     -522.97973283  energy(sigma->0) =     -522.97973283


--------------------------------------------------------------------------------------------------------




--------------------------------------- Iteration      1(  10)  ---------------------------------------


    POTLOK:  cpu time    1.2585: real time    1.2658
    SETDIJ:  cpu time    0.1776: real time    0.1782
    TRIAL :  cpu time   15.5428: real time   15.6650
    CORREC:  cpu time    6.8811: real time    6.9294
    CHARGE:  cpu time    2.2894: real time    2.3061
    --------------------------------------------
      LOOP:  cpu time   26.1736: real time   26.3751

 eigenvalue-minimisations  :     0
 total energy-change (2. order) :-0.1984851E+00  (-0.8712728E-01)
 number of electron     216.0000000 magnetization 
 augmentation part       -0.5345689 magnetization 

 Free energy of the ion-electron system (eV)
  ---------------------------------------------------
  alpha Z        PSCENC =        59.93625244
  Ewald energy   TEWEN  =     30433.92553120
  -Hartree energ DENC   =    -37499.08781303
  -exchange      EXHF   =         0.00000000
  -V(xc)+E(xc)   XCENC  =       657.92803229
  PAW double counting   =    160370.18416096  -160228.60937110
  entropy T*S    EENTRO =        -0.00000000
  eigenvalues    EBANDS =     -2686.97859977
  atomic energy  EATOM  =      8369.52358910
  ---------------------------------------------------
  free energy    TOTEN  =      -523.17821791 eV

  energy without entropy =     -523.17821791  energy(sigma->0) =     -523.17821791


--------------------------------------------------------------------------------------------------------




--------------------------------------- Iteration      1(  11)  ---------------------------------------


    POTLOK:  cpu time    1.2581: real time    1.2653
    SETDIJ:  cpu time    0.1752: real time    0.1757
    TRIAL :  cpu time   15.5893: real time   15.7046
    CORREC:  cpu time    6.8742: real time    6.9198
    CHARGE:  cpu time    2.2837: real time    2.2999
    --------------------------------------------
      LOOP:  cpu time   26.2276: real time   26.4192

 eigenvalue-minimisations  :     0
 total energy-change (2. order) :-0.8693867E-01  (-0.3359611E-01)
 number of electron     216.0000000 magnetization 
 augmentation part       -0.5306683 magnetization 

 Free energy of the ion-electron system (eV)
  ---------------------------------------------------
  alpha Z        PSCENC =        59.93625244
  Ewald energy   TEWEN  =     30433.92553120
  -Hartree energ DENC   =    -37493.22275536
  -exchange      EXHF   =         0.00000000
  -V(xc)+E(xc)   XCENC  =       657.85853901
  PAW double counting   =    160936.51626574  -160794.96269502
  entropy T*S    EENTRO =        -0.00000000
  eigenvalues    EBANDS =     -2692.83988368
  atomic energy  EATOM  =      8369.52358910
  ---------------------------------------------------
  free energy    TOTEN  =      -523.26515657 eV

  energy without entropy =     -523.26515657  energy(sigma->0) =     -523.26515657


--------------------------------------------------------------------------------------------------------




--------------------------------------- Iteration      1(  12)  ---------------------------------------


    POTLOK:  cpu time    1.2625: real time    1.2709
    SETDIJ:  cpu time    0.1692: real time    0.1697
    TRIAL :  cpu time   15.5634: real time   15.6778
    CORREC:  cpu time    6.8693: real time    6.9169
    CHARGE:  cpu time    2.2787: real time    2.2948
    --------------------------------------------
      LOOP:  cpu time   26.1824: real time   26.3851

 eigenvalue-minimisations  :     0
 total energy-change (2. order) :-0.3354866E-01  (-0.1038599E-01)
 number of electron     216.0000000 magnetization 
 augmentation part       -0.5303635 magnetization 

 Free energy of the ion-electron system (eV)
  ---------------------------------------------------
  alpha Z        PSCENC =        59.93625244
  Ewald energy   TEWEN  =     30433.92553120
  -Hartree energ DENC   =    -37488.72364489
  -exchange      EXHF   =         0.00000000
  -V(xc)+E(xc)   XCENC  =       657.78869453
  PAW double counting   =    160260.95656589  -160119.43036663
  entropy T*S    EENTRO =        -0.00000000
  eigenvalues    EBANDS =     -2697.27532689
  atomic energy  EATOM  =      8369.52358910
  ---------------------------------------------------
  free energy    TOTEN  =      -523.29870523 eV

  energy without entropy =     -523.29870523  energy(sigma->0) =     -523.29870523


--------------------------------------------------------------------------------------------------------




--------------------------------------- Iteration      1(  13)  ---------------------------------------


    POTLOK:  cpu time    1.2629: real time    1.2705
    SETDIJ:  cpu time    0.1698: real time    0.1703
    TRIAL :  cpu time   15.5670: real time   15.6826
    CORREC:  cpu time    6.8722: real time    6.9190
    CHARGE:  cpu time    2.2815: real time    2.2980
    --------------------------------------------
      LOOP:  cpu time   26.1934: real time   26.3833

 eigenvalue-minimisations  :     0
 total energy-change (2. order) :-0.1036565E-01  (-0.2883425E-02)
 number of electron     216.0000000 magnetization 
 augmentation part       -0.5309054 magnetization 

 Free energy of the ion-electron system (eV)
  ---------------------------------------------------
  alpha Z        PSCENC =        59.93625244
  Ewald energy   TEWEN  =     30433.92553120
  -Hartree energ DENC   =    -37487.48190787
  -exchange      EXHF   =         0.00000000
  -V(xc)+E(xc)   XCENC  =       657.74153855
  PAW double counting   =    159508.56722689  -159367.04584937
  entropy T*S    EENTRO =        -0.00000000
  eigenvalues    EBANDS =     -2698.47545182
  atomic energy  EATOM  =      8369.52358910
  ---------------------------------------------------
  free energy    TOTEN  =      -523.30907088 eV

  energy without entropy =     -523.30907088  energy(sigma->0) =     -523.30907088


--------------------------------------------------------------------------------------------------------




--------------------------------------- Iteration      1(  14)  ---------------------------------------


    POTLOK:  cpu time    1.2593: real time    1.2667
    SETDIJ:  cpu time    0.1733: real time    0.1740
    TRIAL :  cpu time   15.5722: real time   15.6836
    CORREC:  cpu time    6.8652: real time    6.9239
    CHARGE:  cpu time    2.2874: real time    2.3035
    --------------------------------------------
      LOOP:  cpu time   26.2066: real time   26.4023

 eigenvalue-minimisations  :     0
 total energy-change (2. order) :-0.2871827E-02  (-0.8029255E-03)
 number of electron     216.0000000 magnetization 
 augmentation part       -0.5312186 magnetization 

 Free energy of the ion-electron system (eV)
  ---------------------------------------------------
  alpha Z        PSCENC =        59.93625244
  Ewald energy   TEWEN  =     30433.92553120
  -Hartree energ DENC   =    -37487.62789379
  -exchange      EXHF   =         0.00000000
  -V(xc)+E(xc)   XCENC  =       657.73032013
  PAW double counting   =    159069.53977163  -158928.01694990
  entropy T*S    EENTRO =        -0.00000000
  eigenvalues    EBANDS =     -2698.32256353
  atomic energy  EATOM  =      8369.52358910
  ---------------------------------------------------
  free energy    TOTEN  =      -523.31194271 eV

  energy without entropy =     -523.31194271  energy(sigma->0) =     -523.31194271


--------------------------------------------------------------------------------------------------------




--------------------------------------- Iteration      1(  15)  ---------------------------------------


    POTLOK:  cpu time    1.2616: real time    1.2689
    SETDIJ:  cpu time    0.1724: real time    0.1731
    TRIAL :  cpu time   15.5692: real time   15.6858
    CORREC:  cpu time    6.8868: real time    6.9352
    CHARGE:  cpu time    2.2771: real time    2.2936
    --------------------------------------------
      LOOP:  cpu time   26.2142: real time   26.4049

 eigenvalue-minimisations  :     0
 total energy-change (2. order) :-0.7976175E-03  (-0.2453489E-03)
 number of electron     216.0000000 magnetization 
 augmentation part       -0.5314363 magnetization 

 Free energy of the ion-electron system (eV)
  ---------------------------------------------------
  alpha Z        PSCENC =        59.93625244
  Ewald energy   TEWEN  =     30433.92553120
  -Hartree energ DENC   =    -37487.56721782
  -exchange      EXHF   =         0.00000000
  -V(xc)+E(xc)   XCENC  =       657.72429558
  PAW double counting   =    158857.33023839  -158715.80607260
  entropy T*S    EENTRO =        -0.00000000
  eigenvalues    EBANDS =     -2698.37935662
  atomic energy  EATOM  =      8369.52358910
  ---------------------------------------------------
  free energy    TOTEN  =      -523.31274033 eV

  energy without entropy =     -523.31274033  energy(sigma->0) =     -523.31274033


--------------------------------------------------------------------------------------------------------




--------------------------------------- Iteration      1(  16)  ---------------------------------------


    POTLOK:  cpu time    1.2607: real time    1.2682
    SETDIJ:  cpu time    0.1728: real time    0.1734
    TRIAL :  cpu time   15.5811: real time   15.6952
    CORREC:  cpu time    6.9047: real time    6.9519
    CHARGE:  cpu time    2.2957: real time    2.3149
    --------------------------------------------
      LOOP:  cpu time   26.2672: real time   26.4622

 eigenvalue-minimisations  :     0
 total energy-change (2. order) :-0.2430187E-03  (-0.9223099E-04)
 number of electron     216.0000000 magnetization 
 augmentation part       -0.5315394 magnetization 

 Free energy of the ion-electron system (eV)
  ---------------------------------------------------
  alpha Z        PSCENC =        59.93625244
  Ewald energy   TEWEN  =     30433.92553120
  -Hartree energ DENC   =    -37487.48734208
  -exchange      EXHF   =         0.00000000
  -V(xc)+E(xc)   XCENC  =       657.71897164
  PAW double counting   =    158737.95931115  -158596.43346468
  entropy T*S    EENTRO =        -0.00000000
  eigenvalues    EBANDS =     -2698.45583212
  atomic energy  EATOM  =      8369.52358910
  ---------------------------------------------------
  free energy    TOTEN  =      -523.31298335 eV

  energy without entropy =     -523.31298335  energy(sigma->0) =     -523.31298335


--------------------------------------------------------------------------------------------------------




--------------------------------------- Iteration      1(  17)  ---------------------------------------


    POTLOK:  cpu time    1.2601: real time    1.2673
    SETDIJ:  cpu time    0.1730: real time    0.1736
    TRIAL :  cpu time   15.5686: real time   15.6852
    CORREC:  cpu time    6.8608: real time    6.9122
    CHARGE:  cpu time    2.2835: real time    2.2994
    --------------------------------------------
      LOOP:  cpu time   26.1845: real time   26.3868

 eigenvalue-minimisations  :     0
 total energy-change (2. order) :-0.9088090E-04  (-0.3856659E-04)
 number of electron     216.0000000 magnetization 
 augmentation part       -0.5315795 magnetization 

 Free energy of the ion-electron system (eV)
  ---------------------------------------------------
  alpha Z        PSCENC =        59.93625244
  Ewald energy   TEWEN  =     30433.92553120
  -Hartree energ DENC   =    -37487.65451422
  -exchange      EXHF   =         0.00000000
  -V(xc)+E(xc)   XCENC  =       657.72581007
  PAW double counting   =    158663.23257320  -158521.70653883
  entropy T*S    EENTRO =        -0.00000000
  eigenvalues    EBANDS =     -2698.29577719
  atomic energy  EATOM  =      8369.52358910
  ---------------------------------------------------
  free energy    TOTEN  =      -523.31307423 eV

  energy without entropy =     -523.31307423  energy(sigma->0) =     -523.31307423


--------------------------------------------------------------------------------------------------------




--------------------------------------- Iteration      1(  18)  ---------------------------------------


    POTLOK:  cpu time    1.2588: real time    1.2665
    SETDIJ:  cpu time    0.1894: real time    0.1900
    TRIAL :  cpu time   15.5542: real time   15.6776
    CORREC:  cpu time    6.8896: real time    6.9365
    CHARGE:  cpu time    2.2798: real time    2.2961
    --------------------------------------------
      LOOP:  cpu time   26.2054: real time   26.4088

 eigenvalue-minimisations  :     0
 total energy-change (2. order) :-0.3883694E-04  (-0.1435081E-04)
 number of electron     216.0000000 magnetization 
 augmentation part       -0.5315961 magnetization 

 Free energy of the ion-electron system (eV)
  ---------------------------------------------------
  alpha Z        PSCENC =        59.93625244
  Ewald energy   TEWEN  =     30433.92553120
  -Hartree energ DENC   =    -37487.72910824
  -exchange      EXHF   =         0.00000000
  -V(xc)+E(xc)   XCENC  =       657.72867430
  PAW double counting   =    158637.97365011  -158496.44735803
  entropy T*S    EENTRO =        -0.00000000
  eigenvalues    EBANDS =     -2698.22434395
  atomic energy  EATOM  =      8369.52358910
  ---------------------------------------------------
  free energy    TOTEN  =      -523.31311307 eV

  energy without entropy =     -523.31311307  energy(sigma->0) =     -523.31311307


--------------------------------------------------------------------------------------------------------




--------------------------------------- Iteration      1(  19)  ---------------------------------------


    POTLOK:  cpu time    1.2609: real time    1.2680
    SETDIJ:  cpu time    0.1740: real time    0.1746
    TRIAL :  cpu time   15.5461: real time   15.6814
    CORREC:  cpu time    6.8669: real time    6.9207
    CHARGE:  cpu time    2.2761: real time    2.2949
    --------------------------------------------
      LOOP:  cpu time   26.1775: real time   26.3950

 eigenvalue-minimisations  :     0
 total energy-change (2. order) :-0.1482724E-04  (-0.5395463E-05)
 number of electron     216.0000000 magnetization 
 augmentation part       -0.5315894 magnetization 

 Free energy of the ion-electron system (eV)
  ---------------------------------------------------
  alpha Z        PSCENC =        59.93625244
  Ewald energy   TEWEN  =     30433.92553120
  -Hartree energ DENC   =    -37487.72150085
  -exchange      EXHF   =         0.00000000
  -V(xc)+E(xc)   XCENC  =       657.72810908
  PAW double counting   =    158646.41559387  -158504.88902328
  entropy T*S    EENTRO =        -0.00000000
  eigenvalues    EBANDS =     -2698.23167945
  atomic energy  EATOM  =      8369.52358910
  ---------------------------------------------------
  free energy    TOTEN  =      -523.31312789 eV

  energy without entropy =     -523.31312789  energy(sigma->0) =     -523.31312789


--------------------------------------------------------------------------------------------------------




--------------------------------------- Iteration      1(  20)  ---------------------------------------


    POTLOK:  cpu time    1.2603: real time    1.2687
    SETDIJ:  cpu time    0.1714: real time    0.1720
    TRIAL :  cpu time   15.5527: real time   15.6872
    CORREC:  cpu time    6.8705: real time    6.9275
    CHARGE:  cpu time    2.2799: real time    2.2989
    --------------------------------------------
      LOOP:  cpu time   26.1776: real time   26.4020

 eigenvalue-minimisations  :     0
 total energy-change (2. order) :-0.5582609E-05  (-0.1912909E-05)
 number of electron     216.0000000 magnetization 
 augmentation part       -0.5315803 magnetization 

 Free energy of the ion-electron system (eV)
  ---------------------------------------------------
  alpha Z        PSCENC =        59.93625244
  Ewald energy   TEWEN  =     30433.92553120
  -Hartree energ DENC   =    -37487.74246632
  -exchange      EXHF   =         0.00000000
  -V(xc)+E(xc)   XCENC  =       657.72900210
  PAW double counting   =    158661.96358275  -158520.43709954
  entropy T*S    EENTRO =        -0.00000000
  eigenvalues    EBANDS =     -2698.21152521
  atomic energy  EATOM  =      8369.52358910
  ---------------------------------------------------
  free energy    TOTEN  =      -523.31313348 eV

  energy without entropy =     -523.31313348  energy(sigma->0) =     -523.31313348


--------------------------------------------------------------------------------------------------------




--------------------------------------- Iteration      1(  21)  ---------------------------------------


    POTLOK:  cpu time    1.2581: real time    1.2665
    SETDIJ:  cpu time    0.1747: real time    0.1753
    TRIAL :  cpu time   15.5691: real time   15.6955
    CORREC:  cpu time    6.8816: real time    6.9265
    CHARGE:  cpu time    2.2809: real time    2.2967
    --------------------------------------------
      LOOP:  cpu time   26.1898: real time   26.4088

 eigenvalue-minimisations  :     0
 total energy-change (2. order) :-0.1965876E-05  (-0.7023481E-06)
 number of electron     216.0000000 magnetization 
 augmentation part       -0.5315662 magnetization 

 Free energy of the ion-electron system (eV)
  ---------------------------------------------------
  alpha Z        PSCENC =        59.93625244
  Ewald energy   TEWEN  =     30433.92553120
  -Hartree energ DENC   =    -37487.74794940
  -exchange      EXHF   =         0.00000000
  -V(xc)+E(xc)   XCENC  =       657.72900486
  PAW double counting   =    158673.73619429  -158532.20976562
  entropy T*S    EENTRO =        -0.00000000
  eigenvalues    EBANDS =     -2698.20599232
  atomic energy  EATOM  =      8369.52358910
  ---------------------------------------------------
  free energy    TOTEN  =      -523.31313544 eV

  energy without entropy =     -523.31313544  energy(sigma->0) =     -523.31313544


--------------------------------------------------------------------------------------------------------




--------------------------------------- Iteration      1(  22)  ---------------------------------------


    POTLOK:  cpu time    1.2597: real time    1.2667
    SETDIJ:  cpu time    0.1724: real time    0.1729
    TRIAL :  cpu time   15.5667: real time   15.6817
    CORREC:  cpu time    6.8728: real time    6.9206
    CHARGE:  cpu time    2.2813: real time    2.2996
    --------------------------------------------
      LOOP:  cpu time   26.2108: real time   26.4017

 eigenvalue-minimisations  :     0
 total energy-change (2. order) :-0.7128983E-06  (-0.2998001E-06)
 number of electron     216.0000000 magnetization 
 augmentation part       -0.5315562 magnetization 

 Free energy of the ion-electron system (eV)
  ---------------------------------------------------
  alpha Z        PSCENC =        59.93625244
  Ewald energy   TEWEN  =     30433.92553120
  -Hartree energ DENC   =    -37487.74291013
  -exchange      EXHF   =         0.00000000
  -V(xc)+E(xc)   XCENC  =       657.72879904
  PAW double counting   =    158680.19118405  -158538.66483917
  entropy T*S    EENTRO =        -0.00000000
  eigenvalues    EBANDS =     -2698.21074267
  atomic energy  EATOM  =      8369.52358910
  ---------------------------------------------------
  free energy    TOTEN  =      -523.31313615 eV

  energy without entropy =     -523.31313615  energy(sigma->0) =     -523.31313615


--------------------------------------------------------------------------------------------------------




--------------------------------------- Iteration      1(  23)  ---------------------------------------


    POTLOK:  cpu time    1.2583: real time    1.2653
    SETDIJ:  cpu time    0.1748: real time    0.1753
    TRIAL :  cpu time   15.5758: real time   15.6842
    CORREC:  cpu time    6.8681: real time    6.9169
    CHARGE:  cpu time    2.2825: real time    2.2988
    --------------------------------------------
      LOOP:  cpu time   26.2041: real time   26.3882

 eigenvalue-minimisations  :     0
 total energy-change (2. order) :-0.2790766E-06  (-0.1988602E-06)
 number of electron     216.0000000 magnetization 
 augmentation part       -0.5315552 magnetization 

 Free energy of the ion-electron system (eV)
  ---------------------------------------------------
  alpha Z        PSCENC =        59.93625244
  Ewald energy   TEWEN  =     30433.92553120
  -Hartree energ DENC   =    -37487.73893075
  -exchange      EXHF   =         0.00000000
  -V(xc)+E(xc)   XCENC  =       657.72871281
  PAW double counting   =    158683.34536398  -158541.81908553
  entropy T*S    EENTRO =        -0.00000000
  eigenvalues    EBANDS =     -2698.21456969
  atomic energy  EATOM  =      8369.52358910
  ---------------------------------------------------
  free energy    TOTEN  =      -523.31313643 eV

  energy without entropy =     -523.31313643  energy(sigma->0) =     -523.31313643


--------------------------------------------------------------------------------------------------------




--------------------------------------- Iteration      1(  24)  ---------------------------------------


    POTLOK:  cpu time    1.2611: real time    1.2684
    SETDIJ:  cpu time    0.1707: real time    0.1713
    TRIAL :  cpu time   15.5667: real time   15.6779
    CORREC:  cpu time    6.8697: real time    6.9212
    CHARGE:  cpu time    2.2705: real time    2.3023
    --------------------------------------------
      LOOP:  cpu time   26.1568: real time   26.3771

 eigenvalue-minimisations  :     0
 total energy-change (2. order) :-0.6050686E-07  (-0.1294818E-06)
 number of electron     216.0000000 magnetization 
 augmentation part       -0.5315557 magnetization 

 Free energy of the ion-electron system (eV)
  ---------------------------------------------------
  alpha Z        PSCENC =        59.93625244
  Ewald energy   TEWEN  =     30433.92553120
  -Hartree energ DENC   =    -37487.73299012
  -exchange      EXHF   =         0.00000000
  -V(xc)+E(xc)   XCENC  =       657.72850424
  PAW double counting   =    158685.60586583  -158544.07959676
  entropy T*S    EENTRO =        -0.00000000
  eigenvalues    EBANDS =     -2698.22029243
  atomic energy  EATOM  =      8369.52358910
  ---------------------------------------------------
  free energy    TOTEN  =      -523.31313649 eV

  energy without entropy =     -523.31313649  energy(sigma->0) =     -523.31313649


--------------------------------------------------------------------------------------------------------




--------------------------------------- Iteration      1(  25)  ---------------------------------------


    POTLOK:  cpu time    1.2610: real time    1.2680
    SETDIJ:  cpu time    0.1725: real time    0.1730
    TRIAL :  cpu time   15.5731: real time   15.6817
    CORREC:  cpu time    6.7914: real time    6.8374
    EDDIAG:  cpu time    3.2016: real time    3.2346
    CHARGE:  cpu time    2.2779: real time    2.2987
    --------------------------------------------
      LOOP:  cpu time   29.3235: real time   29.5406

 eigenvalue-minimisations  :     0
 total energy-change (2. order) :-0.8137431E-07  ( 0.6087216E-07)
 number of electron     216.0000000 magnetization 
 augmentation part       -0.5315597 magnetization 

 Free energy of the ion-electron system (eV)
  ---------------------------------------------------
  alpha Z        PSCENC =        59.93625244
  Ewald energy   TEWEN  =     30433.92553120
  -Hartree energ DENC   =    -37487.73532320
  -exchange      EXHF   =         0.00000000
  -V(xc)+E(xc)   XCENC  =       657.72870028
  PAW double counting   =    158685.08211259  -158543.55586847
  entropy T*S    EENTRO =        -0.00000000
  eigenvalues    EBANDS =     -2698.21813052
  atomic energy  EATOM  =      8369.52358910
  ---------------------------------------------------
  free energy    TOTEN  =      -523.31313657 eV

  energy without entropy =     -523.31313657  energy(sigma->0) =     -523.31313657


--------------------------------------------------------------------------------------------------------


  average scaling for gradient   0.8885


 average (electrostatic) potential at core
  the test charge radii are     0.5770  0.5955
  (the norm of the test charge is              1.0000)
       1 -87.6324       2 -87.6317       3 -87.6327       4 -87.6335       5 -87.6307
       6 -87.6304       7 -87.6325       8 -87.6311       9 -87.6314      10 -87.6321
      11 -87.6303      12 -87.6305      13 -87.6320      14 -87.6312      15 -87.6302
      16 -87.6306      17 -87.6312      18 -87.6318      19 -87.6321      20 -87.6312
      21 -87.6303      22 -87.6300      23 -87.6339      24 -87.6338      25 -87.6301
      26 -87.6305      27 -87.6314      28 -87.6326      29 -87.6302      30 -87.6301
      31 -87.6330      32 -87.6322      33 -87.6308      34 -87.6305      35 -87.6305
      36 -87.6308      37 -87.6315      38 -87.6319      39 -87.6319      40 -87.6319
      41 -87.6319      42 -87.6322      43 -87.6313      44 -87.6323      45 -87.6302
      46 -87.6305      47 -87.6305      48 -87.6303      49 -87.6319      50 -87.6314
      51 -91.5277      52-123.9110      53-123.9101
 
 
 
 E-fermi :  -4.0777     XC(G=0):  -2.3545     alpha+bet : -2.1113

 Fermi energy:        -4.0776634793

 k-point     1 :       0.0000    0.0000    0.0000
  band No.  band energies     occupation 
      1     -28.8076      2.00000
      2     -27.6990      2.00000
      3     -23.3381      2.00000
      4     -22.3457      2.00000
      5     -22.3446      2.00000
      6     -22.3443      2.00000
      7     -22.3438      2.00000
      8     -22.3436      2.00000
      9     -22.3435      2.00000
     10     -20.3986      2.00000
     11     -20.3985      2.00000
     12     -20.3983      2.00000
     13     -20.3976      2.00000
     14     -20.3972      2.00000
     15     -20.3970      2.00000
     16     -19.4558      2.00000
     17     -19.4556      2.00000
     18     -19.4553      2.00000
     19     -19.4549      2.00000
     20     -19.4543      2.00000
     21     -19.4540      2.00000
     22     -17.2153      2.00000
     23     -17.2149      2.00000
     24     -17.2141      2.00000
     25     -17.2139      2.00000
     26     -17.2135      2.00000
     27     -17.2134      2.00000
     28     -16.0469      2.00000
     29     -16.0469      2.00000
     30     -16.0459      2.00000
     31     -16.0458      2.00000
     32     -16.0453      2.00000
     33     -16.0452      2.00000
     34     -14.6400      2.00000
     35     -14.6399      2.00000
     36     -14.6392      2.00000
     37     -14.6391      2.00000
     38     -14.6390      2.00000
     39     -14.6388      2.00000
     40     -12.8682      2.00000
     41     -12.1482      2.00000
     42     -12.1479      2.00000
     43     -12.1474      2.00000
     44     -12.1473      2.00000
     45     -12.1462      2.00000
     46     -12.1459      2.00000
     47     -11.9406      2.00000
     48     -11.9405      2.00000
     49     -11.9398      2.00000
     50     -11.9398      2.00000
     51     -11.9395      2.00000
     52     -11.9393      2.00000
     53     -11.5229      2.00000
     54     -11.3278      2.00000
     55     -11.3277      2.00000
     56     -10.6315      2.00000
     57     -10.4781      2.00000
     58     -10.4779      2.00000
     59     -10.4763      2.00000
     60     -10.4759      2.00000
     61     -10.4757      2.00000
     62     -10.4757      2.00000
     63      -9.4548      2.00000
     64      -9.4545      2.00000
     65      -9.4543      2.00000
     66      -9.4532      2.00000
     67      -9.4527      2.00000
     68      -9.4527      2.00000
     69      -9.1461      2.00000
     70      -9.1456      2.00000
     71      -9.1451      2.00000
     72      -9.1449      2.00000
     73      -9.1444      2.00000
     74      -9.1443      2.00000
     75      -9.1398      2.00000
     76      -9.1396      2.00000
     77      -9.1389      2.00000
     78      -9.1386      2.00000
     79      -9.1386      2.00000
     80      -9.1378      2.00000
     81      -7.6902      2.00000
     82      -7.6901      2.00000
     83      -7.4015      2.00000
     84      -7.3998      2.00000
     85      -7.3996      2.00000
     86      -7.3992      2.00000
     87      -7.3981      2.00000
     88      -7.3980      2.00000
     89      -7.2068      2.00000
     90      -7.2064      2.00000
     91      -7.2062      2.00000
     92      -7.2059      2.00000
     93      -7.2057      2.00000
     94      -7.2055      2.00000
     95      -6.2616      2.00000
     96      -6.2612      2.00000
     97      -6.2609      2.00000
     98      -6.2605      2.00000
     99      -6.2603      2.00000
    100      -6.2600      2.00000
    101      -5.8294      2.00000
    102      -5.8270      2.00000
    103      -4.1619      2.00000
    104      -4.1615      2.00000
    105      -4.1610      2.00000
    106      -4.1610      2.00000
    107      -4.1601      2.00000
    108      -4.1599      2.00000
    109      -1.1682      0.00000
    110      -1.1679      0.00000
    111      -1.1674      0.00000
    112      -1.1671      0.00000
    113      -1.1666      0.00000
    114      -1.1663      0.00000
    115       0.8236      0.00000
    116       0.8240      0.00000
    117       0.8246      0.00000
    118       0.8247      0.00000
    119       0.8248      0.00000
    120       0.8266      0.00000
    121       1.0079      0.00000
    122       1.3935      0.00000
    123       1.5308      0.00000
    124       1.5309      0.00000
    125       1.8552      0.00000
    126       2.2162      0.00000
    127       2.3540      0.00000
    128       2.3786      0.00000
    129       2.3889      0.00000
    130       2.3948      0.00000
    131       2.3977      0.00000
    132       2.5185      0.00000
    133       2.6910      0.00000
    134       2.6913      0.00000
    135       2.6917      0.00000
    136       2.6921      0.00000
    137       2.6923      0.00000
    138       2.6928      0.00000
    139       2.9811      0.00000
    140       2.9989      0.00000
    141       3.1003      0.00000
    142       3.1125      0.00000
    143       3.1191      0.00000
    144       3.1265      0.00000
    145       3.1386      0.00000
    146       3.1594      0.00000
    147       3.2315      0.00000
    148       3.2590      0.00000
    149       3.2732      0.00000
    150       3.3071      0.00000
    151       3.3230      0.00000
    152       4.3176      0.00000
    153       4.7759      0.00000
    154       4.8078      0.00000
    155       4.8384      0.00000
    156       4.9292      0.00000
    157       5.0572      0.00000
    158       5.1514      0.00000
    159       5.2056      0.00000
    160       5.2125      0.00000
    161       5.2154      0.00000
    162       5.2205      0.00000
    163       5.2214      0.00000
    164       5.2219      0.00000
    165       5.2422      0.00000
    166       5.2838      0.00000
    167       5.3487      0.00000
    168       5.3829      0.00000


--------------------------------------------------------------------------------------------------------


 soft charge-density along one line, spin component           1
         0         1         2         3         4         5         6         7         8         9
 total charge-density along one line
 
 pseudopotential strength for first ion, spin component:           1
 12.626  21.244   0.000   0.000   0.000   0.000   0.000   0.000
 21.244  35.745   0.000   0.000   0.000   0.000   0.000   0.000
  0.000   0.000  -3.230  -0.000   0.000  -5.784   0.000   0.000
  0.000   0.000  -0.000  -3.230  -0.000   0.000  -5.784  -0.000
  0.000   0.000   0.000  -0.000  -3.230   0.000  -0.000  -5.784
  0.000   0.000  -5.784   0.000   0.000 -10.336   0.000   0.000
  0.000   0.000   0.000  -5.784  -0.000   0.000 -10.335  -0.000
  0.000   0.000   0.000  -0.000  -5.784   0.000  -0.000 -10.336
 total augmentation occupancy for first ion, spin component:           1
 10.264  -3.894  -0.000  -0.002  -0.000   0.000   0.001   0.000
 -3.894   1.507   0.000   0.001   0.000  -0.000  -0.000  -0.000
 -0.000   0.000   8.469  -0.009   0.000  -3.024   0.003  -0.000
 -0.002   0.001  -0.009   4.016  -0.000   0.003  -1.207   0.000
 -0.000   0.000   0.000  -0.000   8.468  -0.000   0.000  -3.024
  0.000  -0.000  -3.024   0.003  -0.000   1.093  -0.001   0.000
  0.001  -0.000   0.003  -1.207   0.000  -0.001   0.368  -0.000
  0.000  -0.000  -0.000   0.000  -3.024   0.000  -0.000   1.093


------------------------ aborting loop because EDIFF is reached ----------------------------------------


    FORLOC:  cpu time    0.1046: real time    0.1053
    FORNL :  cpu time    2.9681: real time    2.9925
    FORCOR:  cpu time    1.2655: real time    1.2727
    OFIELD:  cpu time    0.0022: real time    0.0022
 WARNING: Using user supplied parameters
     VDW_A1 = 0.495
     VDW_A2 = 5.731
     VDW_S8 = 0.79
     because the xc functional is not supported. Required parameters not
     defined in the INCAR file will be replaced with PBE defaults ones.


 ---------------------------------------------------------------------------------------------

         DFTD3 V3.0 Rev 1        
 IVDW         = 12
 DF unknown   
 parameters
 VDW_S6       =    1.0000
 VDW_S8       =    0.7898
 VDW_A1       =    0.4948
 VDW_A2       =    5.7308
 k1-k3        =   16.0000    1.3333   -4.0000
 VDW_RADIUS   =   50.2022 A
 VDW_CNRADIUS =   21.1671 A
 Edisp (eV)   -1.70018

 E6    (eV) :    -1.3138
 E8    (eV) :    -0.3864
 % E8        : 22.73
    FORVDW:  cpu time    0.1461: real time    0.1471

 VOLUME and BASIS-vectors are now :
 -----------------------------------------------------------------------------
  energy-cutoff  :     1000.00
  volume of cell :     2631.08
      direct lattice vectors                 reciprocal lattice vectors
    12.325000000  0.000000000  0.000000000     0.081135903  0.046843835  0.000000000
    -6.162500000 10.673763102  0.000000000     0.000000000  0.093687670  0.000000000
     0.000000000  0.000000000 20.000000000     0.000000000  0.000000000  0.050000000

  length of vectors
    12.325000000 12.325000000 20.000000000     0.093687670  0.093687670  0.050000000


 FORCES acting on ions:
    Electron-Ion                     Ewald-Force                    Non-Local-Force
 -----------------------------------------------------------------------------------------------
   0.177E+01 0.154E+01 0.135E+02   -.178E+01 -.154E+01 -.135E+02   0.578E-02 -.876E-03 0.684E-02
   0.248E+01 0.124E+01 0.152E+02   -.249E+01 -.124E+01 -.152E+02   0.479E-02 -.376E-02 -.572E-02
   0.102E+01 0.277E+01 0.159E+02   -.102E+01 -.277E+01 -.159E+02   -.507E-03 0.129E-01 0.471E-03
   0.129E+01 0.187E+01 0.194E+02   -.129E+01 -.187E+01 -.194E+02   0.128E-01 0.959E-03 -.134E-01
   0.190E+01 0.465E+00 0.139E+02   -.190E+01 -.464E+00 -.139E+02   0.550E-03 -.617E-02 0.287E-02
   0.194E+01 -.411E+00 0.140E+02   -.195E+01 0.413E+00 -.140E+02   -.622E-02 0.283E-02 -.387E-02
   0.250E+01 0.941E+00 0.189E+02   -.250E+01 -.941E+00 -.189E+02   0.138E-01 -.202E-01 -.553E-02
   0.245E+01 -.858E+00 0.200E+02   -.246E+01 0.863E+00 -.200E+02   -.501E-02 -.684E-02 -.602E-02
   -.124E+01 0.255E+01 0.162E+02   0.124E+01 -.255E+01 -.162E+02   -.175E-02 -.116E-01 -.526E-02
   -.174E+01 0.147E+01 0.194E+02   0.174E+01 -.148E+01 -.194E+02   -.279E-01 0.162E-01 0.395E-02
   0.502E+00 -.519E+00 0.126E+02   -.498E+00 0.519E+00 -.126E+02   0.340E-02 -.262E-02 -.501E-03
   0.458E+00 -.387E+00 0.122E+02   -.458E+00 0.387E+00 -.122E+02   -.769E-02 0.364E-02 0.583E-02
   0.903E+00 -.201E+01 0.213E+02   -.906E+00 0.202E+01 -.212E+02   0.286E-01 -.922E-02 -.119E-02
   0.544E+00 -.283E+01 0.173E+02   -.550E+00 0.283E+01 -.173E+02   0.525E-02 0.538E-02 -.170E-01
   -.175E+01 0.106E+01 0.134E+02   0.175E+01 -.106E+01 -.134E+02   0.715E-02 -.376E-02 0.667E-02
   -.230E+01 0.677E+00 0.140E+02   0.230E+01 -.678E+00 -.140E+02   -.264E-02 0.598E-02 -.564E-02
   -.323E+00 -.127E+00 0.117E+02   0.328E+00 0.125E+00 -.117E+02   -.119E-02 0.922E-03 0.211E-02
   0.142E+00 0.110E+01 0.120E+02   -.141E+00 -.110E+01 -.120E+02   -.373E-02 0.219E-02 0.977E-02
   -.448E+00 -.272E+01 0.152E+02   0.446E+00 0.273E+01 -.152E+02   0.701E-02 -.254E-02 0.755E-03
   -.256E+00 -.163E+01 0.129E+02   0.251E+00 0.163E+01 -.129E+02   0.103E-02 -.163E-02 -.741E-03
   0.250E+01 -.110E+01 0.161E+02   -.250E+01 0.110E+01 -.161E+02   -.662E-03 -.311E-02 -.184E-01
   0.174E+01 -.142E+01 0.146E+02   -.175E+01 0.142E+01 -.146E+02   -.655E-02 0.509E-02 -.360E-02
   -.453E+00 0.828E+00 0.219E+02   0.450E+00 -.827E+00 -.219E+02   -.112E-01 0.110E-01 0.390E-02
   -.611E+00 -.130E+01 0.217E+02   0.613E+00 0.130E+01 -.217E+02   0.127E-01 -.160E-01 -.846E-02
   0.949E+00 -.356E+00 0.127E+02   -.947E+00 0.355E+00 -.127E+02   0.318E-02 -.237E-02 -.387E-02
   0.243E+00 0.823E+00 0.126E+02   -.242E+00 -.823E+00 -.126E+02   -.604E-02 0.398E-02 0.522E-02
   -.281E+01 0.363E+00 0.169E+02   0.281E+01 -.367E+00 -.169E+02   0.996E-02 0.872E-02 -.251E-02
   -.268E+01 -.107E+01 0.161E+02   0.268E+01 0.107E+01 -.162E+02   -.103E-01 0.960E-02 0.177E-02
   0.100E+01 -.202E+01 0.149E+02   -.100E+01 0.202E+01 -.149E+02   0.538E-02 0.178E-02 -.793E-02
   0.852E-01 -.884E+00 0.131E+02   -.879E-01 0.886E+00 -.131E+02   -.437E-02 0.242E-02 -.308E-02
   -.192E+01 -.197E+01 0.178E+02   0.192E+01 0.198E+01 -.178E+02   -.130E-01 -.851E-02 -.117E-01
   -.138E+01 -.258E+01 0.153E+02   0.138E+01 0.258E+01 -.153E+02   0.864E-03 -.221E-02 0.311E-02
   0.121E+00 0.519E+00 0.121E+02   -.122E+00 -.519E+00 -.121E+02   0.588E-02 -.503E-02 0.709E-02
   0.319E+00 0.490E+00 0.125E+02   -.322E+00 -.489E+00 -.125E+02   -.197E-02 0.436E-02 -.145E-02
   -.121E+01 0.212E+00 0.129E+02   0.121E+01 -.213E+00 -.129E+02   0.393E-02 -.228E-02 0.559E-02
   -.107E+01 -.475E+00 0.128E+02   0.107E+01 0.474E+00 -.128E+02   -.483E-02 0.269E-02 0.371E-02
   -.204E+01 -.108E+01 0.135E+02   0.205E+01 0.108E+01 -.135E+02   -.233E-02 0.132E-02 0.367E-02
   -.134E+01 -.107E+01 0.126E+02   0.134E+01 0.107E+01 -.126E+02   -.480E-02 0.140E-02 0.973E-02
   -.122E+01 -.155E+01 0.130E+02   0.122E+01 0.155E+01 -.130E+02   -.356E-02 0.147E-03 0.563E-02
   -.184E+00 -.417E+00 0.121E+02   0.185E+00 0.417E+00 -.122E+02   0.221E-02 0.445E-03 0.798E-02
   0.458E+00 0.115E+01 0.122E+02   -.459E+00 -.115E+01 -.123E+02   -.420E-02 0.235E-02 0.769E-02
   0.139E+01 0.214E+01 0.137E+02   -.139E+01 -.215E+01 -.137E+02   0.308E-05 -.397E-03 0.869E-02
   0.141E+00 0.191E+01 0.127E+02   -.136E+00 -.191E+01 -.127E+02   -.118E-02 0.170E-02 0.237E-02
   -.295E-01 0.283E+01 0.150E+02   0.318E-01 -.284E+01 -.150E+02   -.929E-02 0.297E-02 0.575E-02
   -.363E+00 0.684E+00 0.129E+02   0.365E+00 -.686E+00 -.129E+02   0.372E-02 -.282E-02 0.901E-03
   -.136E+01 0.168E+01 0.139E+02   0.136E+01 -.168E+01 -.139E+02   -.705E-02 0.936E-03 -.212E-02
   -.346E+00 -.831E+00 0.126E+02   0.345E+00 0.831E+00 -.126E+02   0.698E-02 -.162E-02 0.579E-02
   -.749E+00 0.271E+00 0.121E+02   0.747E+00 -.270E+00 -.121E+02   -.311E-02 0.329E-02 -.353E-02
   0.804E-01 -.516E+00 0.121E+02   -.815E-01 0.516E+00 -.121E+02   0.488E-02 -.336E-02 0.622E-02
   0.818E+00 0.583E+00 0.121E+02   -.822E+00 -.581E+00 -.121E+02   0.864E-03 0.150E-02 0.350E-02
   0.454E-02 0.195E-01 -.182E+03   -.883E-02 -.155E-01 0.183E+03   -.290E-02 0.189E-02 -.105E-02
   -.228E+03 0.155E+03 -.285E+03   0.279E+03 -.190E+03 0.289E+03   -.523E+02 0.356E+02 -.351E+01
   0.228E+03 -.155E+03 -.266E+03   -.279E+03 0.190E+03 0.263E+03   0.523E+02 -.356E+02 0.316E+01
 -----------------------------------------------------------------------------------------------
   -.781E-02 0.141E-01 0.357E+00   0.000E+00 0.568E-13 0.114E-12   0.731E-02 -.146E-01 -.347E+00
 
 
 POSITION                                       TOTAL-FORCE (eV/Angst)
 -----------------------------------------------------------------------------------
     11.98348      0.00342      0.01417         0.003381     -0.001795     -0.001367
     -0.34154      1.42665      0.01100        -0.001126     -0.000056     -0.003516
      2.12355      0.00315      0.01249        -0.002146      0.010627     -0.007000
      2.12326      1.42653      0.00641         0.013781      0.000935     -0.008237
     10.75099      2.13819      0.01213         0.000780     -0.005720     -0.000102
     -1.57382      3.56123      0.01110        -0.009270      0.004550     -0.001461
      0.89078      2.13854      0.00548         0.009557     -0.019423      0.003184
      0.89099      3.56147      0.00181        -0.012322     -0.002479      0.013740
      4.58864      0.00346      0.01135         0.003760     -0.016514     -0.003694
      4.58894      1.42623      0.00646        -0.023530      0.013295      0.015660
      9.51854      4.27281      0.01369         0.007139     -0.002923      0.000132
     -2.80632      5.69591      0.01434        -0.006914      0.003320      0.000684
      2.12300      4.27302      0.00000         0.025088     -0.004883      0.023213
      2.12335      5.69594      0.00581        -0.000822      0.009456     -0.002184
      7.05344      0.00333      0.01399         0.009407     -0.005656     -0.000576
      7.05353      1.42635      0.01368        -0.001599      0.005013     -0.004039
      8.28610      6.40752      0.01601         0.003321     -0.001257     -0.001087
     -4.03885      7.83070      0.01636        -0.002468      0.001026     -0.000407
      3.35586      6.40753      0.01007         0.005384      0.000741     -0.001148
      3.35599      7.83072      0.01320        -0.003147      0.000339     -0.000743
     -0.34146      4.27290      0.00723        -0.001821     -0.001246     -0.004169
     -0.34138      5.69591      0.00946        -0.009348      0.006474     -0.001048
      3.35624      2.13791      0.00222        -0.014349      0.012126      0.018279
      3.35573      3.56155      0.00139         0.014149     -0.016434      0.010290
     -1.57395      6.40758      0.01311         0.005725     -0.003967     -0.000559
     -1.57385      7.83068      0.01438        -0.005119      0.004016     -0.000175
      5.82093      2.13784      0.01033         0.016436      0.004942     -0.003042
      5.82114      3.56097      0.01156        -0.006140      0.008645     -0.003987
      0.89092      6.40755      0.00907         0.004527      0.002266     -0.001996
      0.89106      7.83068      0.01235        -0.006944      0.004219      0.000280
      4.58871      4.27293      0.00850        -0.013414     -0.006112     -0.011190
      4.58852      5.69606      0.01149         0.002446     -0.001241     -0.004269
      9.51845      0.00337      0.01490         0.004993     -0.004927     -0.000034
      9.51855      1.42644      0.01438        -0.005420      0.005548     -0.000398
      8.28593      2.13803      0.01453         0.007057     -0.003558      0.000332
      8.28613      3.56115      0.01464        -0.004565      0.002083     -0.000126
      7.05356      4.27269      0.01457         0.003007     -0.000911     -0.001049
      7.05362      5.69588      0.01553        -0.002545      0.001490     -0.000297
      5.82112      6.40755      0.01489        -0.003141      0.002081     -0.000315
      5.82102      7.83073      0.01579         0.003063      0.000301     -0.000520
      7.05363      8.54227      0.01631        -0.004785      0.001430      0.000846
     -5.27149      9.96549      0.01495         0.000218     -0.002186     -0.002666
     -2.80638      8.54234      0.01558         0.003389     -0.001643     -0.001530
     -2.80627      9.96553      0.01362        -0.006972     -0.000019     -0.004329
     -0.34149      8.54239      0.01378         0.005893     -0.005261      0.000194
     -0.34138      9.96550      0.01354        -0.005844      0.000239     -0.001432
      2.12343      8.54232      0.01336         0.005921     -0.001803      0.000843
      2.12354      9.96544      0.01469        -0.005278      0.004282     -0.002114
      4.58846      8.54235      0.01505         0.003768     -0.002845      0.000854
      4.58853      9.96550      0.01517        -0.002853      0.003588     -0.000051
      3.04930      2.68154      6.67420        -0.007204      0.005782      0.036568
      4.02070      2.02068      6.73862        -1.425231      0.969241     -0.112979
      2.07767      3.34267      6.61474         1.432128     -0.975198      0.068741
 -----------------------------------------------------------------------------------
    total drift:                               -0.000505     -0.000510      0.009720


--------------------------------------------------------------------------------------------------------



  FREE ENERGIE OF THE ION-ELECTRON SYSTEM (eV)
  ---------------------------------------------------
  free  energy   TOTEN  =      -525.01331574 eV

  energy  without entropy=     -525.01331574  energy(sigma->0) =     -525.01331574
 


--------------------------------------------------------------------------------------------------------


    POTLOK:  cpu time    1.4358: real time    1.4441


--------------------------------------------------------------------------------------------------------


 writing wavefunctions
     LOOP+:  cpu time  690.8055: real time  696.2672
    4ORBIT:  cpu time    0.0000: real time    0.0000

 total amount of memory used by VASP MPI-rank0   556209. kBytes
=======================================================================

   base      :      30000. kBytes
   nonl-proj :     184518. kBytes
   fftplans  :      31725. kBytes
   grid      :     282516. kBytes
   one-center:        162. kBytes
   wavefun   :      27288. kBytes
 
  
  
 General timing and accounting informations for this job:
 ========================================================
  
                  Total CPU time used (sec):      729.037
                            User time (sec):      708.937
                          System time (sec):       20.100
                         Elapsed time (sec):      735.987
  
                   Maximum memory used (kb):     1034640.
                   Average memory used (kb):          N/A
  
                          Minor page faults:       198363
                          Major page faults:           93
                 Voluntary context switches:         3707
