 vasp.6.2.1 16May21 (build Nov 06 2021 14:46:37) complex                        
  
 executed on             LinuxIFC date 2025.04.16  22:47:41
 running on  112 total cores
 distrk:  each k-point on   56 cores,    2 groups
 distr:  one band on NCORE=   1 cores,   56 groups


--------------------------------------------------------------------------------------------------------


 INCAR:
   ALGO = Conjugate
   KPAR = 2
   NCORE = 32
   ISMEAR = 0
   SIGMA = 0.01
   PREC = Accurate
   EDIFF = 1E-7
   ENCUT = 1000
   ISIF = 0
   METAGGA = R2SCAN
   LASPH = .TRUE.
   IVDW = 12
   VDW_S8 = 0.7898
   VDW_A1 = 0.4948
   VDW_A2 = 5.7308
   SYMPREC = 1E-7

 POTCAR:    PAW_PBE C_h 06Feb2004                 
 POTCAR:    PAW_PBE O_h 06Feb2004                 
 -----------------------------------------------------------------------------
|                                                                             |
|           W    W    AA    RRRRR   N    N  II  N    N   GGGG   !!!           |
|           W    W   A  A   R    R  NN   N  II  NN   N  G    G  !!!           |
|           W    W  A    A  R    R  N N  N  II  N N  N  G       !!!           |
|           W WW W  AAAAAA  RRRRR   N  N N  II  N  N N  G  GGG   !            |
|           WW  WW  A    A  R   R   N   NN  II  N   NN  G    G                |
|           W    W  A    A  R    R  N    N  II  N    N   GGGG   !!!           |
|                                                                             |
|     The value NCORE = 32 specified in the INCAR file was overwritten,       |
|     because it was not compatible with the 56 processes available:          |
|     NCORE = 1                                                               |
|     was used instead, please check that this makes sense for your           |
|     machine.                                                                |
|                                                                             |
 -----------------------------------------------------------------------------

 -----------------------------------------------------------------------------
|                                                                             |
|           W    W    AA    RRRRR   N    N  II  N    N   GGGG   !!!           |
|           W    W   A  A   R    R  NN   N  II  NN   N  G    G  !!!           |
|           W    W  A    A  R    R  N N  N  II  N N  N  G       !!!           |
|           W WW W  AAAAAA  RRRRR   N  N N  II  N  N N  G  GGG   !            |
|           WW  WW  A    A  R   R   N   NN  II  N   NN  G    G                |
|           W    W  A    A  R    R  N    N  II  N    N   GGGG   !!!           |
|                                                                             |
|     For optimal performance we recommend to set                             |
|       NCORE = 2 up to number-of-cores-per-socket                            |
|     NCORE specifies how many cores store one orbital (NPAR=cpu/NCORE).      |
|     This setting can greatly improve the performance of VASP for DFT.       |
|     The default, NCORE=1 might be grossly inefficient on modern             |
|     multi-core architectures or massively parallel machines. Do your        |
|     own testing! More info at https://www.vasp.at/wiki/index.php/NCORE      |
|     Unfortunately you need to use the default for GW and RPA                |
|     calculations (for HF NCORE is supported but not extensively tested      |
|     yet).                                                                   |
|                                                                             |
 -----------------------------------------------------------------------------

 POTCAR:    PAW_PBE C_h 06Feb2004                 
   VRHFIN =C: s2p2                                                                                  
   LEXCH  = PE                                                                                      
   EATOM  =   147.1560 eV,   10.8157 Ry                                                             
                                                                                                    
   TITEL  = PAW_PBE C_h 06Feb2004                                                                   
   LULTRA =        F    use ultrasoft PP ?                                                          
   IUNSCR =        1    unscreen: 0-lin 1-nonlin 2-no                                               
   RPACOR =    0.800    partial core radius                                                         
   POMASS =   12.011; ZVAL   =    4.000    mass and valenz                                          
   RCORE  =    1.100    outmost cutoff radius                                                       
   RWIGS  =    1.630; RWIGS  =    0.863    wigner-seitz radius (au A)                               
   ENMAX  =  700.000; ENMIN  =  500.000 eV                                                          
   ICORE  =        2    local potential                                                             
   LCOR   =        T    correct aug charges                                                         
   LPAW   =        T    paw PP                                                                      
   EAUG   =  946.768                                                                                
   DEXC   =    0.000                                                                                
   RMAX   =    1.128    core radius for proj-oper                                                   
   RAUG   =    1.300    factor for augmentation sphere                                              
   RDEP   =    1.162    radius for radial grids                                                     
   RDEPT  =    1.088    core radius for aug-charge                                                  
                                                                                                    
   Atomic configuration                                                                             
    4 entries                                                                                       
     n  l   j            E        occ.                                                              
     1  0  0.50      -273.3789   2.0000                                                             
     2  0  0.50       -13.7508   2.0000                                                             
     2  1  0.50        -5.2854   2.0000                                                             
     3  2  1.50        -5.4423   0.0000                                                             
   Description                                                                                      
     l       E           TYP  RCUT    TYP  RCUT                                                     
     0    -13.7508458     23  1.100                                                                 
     0     -8.2022199     23  1.100                                                                 
     1     -5.2854383     23  1.100                                                                 
     1      1.1560700     23  1.100                                                                 
     2     -5.4423304      7  1.100                                                                 
  local pseudopotential read in
  partial core-charges read in
  partial kinetic energy density read in
  atomic valenz-charges read in
  non local Contribution for L=           0  read in
    real space projection operators read in
  non local Contribution for L=           0  read in
    real space projection operators read in
  non local Contribution for L=           1  read in
    real space projection operators read in
  non local Contribution for L=           1  read in
    real space projection operators read in
    PAW grid and wavefunctions read in
 
   number of l-projection  operators is LMAX  =           4
   number of lm-projection operators is LMMAX =           8
 
 POTCAR:    PAW_PBE O_h 06Feb2004                 
   VRHFIN =O: s2p4                                                                                  
   LEXCH  = PE                                                                                      
   EATOM  =   432.3788 eV,   31.7789 Ry                                                             
                                                                                                    
   TITEL  = PAW_PBE O_h 06Feb2004                                                                   
   LULTRA =        F    use ultrasoft PP ?                                                          
   IUNSCR =        1    unscreen: 0-lin 1-nonlin 2-no                                               
   RPACOR =    0.800    partial core radius                                                         
   POMASS =   16.000; ZVAL   =    6.000    mass and valenz                                          
   RCORE  =    1.100    outmost cutoff radius                                                       
   RWIGS  =    1.400; RWIGS  =    0.741    wigner-seitz radius (au A)                               
   ENMAX  =  700.000; ENMIN  =  500.000 eV                                                          
   ICORE  =        2    local potential                                                             
   LCOR   =        T    correct aug charges                                                         
   LPAW   =        T    paw PP                                                                      
   EAUG   =  888.804                                                                                
   DEXC   =    0.000                                                                                
   RMAX   =    1.128    core radius for proj-oper                                                   
   RAUG   =    1.300    factor for augmentation sphere                                              
   RDEP   =    1.125    radius for radial grids                                                     
   RDEPT  =    1.088    core radius for aug-charge                                                  
                                                                                                    
   Atomic configuration                                                                             
    4 entries                                                                                       
     n  l   j            E        occ.                                                              
     1  0  0.50      -514.6923   2.0000                                                             
     2  0  0.50       -23.9615   2.0000                                                             
     2  1  0.50        -9.0305   4.0000                                                             
     3  2  1.50        -9.5241   0.0000                                                             
   Description                                                                                      
     l       E           TYP  RCUT    TYP  RCUT                                                     
     0    -23.9615319     23  1.100                                                                 
     0    -25.3221145     23  1.100                                                                 
     1     -9.0304911     23  1.100                                                                 
     1     -5.4802209     23  1.100                                                                 
     2     -9.5240782      7  1.100                                                                 
  local pseudopotential read in
  partial core-charges read in
  partial kinetic energy density read in
  atomic valenz-charges read in
  non local Contribution for L=           0  read in
    real space projection operators read in
  non local Contribution for L=           0  read in
    real space projection operators read in
  non local Contribution for L=           1  read in
    real space projection operators read in
  non local Contribution for L=           1  read in
    real space projection operators read in
    PAW grid and wavefunctions read in
 
   number of l-projection  operators is LMAX  =           4
   number of lm-projection operators is LMMAX =           8
 
 -----------------------------------------------------------------------------
|                                                                             |
|               ----> ADVICE to this user running VASP <----                  |
|                                                                             |
|     You have a (more or less) 'large supercell' and for larger cells it     |
|     might be more efficient to use real-space projection operators.         |
|     Therefore, try LREAL= Auto in the INCAR file.                           |
|     Mind: For very accurate calculation, you might also keep the            |
|     reciprocal projection scheme (i.e. LREAL=.FALSE.).                      |
|                                                                             |
 -----------------------------------------------------------------------------

  PAW_PBE C_h 06Feb2004                 :
 energy of atom  1       EATOM= -147.1560
 kinetic energy error for atom=    0.0031 (will be added to EATOM!!)
  PAW_PBE O_h 06Feb2004                 :
 energy of atom  2       EATOM= -432.3788
 kinetic energy error for atom=    0.0171 (will be added to EATOM!!)
 
 
 POSCAR:  C  O
  positions in cartesian coordinates
  No initial velocities read in

 METAGGA = R2SCA    LMAXTAU =  6    LMIXTAU =  F

 exchange correlation table for  LEXCH =        8
   RHO(1)=    0.500       N(1)  =     2000
   RHO(2)=  100.500       N(2)  =     4000
 


--------------------------------------------------------------------------------------------------------


 ion  position               nearest neighbor table
   1  0.972  0.000  0.001-  50 1.42   2 1.42  42 1.42
   2  0.039  0.134  0.000-   5 1.42   7 1.42   1 1.42
   3  0.172  0.000  0.000-  42 1.42  44 1.42   4 1.42
   4  0.239  0.134  0.000-   7 1.42   3 1.42  23 1.42
   5  0.972  0.200  0.000-   6 1.42   2 1.42  34 1.42
   6  0.039  0.334  0.000-   5 1.42  21 1.42  11 1.42
   7  0.172  0.200  0.000-   8 1.42   2 1.42   4 1.42
   8  0.239  0.334  0.000-  13 1.42   7 1.42  21 1.42
   9  0.372  0.000  0.000-  10 1.42  44 1.42  46 1.42
  10  0.439  0.134  0.000-  27 1.42   9 1.42  23 1.42
  11  0.972  0.400  0.001-  12 1.42  36 1.42   6 1.42
  12  0.039  0.534  0.001-  25 1.42  11 1.42  17 1.42
  13  0.372  0.400  0.000-   8 1.42  14 1.42  24 1.42
  14  0.439  0.534  0.000-  13 1.42  29 1.42  19 1.42
  15  0.572  0.000  0.001-  46 1.42  16 1.42  48 1.42
  16  0.639  0.134  0.001-  15 1.42  35 1.42  27 1.42
  17  0.972  0.600  0.001-  38 1.42  18 1.42  12 1.42
  18  0.039  0.734  0.001-  43 1.42  41 1.42  17 1.42
  19  0.572  0.600  0.000-  14 1.42  20 1.42  32 1.42
  20  0.639  0.734  0.001-  49 1.42  19 1.42  47 1.42
  21  0.172  0.400  0.000-  22 1.42   8 1.42   6 1.42
  22  0.239  0.534  0.000-  21 1.42  29 1.42  25 1.42
  23  0.372  0.200  0.000-  10 1.42   4 1.42  24 1.42
  24  0.439  0.334  0.000-  13 1.42  31 1.42  23 1.42
  25  0.172  0.600  0.001-  26 1.42  12 1.42  22 1.42
  26  0.239  0.734  0.001-  25 1.42  45 1.42  43 1.42
  27  0.572  0.200  0.000-  10 1.42  28 1.42  16 1.42
  28  0.639  0.334  0.000-  27 1.42  37 1.42  31 1.42
  29  0.372  0.600  0.000-  22 1.42  14 1.42  30 1.42
  30  0.439  0.734  0.000-  47 1.42  29 1.42  45 1.42
  31  0.572  0.400  0.000-  32 1.42  28 1.42  24 1.42
  32  0.639  0.534  0.000-  31 1.42  39 1.42  19 1.42
  33  0.772  0.000  0.001-  34 1.42  48 1.42  50 1.42
  34  0.839  0.134  0.001-  33 1.42   5 1.42  35 1.42
  35  0.772  0.200  0.001-  36 1.42  16 1.42  34 1.42
  36  0.839  0.334  0.001-  35 1.42  11 1.42  37 1.42
  37  0.772  0.400  0.001-  28 1.42  38 1.42  36 1.42
  38  0.839  0.534  0.001-  17 1.42  37 1.42  39 1.42
  39  0.772  0.600  0.001-  40 1.42  38 1.42  32 1.42
  40  0.839  0.734  0.001-  39 1.42  49 1.42  41 1.42
  41  0.972  0.800  0.001-  18 1.42  42 1.42  40 1.42
  42  0.039  0.934  0.001-   3 1.42  41 1.42   1 1.42
  43  0.172  0.800  0.001-  18 1.42  44 1.42  26 1.42
  44  0.239  0.934  0.001-   9 1.42  43 1.42   3 1.42
  45  0.372  0.800  0.001-  26 1.42  46 1.42  30 1.42
  46  0.439  0.934  0.001-  15 1.42  45 1.42   9 1.42
  47  0.572  0.800  0.001-  30 1.42  48 1.42  20 1.42
  48  0.639  0.934  0.001-  47 1.42  33 1.42  15 1.42
  49  0.772  0.800  0.001-  50 1.42  20 1.42  40 1.42
  50  0.839  0.934  0.001-  49 1.42   1 1.42  33 1.42
  51  0.373  0.251  0.317-  52 1.18  53 1.18
  52  0.421  0.189  0.320-  51 1.18
  53  0.325  0.313  0.315-  51 1.18
 
  LATTYP: Found a hexagonal cell.
 ALAT       =    12.3250000000
 C/A-ratio  =     2.0283975659
  
  Lattice vectors:
  
 A1 = (  12.3250000000,   0.0000000000,   0.0000000000)
 A2 = (  -6.1625000000,  10.6737631016,   0.0000000000)
 A3 = (   0.0000000000,   0.0000000000,  25.0000000000)


Analysis of symmetry for initial positions (statically):
=====================================================================
 Subroutine PRICEL returns:
 Original cell was already a primitive cell.
 

 Routine SETGRP: Setting up the symmetry group for a 
 hexagonal supercell.


 Subroutine GETGRP returns: Found  1 space group operations
 (whereof  1 operations were pure point group operations)
 out of a pool of 24 trial point group operations.


The static configuration has the point symmetry C_1 .


Analysis of symmetry for dynamics (positions and initial velocities):
=====================================================================
 Subroutine PRICEL returns:
 Original cell was already a primitive cell.
 

 Routine SETGRP: Setting up the symmetry group for a 
 hexagonal supercell.


 Subroutine GETGRP returns: Found  1 space group operations
 (whereof  1 operations were pure point group operations)
 out of a pool of 24 trial point group operations.


The dynamic configuration has the point symmetry C_1 .


 Subroutine INISYM returns: Found  1 space group operations
 (whereof  1 operations are pure point group operations),
 and found     1 'primitive' translations


----------------------------------------------------------------------------------------

                                     Primitive cell                                     

  volume of cell :    3288.8533

  direct lattice vectors                    reciprocal lattice vectors
    12.325000000  0.000000000  0.000000000     0.081135903  0.046843835  0.000000000
    -6.162500000 10.673763102  0.000000000     0.000000000  0.093687670  0.000000000
     0.000000000  0.000000000 25.000000000     0.000000000  0.000000000  0.040000000

  length of vectors
    12.325000000 12.325000000 25.000000000     0.093687670  0.093687670  0.040000000

  position of ions in fractional coordinates (direct lattice)
     0.972450841  0.000320818  0.000566711
     0.039118382  0.133659505  0.000440173
     0.172443627  0.000295449  0.000499628
     0.239096278  0.133647917  0.000256468
     0.972452058  0.200322012  0.000485219
     0.039128360  0.333643771  0.000444150
     0.172451764  0.200354552  0.000219167
     0.239124359  0.333665720  0.000072260
     0.372465565  0.000324403  0.000453913
     0.439137473  0.133619939  0.000258338
     0.972449824  0.400309362  0.000547611
     0.039124981  0.533636789  0.000573410
     0.372416176  0.400329481  0.000000000
     0.439099602  0.533638981  0.000232414
     0.572443676  0.000312125  0.000559580
     0.639110207  0.133631751  0.000547275
     0.972452703  0.600305653  0.000640289
     0.039124495  0.733640359  0.000654513
     0.572433471  0.600306242  0.000402895
     0.639111888  0.733641879  0.000527905
     0.172454630  0.400318228  0.000289045
     0.239120185  0.533636548  0.000378509
     0.372459750  0.200295993  0.000088997
     0.439107096  0.333673419  0.000055762
     0.172452155  0.600311506  0.000524340
     0.239123371  0.733638574  0.000575129
     0.572431082  0.200289171  0.000413296
     0.639112773  0.333618630  0.000462376
     0.372439808  0.600308022  0.000362844
     0.439116090  0.733637858  0.000494190
     0.572469358  0.400320504  0.000339918
     0.639119408  0.533650873  0.000459610
     0.772445723  0.000315427  0.000596161
     0.839116277  0.133640203  0.000575306
     0.772440513  0.200307432  0.000581033
     0.839120241  0.333635728  0.000585467
     0.772446320  0.400298367  0.000582978
     0.839118980  0.533633964  0.000621100
     0.772456143  0.600308173  0.000595712
     0.839115033  0.733643180  0.000631512
     0.972455313  0.800305582  0.000652233
     0.039114714  0.933643289  0.000598051
     0.172457971  0.800312211  0.000623372
     0.239134551  0.933647193  0.000544850
     0.372451396  0.800316674  0.000551399
     0.439124489  0.933644769  0.000541430
     0.572441101  0.800310054  0.000534535
     0.639115067  0.933638985  0.000587644
     0.772445098  0.800313187  0.000602062
     0.839116614  0.933644338  0.000606830
     0.373021009  0.251226878  0.317480210
     0.420879805  0.189313152  0.320057085
     0.325156981  0.313167186  0.315102016

  ion indices of the primitive-cell ions
   primitive index   ion index
                 1           1
                 2           2
                 3           3
                 4           4
                 5           5
                 6           6
                 7           7
                 8           8
                 9           9
                10          10
                11          11
                12          12
                13          13
                14          14
                15          15
                16          16
                17          17
                18          18
                19          19
                20          20
                21          21
                22          22
                23          23
                24          24
                25          25
                26          26
                27          27
                28          28
                29          29
                30          30
                31          31
                32          32
                33          33
                34          34
                35          35
                36          36
                37          37
                38          38
                39          39
                40          40
                41          41
                42          42
                43          43
                44          44
                45          45
                46          46
                47          47
                48          48
                49          49
                50          50
                51          51
                52          52
                53          53

----------------------------------------------------------------------------------------

 
 
 KPOINTS: auto                                    

Automatic generation of k-mesh.
 Grid dimensions read from file:
 generate k-points for:    1    1    1

 Generating k-lattice:

  Cartesian coordinates                     Fractional coordinates (reciprocal lattice)
     0.081135903  0.046843835  0.000000000     1.000000000 -0.000000000  0.000000000
     0.000000000  0.093687670  0.000000000     0.000000000  1.000000000  0.000000000
     0.000000000  0.000000000  0.040000000     0.000000000  0.000000000  1.000000000

  Length of vectors
     0.093687670  0.093687670  0.040000000

  Shift w.r.t. Gamma in fractional coordinates (k-lattice)
     0.000000000  0.000000000  0.000000000

 
 Subroutine IBZKPT returns following result:
 ===========================================
 
 Found      1 irreducible k-points:
 
 Following reciprocal coordinates:
            Coordinates               Weight
  0.000000  0.000000  0.000000      1.000000
 
 Following cartesian coordinates:
            Coordinates               Weight
  0.000000  0.000000  0.000000      1.000000
 


--------------------------------------------------------------------------------------------------------




 Dimension of arrays:
   k-points           NKPTS =      1   k-points in BZ     NKDIM =      1   number of bands    NBANDS=    168
   number of dos      NEDOS =    301   number of ions     NIONS =     53
   non local maximal  LDIM  =      4   non local SUM 2l+1 LMDIM =      8
   total plane-waves  NPLWV = ******
   max r-space proj   IRMAX =      1   max aug-charges    IRDMAX=  10008
   dimension x,y,z NGX =   128 NGY =  128 NGZ =  270
   dimension x,y,z NGXF=   256 NGYF=  256 NGZF=  540
   support grid    NGXF=   256 NGYF=  256 NGZF=  540
   ions per type =              51   2
   NGX,Y,Z   is equivalent  to a cutoff of  17.27, 17.27, 17.95 a.u.
   NGXF,Y,Z  is equivalent  to a cutoff of  34.53, 34.53, 35.91 a.u.

 SYSTEM =  unknown system                          
 POSCAR =   C  O                                   

 Startparameter for this run:
   NWRITE =      2    write-flag & timer
   PREC   = accura    normal or accurate (medium, high low for compatibility)
   ISTART =      0    job   : 0-new  1-cont  2-samecut
   ICHARG =      2    charge: 1-file 2-atom 10-const
   ISPIN  =      1    spin polarized calculation?
   LNONCOLLINEAR =      F non collinear calculations
   LSORBIT =      F    spin-orbit coupling
   INIWAV =      1    electr: 0-lowe 1-rand  2-diag
   LASPH  =      T    aspherical Exc in radial PAW
 Electronic Relaxation 1
   ENCUT  = 1000.0 eV  73.50 Ry    8.57 a.u.  31.78 31.78 64.46*2*pi/ulx,y,z
   ENINI  = 1000.0     initial cutoff
   ENAUG  =  946.8 eV  augmentation charge cutoff
   NELM   =     60;   NELMIN=  2; NELMDL= -5     # of ELM steps 
   EDIFF  = 0.1E-06   stopping-criterion for ELM
   LREAL  =      F    real-space projection
   NLSPLINE    = F    spline interpolate recip. space projectors
   LCOMPAT=      F    compatible to vasp.4.4
   GGA_COMPAT  = T    GGA compatible to vasp.4.4-vasp.4.6
   LMAXPAW     = -100 max onsite density
   LMAXMIX     =    2 max onsite mixed and CHGCAR
   VOSKOWN=      0    Vosko Wilk Nusair interpolation
   ROPT   =    0.00000   0.00000
 Ionic relaxation
   EDIFFG = 0.1E-05   stopping-criterion for IOM
   NSW    =      0    number of steps for IOM
   NBLOCK =      1;   KBLOCK =      1    inner block; outer block 
   IBRION =     -1    ionic relax: 0-MD 1-quasi-New 2-CG
   NFREE  =      0    steps in history (QN), initial steepest desc. (CG)
   ISIF   =      0    stress and relaxation
   IWAVPR =     10    prediction:  0-non 1-charg 2-wave 3-comb
   ISYM   =      2    0-nonsym 1-usesym 2-fastsym
   LCORR  =      T    Harris-Foulkes like correction to forces

   POTIM  = 0.5000    time-step for ionic-motion
   TEIN   =    0.0    initial temperature
   TEBEG  =    0.0;   TEEND  =   0.0 temperature during run
   SMASS  =  -3.00    Nose mass-parameter (am)
   estimated Nose-frequenzy (Omega)   =  0.10E-29 period in steps = 0.13E+47 mass=  -0.347E-26a.u.
   SCALEE = 1.0000    scale energy and forces
   NPACO  =    256;   APACO  = 16.0  distance and # of slots for P.C.
   PSTRESS=    0.0 pullay stress

  Mass of Ions in am
   POMASS =  12.01 16.00
  Ionic Valenz
   ZVAL   =   4.00  6.00
  Atomic Wigner-Seitz radii
   RWIGS  =  -1.00 -1.00
  virtual crystal weights 
   VCA    =   1.00  1.00
   NELECT =     216.0000    total number of electrons
   NUPDOWN=      -1.0000    fix difference up-down

 DOS related values:
   EMIN   =  10.00;   EMAX   =-10.00  energy-range for DOS
   EFERMI =   0.00
   ISMEAR =     0;   SIGMA  =   0.01  broadening in eV -4-tet -1-fermi 0-gaus

 Electronic relaxation 2 (details)
   IALGO  =     58    algorithm
   LDIAG  =      T    sub-space diagonalisation (order eigenvalues)
   LSUBROT=      F    optimize rotation matrix (better conditioning)
   TURBO    =      0    0=normal 1=particle mesh
   IRESTART =      0    0=no restart 2=restart with 2 vectors
   NREBOOT  =      0    no. of reboots
   NMIN     =      0    reboot dimension
   EREF     =   0.00    reference energy to select bands
   IMIX   =      4    mixing-type and parameters
     AMIX     =   0.40;   BMIX     =  1.00
     AMIX_MAG =   1.60;   BMIX_MAG =  1.00
     AMIN     =   0.10
     WC   =   100.;   INIMIX=   1;  MIXPRE=   1;  MAXMIX= -45

 Intra band minimization:
   WEIMIN = 0.0000     energy-eigenvalue tresh-hold
   EBREAK =  0.15E-09  absolut break condition
   DEPER  =   0.30     relativ break condition  

   TIME   =   0.40     timestep for ELM

  volume/ion in A,a.u.               =      62.05       418.76
  Fermi-wavevector in a.u.,A,eV,Ry     =   0.660508  1.248179  5.935820  0.436270
  Thomas-Fermi vector in A             =   1.732977
 
 Write flags
   LWAVE        =      T    write WAVECAR
   LDOWNSAMPLE  =      F    k-point downsampling of WAVECAR
   LCHARG       =      T    write CHGCAR
   LVTOT        =      F    write LOCPOT, total local potential
   LVHAR        =      F    write LOCPOT, Hartree potential only
   LELF         =      F    write electronic localiz. function (ELF)
   LORBIT       =      0    0 simple, 1 ext, 2 COOP (PROOUT), +10 PAW based schemes


 Dipole corrections
   LMONO  =      F    monopole corrections only (constant potential shift)
   LDIPOL =      F    correct potential (dipole corrections)
   IDIPOL =      0    1-x, 2-y, 3-z, 4-all directions 
   EPSILON=  1.0000000 bulk dielectric constant

 Exchange correlation treatment:
   GGA     =    --    GGA type
   LEXCH   =     8    internal setting for exchange type
   VOSKOWN=      0    Vosko Wilk Nusair interpolation
   LHFCALC =     F    Hartree Fock is set to
   LHFONE  =     F    Hartree Fock one center treatment
   AEXX    =    0.0000 exact exchange contribution

 Linear response parameters
   LEPSILON=     F    determine dielectric tensor
   LRPA    =     F    only Hartree local field effects (RPA)
   LNABLA  =     F    use nabla operator in PAW spheres
   LVEL    =     F    velocity operator in full k-point grid
   LINTERFAST=   F  fast interpolation
   KINTER  =     0    interpolate to denser k-point grid
   CSHIFT  =0.1000    complex shift for real part using Kramers Kronig
   OMEGAMAX=  -1.0    maximum frequency
   DEG_THRESHOLD= 0.2000000E-02 threshold for treating states as degnerate
   RTIME   =   -0.100 relaxation time in fs
  (WPLASMAI=    0.000 imaginary part of plasma frequency in eV, 0.658/RTIME)
   DFIELD  = 0.0000000 0.0000000 0.0000000 field for delta impulse in time
 
 Orbital magnetization related:
   ORBITALMAG=     F  switch on orbital magnetization
   LCHIMAG   =     F  perturbation theory with respect to B field
   DQ        =  0.001000  dq finite difference perturbation B field
   LLRAUG    =     F  two centre corrections for induced B field



--------------------------------------------------------------------------------------------------------


 Static calculation
 charge density and potential will be updated during run
 non-spin polarized calculation
 Conjugate gradient for all bands (Freysoldt, et al. PRB 79, 241103 (2009))
 preconditioned conjugated gradient                                        
 perform sub-space diagonalisation
    before iterative eigenvector-optimisation
 modified Broyden-mixing scheme, WC =      100.0
 initial mixing is a Kerker type mixing with AMIX =  0.4000 and BMIX =      1.0000
 Hartree-type preconditioning will be used
 using additional bands           60
 reciprocal scheme for non local part
 use partial core corrections
 no Harris-corrections to forces 
 use gradient corrections 
 use of overlap-Matrix (Vanderbilt PP)
 Gauss-broadening in eV      SIGMA  =   0.01


--------------------------------------------------------------------------------------------------------


  energy-cutoff  :     1000.00
  volume of cell :     3288.85
      direct lattice vectors                 reciprocal lattice vectors
    12.325000000  0.000000000  0.000000000     0.081135903  0.046843835  0.000000000
    -6.162500000 10.673763102  0.000000000     0.000000000  0.093687670  0.000000000
     0.000000000  0.000000000 25.000000000     0.000000000  0.000000000  0.040000000

  length of vectors
    12.325000000 12.325000000 25.000000000     0.093687670  0.093687670  0.040000000


 
 k-points in units of 2pi/SCALE and weight: auto                                    
   0.00000000  0.00000000  0.00000000       1.000
 
 k-points in reciprocal lattice and weights: auto                                    
   0.00000000  0.00000000  0.00000000       1.000
 
 position of ions in fractional coordinates (direct lattice) 
   0.97245084  0.00032082  0.00056671
   0.03911838  0.13365950  0.00044017
   0.17244363  0.00029545  0.00049963
   0.23909628  0.13364792  0.00025647
   0.97245206  0.20032201  0.00048522
   0.03912836  0.33364377  0.00044415
   0.17245176  0.20035455  0.00021917
   0.23912436  0.33366572  0.00007226
   0.37246557  0.00032440  0.00045391
   0.43913747  0.13361994  0.00025834
   0.97244982  0.40030936  0.00054761
   0.03912498  0.53363679  0.00057341
   0.37241618  0.40032948  0.00000000
   0.43909960  0.53363898  0.00023241
   0.57244368  0.00031213  0.00055958
   0.63911021  0.13363175  0.00054727
   0.97245270  0.60030565  0.00064029
   0.03912449  0.73364036  0.00065451
   0.57243347  0.60030624  0.00040289
   0.63911189  0.73364188  0.00052791
   0.17245463  0.40031823  0.00028904
   0.23912018  0.53363655  0.00037851
   0.37245975  0.20029599  0.00008900
   0.43910710  0.33367342  0.00005576
   0.17245216  0.60031151  0.00052434
   0.23912337  0.73363857  0.00057513
   0.57243108  0.20028917  0.00041330
   0.63911277  0.33361863  0.00046238
   0.37243981  0.60030802  0.00036284
   0.43911609  0.73363786  0.00049419
   0.57246936  0.40032050  0.00033992
   0.63911941  0.53365087  0.00045961
   0.77244572  0.00031543  0.00059616
   0.83911628  0.13364020  0.00057531
   0.77244051  0.20030743  0.00058103
   0.83912024  0.33363573  0.00058547
   0.77244632  0.40029837  0.00058298
   0.83911898  0.53363396  0.00062110
   0.77245614  0.60030817  0.00059571
   0.83911503  0.73364318  0.00063151
   0.97245531  0.80030558  0.00065223
   0.03911471  0.93364329  0.00059805
   0.17245797  0.80031221  0.00062337
   0.23913455  0.93364719  0.00054485
   0.37245140  0.80031667  0.00055140
   0.43912449  0.93364477  0.00054143
   0.57244110  0.80031005  0.00053453
   0.63911507  0.93363899  0.00058764
   0.77244510  0.80031319  0.00060206
   0.83911661  0.93364434  0.00060683
   0.37302101  0.25122688  0.31748021
   0.42087980  0.18931315  0.32005708
   0.32515698  0.31316719  0.31510202
 
 position of ions in cartesian coordinates  (Angst):
  11.98347958  0.00342433  0.01416777
  -0.34154264  1.42664989  0.01100432
   2.12354700  0.00315355  0.01249070
   2.12325634  1.42652621  0.00641170
  10.75098721  2.13818970  0.01213047
  -1.57382270  3.56123457  0.01110375
   0.89078307  2.13853702  0.00547917
   0.89099273  3.56146885  0.00180651
   4.58863896  0.00346260  0.01134782
   4.58893648  1.42622757  0.00645846
   9.51853763  4.27280730  0.01369027
  -2.80632132  5.69591267  0.01433526
   2.12299894  4.27302204  0.00000000
   2.12335237  5.69593607  0.00581036
   7.05344483  0.00333155  0.01398950
   7.05352764  1.42635365  0.01368187
   8.28609598  6.40752033  0.01600723
  -4.03884931  7.83070339  0.01636283
   3.35585531  6.40752662  0.01007237
   3.35598594  7.83071962  0.01319763
  -0.34145776  4.27290193  0.00722612
  -0.34137895  5.69591010  0.00946273
   3.35624236  2.13791198  0.00222492
   3.35573251  3.56155103  0.00139405
  -1.57394684  6.40758280  0.01310850
  -1.57385216  7.83068434  0.01437823
   5.82093107  2.13783916  0.01033241
   5.82114012  3.56096622  0.01155939
   0.89092245  6.40754561  0.00907111
   0.89106251  7.83067670  0.01235474
   4.58870974  4.27292622  0.00849795
   4.58852320  5.69606300  0.01149026
   9.51844972  0.00336679  0.01490402
   9.51855036  1.42644387  0.01438264
   8.28593477  2.13803408  0.01452582
   8.28612680  3.56114872  0.01463668
   7.05356221  4.27268994  0.01457444
   7.05362213  5.69588251  0.01552751
   5.82112285  6.40754723  0.01489279
   5.82101669  7.83073350  0.01578780
   7.05362858  8.54227219  0.01630582
  -5.27148792  9.96548729  0.01495127
  -2.80637951  8.54234295  0.01558431
  -2.80626749  9.96552896  0.01362126
  -0.34148805  8.54239058  0.01378498
  -0.34137657  9.96550309  0.01353576
   2.12342586  8.54231992  0.01336337
   2.12354296  9.96544135  0.01469111
   4.58845581  8.54235337  0.01505154
   4.58852904  9.96549848  0.01517076
   3.04929830  2.68153618  7.93700526
   4.02070129  2.02068374  8.00142712
   2.07766701  3.34267235  7.87755039
 


--------------------------------------------------------------------------------------------------------


 k-point   1 :   0.0000 0.0000 0.0000  plane waves:  236157

 maximum and minimum number of plane-waves per node :    236157   236157

 maximum number of plane-waves:    236157
 maximum index in each direction: 
   IXMAX=   31   IYMAX=   31   IZMAX=   64
   IXMIN=  -31   IYMIN=  -31   IZMIN=  -64


 serial   3D FFT for wavefunctions
 parallel 3D FFT for charge:
    minimum data exchange during FFTs selected (reduces bandwidth)


 total amount of memory used by VASP MPI-rank0   698619. kBytes
=======================================================================

   base      :      30000. kBytes
   nonl-proj :     230539. kBytes
   fftplans  :      40716. kBytes
   grid      :     363125. kBytes
   one-center:        162. kBytes
   wavefun   :      34077. kBytes
 
     INWAV:  cpu time    0.0000: real time    0.0000
 Broyden mixing: mesh for mixing (old mesh)
   NGX = 63   NGY = 63   NGZ =129
  (NGX  =256   NGY  =256   NGZ  =540)
  gives a total of 512001 points

 initial charge density was supplied:
 charge density of overlapping atoms calculated
 number of electron     216.0000000 magnetization 
 keeping initial charge density in first step


--------------------------------------------------------------------------------------------------------


 Maximum index for augmentation-charges          471 (set IRDMAX)


--------------------------------------------------------------------------------------------------------


 First call to EWALD:  gamma=   0.119
 Maximum number of real-space cells 4x 4x 2
 Maximum number of reciprocal cells 2x 2x 4

    FEWALD:  cpu time    0.0025: real time    0.0025


--------------------------------------- Iteration      1(   1)  ---------------------------------------


    POTLOK:  cpu time    1.7310: real time    1.7419
    SETDIJ:  cpu time    0.2002: real time    0.2009
    TRIAL :  cpu time   28.1019: real time   28.3292
    CORREC:  cpu time    0.0005: real time    0.0006
    --------------------------------------------
      LOOP:  cpu time   30.0495: real time   30.2906

 eigenvalue-minimisations  :   336
 total energy-change (2. order) : 0.2542352E+04  (-0.1080331E+05)
 number of electron     216.0000000 magnetization 
 augmentation part      216.0000000 magnetization 

 Free energy of the ion-electron system (eV)
  ---------------------------------------------------
  alpha Z        PSCENC =        47.94900195
  Ewald energy   TEWEN  =     41669.36851546
  -Hartree energ DENC   =    -47738.58488265
  -exchange      EXHF   =         0.00000000
  -V(xc)+E(xc)   XCENC  =       605.05707427
  PAW double counting   =      6340.10990386    -6200.63067283
  entropy T*S    EENTRO =        -0.00000000
  eigenvalues    EBANDS =      -550.44041246
  atomic energy  EATOM  =      8369.52358910
  ---------------------------------------------------
  free energy    TOTEN  =      2542.35211670 eV

  energy without entropy =     2542.35211670  energy(sigma->0) =     2542.35211670


--------------------------------------------------------------------------------------------------------




--------------------------------------- Iteration      1(   2)  ---------------------------------------


    TRIAL :  cpu time   39.8709: real time   40.1827
    CORREC:  cpu time    0.0001: real time    0.0001
    --------------------------------------------
      LOOP:  cpu time   39.9072: real time   40.2218

 eigenvalue-minimisations  :   560
 total energy-change (2. order) :-0.2481754E+04  (-0.2324192E+04)
 number of electron     216.0000000 magnetization 
 augmentation part      216.0000000 magnetization 

 Free energy of the ion-electron system (eV)
  ---------------------------------------------------
  alpha Z        PSCENC =        47.94900195
  Ewald energy   TEWEN  =     41669.36851546
  -Hartree energ DENC   =    -47738.58488265
  -exchange      EXHF   =         0.00000000
  -V(xc)+E(xc)   XCENC  =       605.05707427
  PAW double counting   =      6340.10990386    -6200.63067283
  entropy T*S    EENTRO =        -0.00000000
  eigenvalues    EBANDS =     -3032.19427523
  atomic energy  EATOM  =      8369.52358910
  ---------------------------------------------------
  free energy    TOTEN  =        60.59825393 eV

  energy without entropy =       60.59825393  energy(sigma->0) =       60.59825393


--------------------------------------------------------------------------------------------------------




--------------------------------------- Iteration      1(   3)  ---------------------------------------


    TRIAL :  cpu time   30.9871: real time   31.2294
    CORREC:  cpu time    0.0001: real time    0.0001
    --------------------------------------------
      LOOP:  cpu time   31.0224: real time   31.2699

 eigenvalue-minimisations  :   392
 total energy-change (2. order) :-0.6340121E+03  (-0.6308902E+03)
 number of electron     216.0000000 magnetization 
 augmentation part      216.0000000 magnetization 

 Free energy of the ion-electron system (eV)
  ---------------------------------------------------
  alpha Z        PSCENC =        47.94900195
  Ewald energy   TEWEN  =     41669.36851546
  -Hartree energ DENC   =    -47738.58488265
  -exchange      EXHF   =         0.00000000
  -V(xc)+E(xc)   XCENC  =       605.05707427
  PAW double counting   =      6340.10990386    -6200.63067283
  entropy T*S    EENTRO =        -0.00000000
  eigenvalues    EBANDS =     -3666.20634666
  atomic energy  EATOM  =      8369.52358910
  ---------------------------------------------------
  free energy    TOTEN  =      -573.41381749 eV

  energy without entropy =     -573.41381749  energy(sigma->0) =     -573.41381749


--------------------------------------------------------------------------------------------------------




--------------------------------------- Iteration      1(   4)  ---------------------------------------


    TRIAL :  cpu time   33.9505: real time   34.2103
    CORREC:  cpu time    0.0001: real time    0.0001
    --------------------------------------------
      LOOP:  cpu time   33.9930: real time   34.2590

 eigenvalue-minimisations  :   448
 total energy-change (2. order) :-0.3320030E+02  (-0.3294644E+02)
 number of electron     216.0000000 magnetization 
 augmentation part      216.0000000 magnetization 

 Free energy of the ion-electron system (eV)
  ---------------------------------------------------
  alpha Z        PSCENC =        47.94900195
  Ewald energy   TEWEN  =     41669.36851546
  -Hartree energ DENC   =    -47738.58488265
  -exchange      EXHF   =         0.00000000
  -V(xc)+E(xc)   XCENC  =       605.05707427
  PAW double counting   =      6340.10990386    -6200.63067283
  entropy T*S    EENTRO =        -0.00000000
  eigenvalues    EBANDS =     -3699.40664309
  atomic energy  EATOM  =      8369.52358910
  ---------------------------------------------------
  free energy    TOTEN  =      -606.61411393 eV

  energy without entropy =     -606.61411393  energy(sigma->0) =     -606.61411393


--------------------------------------------------------------------------------------------------------




--------------------------------------- Iteration      1(   5)  ---------------------------------------


    TRIAL :  cpu time   30.9748: real time   31.2353
    CORREC:  cpu time    0.0001: real time    0.0001
    CHARGE:  cpu time    3.0027: real time    3.0246
    --------------------------------------------
      LOOP:  cpu time   34.0007: real time   34.3077

 eigenvalue-minimisations  :   392
 total energy-change (2. order) :-0.1121970E+01  (-0.1120215E+01)
 number of electron     216.0000000 magnetization 
 augmentation part       -0.4500302 magnetization 

 Free energy of the ion-electron system (eV)
  ---------------------------------------------------
  alpha Z        PSCENC =        47.94900195
  Ewald energy   TEWEN  =     41669.36851546
  -Hartree energ DENC   =    -47738.58488265
  -exchange      EXHF   =         0.00000000
  -V(xc)+E(xc)   XCENC  =       605.05707427
  PAW double counting   =      6340.10990386    -6200.63067283
  entropy T*S    EENTRO =        -0.00000000
  eigenvalues    EBANDS =     -3700.52861354
  atomic energy  EATOM  =      8369.52358910
  ---------------------------------------------------
  free energy    TOTEN  =      -607.73608438 eV

  energy without entropy =     -607.73608438  energy(sigma->0) =     -607.73608438


--------------------------------------------------------------------------------------------------------




--------------------------------------- Iteration      1(   6)  ---------------------------------------


    POTLOK:  cpu time    1.6910: real time    1.7007
    SETDIJ:  cpu time    0.2036: real time    0.2043
    TRIAL :  cpu time   20.0922: real time   20.2496
    CORREC:  cpu time    8.9520: real time    9.0169
    CHARGE:  cpu time    2.9856: real time    3.0072
    --------------------------------------------
      LOOP:  cpu time   33.9744: real time   34.2556

 eigenvalue-minimisations  :     0
 total energy-change (2. order) : 0.9795919E+02  (-0.1124190E+02)
 number of electron     216.0000000 magnetization 
 augmentation part       -0.5093857 magnetization 

 Free energy of the ion-electron system (eV)
  ---------------------------------------------------
  alpha Z        PSCENC =        47.94900195
  Ewald energy   TEWEN  =     41669.36851546
  -Hartree energ DENC   =    -49081.23106853
  -exchange      EXHF   =         0.00000000
  -V(xc)+E(xc)   XCENC  =       676.76295343
  PAW double counting   =    119493.83883841  -119354.24787405
  entropy T*S    EENTRO =        -0.00000000
  eigenvalues    EBANDS =     -2331.74085504
  atomic energy  EATOM  =      8369.52358910
  ---------------------------------------------------
  free energy    TOTEN  =      -509.77689927 eV

  energy without entropy =     -509.77689927  energy(sigma->0) =     -509.77689927


--------------------------------------------------------------------------------------------------------




--------------------------------------- Iteration      1(   7)  ---------------------------------------


    POTLOK:  cpu time    1.6976: real time    1.7075
    SETDIJ:  cpu time    0.1901: real time    0.1907
    TRIAL :  cpu time   20.0733: real time   20.2215
    CORREC:  cpu time    8.9377: real time    9.0049
    CHARGE:  cpu time    2.9949: real time    3.0159
    --------------------------------------------
      LOOP:  cpu time   33.9613: real time   34.2119

 eigenvalue-minimisations  :     0
 total energy-change (2. order) :-0.1125693E+02  (-0.1479702E+01)
 number of electron     216.0000000 magnetization 
 augmentation part       -0.5422230 magnetization 

 Free energy of the ion-electron system (eV)
  ---------------------------------------------------
  alpha Z        PSCENC =        47.94900195
  Ewald energy   TEWEN  =     41669.36851546
  -Hartree energ DENC   =    -48672.76457809
  -exchange      EXHF   =         0.00000000
  -V(xc)+E(xc)   XCENC  =       659.17112941
  PAW double counting   =    138712.84312458  -138571.51794220
  entropy T*S    EENTRO =        -0.00000000
  eigenvalues    EBANDS =     -2735.60666764
  atomic energy  EATOM  =      8369.52358910
  ---------------------------------------------------
  free energy    TOTEN  =      -521.03382744 eV

  energy without entropy =     -521.03382744  energy(sigma->0) =     -521.03382744


--------------------------------------------------------------------------------------------------------




--------------------------------------- Iteration      1(   8)  ---------------------------------------


    POTLOK:  cpu time    1.6899: real time    1.6995
    SETDIJ:  cpu time    0.1991: real time    0.1998
    TRIAL :  cpu time   20.0329: real time   20.2144
    CORREC:  cpu time    8.9504: real time    9.0417
    CHARGE:  cpu time    2.9800: real time    3.0114
    --------------------------------------------
      LOOP:  cpu time   33.9300: real time   34.2674

 eigenvalue-minimisations  :     0
 total energy-change (2. order) :-0.1479235E+01  (-0.4786846E+00)
 number of electron     216.0000000 magnetization 
 augmentation part       -0.5433906 magnetization 

 Free energy of the ion-electron system (eV)
  ---------------------------------------------------
  alpha Z        PSCENC =        47.94900195
  Ewald energy   TEWEN  =     41669.36851546
  -Hartree energ DENC   =    -48641.88336340
  -exchange      EXHF   =         0.00000000
  -V(xc)+E(xc)   XCENC  =       658.07401423
  PAW double counting   =    148269.59800015  -148128.14699340
  entropy T*S    EENTRO =        -0.00000000
  eigenvalues    EBANDS =     -2766.99582638
  atomic energy  EATOM  =      8369.52358910
  ---------------------------------------------------
  free energy    TOTEN  =      -522.51306229 eV

  energy without entropy =     -522.51306229  energy(sigma->0) =     -522.51306229


--------------------------------------------------------------------------------------------------------




--------------------------------------- Iteration      1(   9)  ---------------------------------------


    POTLOK:  cpu time    1.6916: real time    1.7010
    SETDIJ:  cpu time    0.2000: real time    0.2007
    TRIAL :  cpu time   20.0780: real time   20.2455
    CORREC:  cpu time    8.9652: real time    9.0299
    CHARGE:  cpu time    2.9973: real time    3.0200
    --------------------------------------------
      LOOP:  cpu time   33.9981: real time   34.2662

 eigenvalue-minimisations  :     0
 total energy-change (2. order) :-0.4784222E+00  (-0.1929687E+00)
 number of electron     216.0000000 magnetization 
 augmentation part       -0.5401095 magnetization 

 Free energy of the ion-electron system (eV)
  ---------------------------------------------------
  alpha Z        PSCENC =        47.94900195
  Ewald energy   TEWEN  =     41669.36851546
  -Hartree energ DENC   =    -48648.85004611
  -exchange      EXHF   =         0.00000000
  -V(xc)+E(xc)   XCENC  =       658.02279453
  PAW double counting   =    156249.43492027  -156107.91223159
  entropy T*S    EENTRO =        -0.00000000
  eigenvalues    EBANDS =     -2760.52802812
  atomic energy  EATOM  =      8369.52358910
  ---------------------------------------------------
  free energy    TOTEN  =      -522.99148451 eV

  energy without entropy =     -522.99148451  energy(sigma->0) =     -522.99148451


--------------------------------------------------------------------------------------------------------




--------------------------------------- Iteration      1(  10)  ---------------------------------------


    POTLOK:  cpu time    1.6916: real time    1.7011
    SETDIJ:  cpu time    0.1968: real time    0.1976
    TRIAL :  cpu time   20.0500: real time   20.2168
    CORREC:  cpu time    8.9302: real time    9.0197
    CHARGE:  cpu time    2.9890: real time    3.0102
    --------------------------------------------
      LOOP:  cpu time   33.9107: real time   34.2134

 eigenvalue-minimisations  :     0
 total energy-change (2. order) :-0.1926864E+00  (-0.8415314E-01)
 number of electron     216.0000000 magnetization 
 augmentation part       -0.5344397 magnetization 

 Free energy of the ion-electron system (eV)
  ---------------------------------------------------
  alpha Z        PSCENC =        47.94900195
  Ewald energy   TEWEN  =     41669.36851546
  -Hartree energ DENC   =    -48648.28805875
  -exchange      EXHF   =         0.00000000
  -V(xc)+E(xc)   XCENC  =       657.92788223
  PAW double counting   =    160208.18545209  -160066.61236967
  entropy T*S    EENTRO =        -0.00000000
  eigenvalues    EBANDS =     -2761.23818328
  atomic energy  EATOM  =      8369.52358910
  ---------------------------------------------------
  free energy    TOTEN  =      -523.18417086 eV

  energy without entropy =     -523.18417086  energy(sigma->0) =     -523.18417086


--------------------------------------------------------------------------------------------------------




--------------------------------------- Iteration      1(  11)  ---------------------------------------


    POTLOK:  cpu time    1.6886: real time    1.6985
    SETDIJ:  cpu time    0.2012: real time    0.2018
    TRIAL :  cpu time   20.0640: real time   20.2205
    CORREC:  cpu time    8.9541: real time    9.0226
    CHARGE:  cpu time    2.9965: real time    3.0190
    --------------------------------------------
      LOOP:  cpu time   33.9913: real time   34.2630

 eigenvalue-minimisations  :     0
 total energy-change (2. order) :-0.8396326E-01  (-0.3233848E-01)
 number of electron     216.0000000 magnetization 
 augmentation part       -0.5306510 magnetization 

 Free energy of the ion-electron system (eV)
  ---------------------------------------------------
  alpha Z        PSCENC =        47.94900195
  Ewald energy   TEWEN  =     41669.36851546
  -Hartree energ DENC   =    -48642.31518937
  -exchange      EXHF   =         0.00000000
  -V(xc)+E(xc)   XCENC  =       657.85899864
  PAW double counting   =    160840.41892180  -160698.86618881
  entropy T*S    EENTRO =        -0.00000000
  eigenvalues    EBANDS =     -2767.20578290
  atomic energy  EATOM  =      8369.52358910
  ---------------------------------------------------
  free energy    TOTEN  =      -523.26813413 eV

  energy without entropy =     -523.26813413  energy(sigma->0) =     -523.26813413


--------------------------------------------------------------------------------------------------------




--------------------------------------- Iteration      1(  12)  ---------------------------------------


    POTLOK:  cpu time    1.6934: real time    1.7033
    SETDIJ:  cpu time    0.1983: real time    0.1990
    TRIAL :  cpu time   20.0482: real time   20.2096
    CORREC:  cpu time    8.9653: real time    9.0290
    CHARGE:  cpu time    2.9718: real time    3.0038
    --------------------------------------------
      LOOP:  cpu time   33.8823: real time   34.1811

 eigenvalue-minimisations  :     0
 total energy-change (2. order) :-0.3229094E-01  (-0.1005676E-01)
 number of electron     216.0000000 magnetization 
 augmentation part       -0.5303595 magnetization 

 Free energy of the ion-electron system (eV)
  ---------------------------------------------------
  alpha Z        PSCENC =        47.94900195
  Ewald energy   TEWEN  =     41669.36851546
  -Hartree energ DENC   =    -48637.69971412
  -exchange      EXHF   =         0.00000000
  -V(xc)+E(xc)   XCENC  =       657.78750323
  PAW double counting   =    160222.73990521  -160081.21343259
  entropy T*S    EENTRO =        -0.00000000
  eigenvalues    EBANDS =     -2771.75579331
  atomic energy  EATOM  =      8369.52358910
  ---------------------------------------------------
  free energy    TOTEN  =      -523.30042507 eV

  energy without entropy =     -523.30042507  energy(sigma->0) =     -523.30042507


--------------------------------------------------------------------------------------------------------




--------------------------------------- Iteration      1(  13)  ---------------------------------------


    POTLOK:  cpu time    1.6938: real time    1.7037
    SETDIJ:  cpu time    0.1957: real time    0.1964
    TRIAL :  cpu time   20.0545: real time   20.2079
    CORREC:  cpu time    8.9534: real time    9.0177
    CHARGE:  cpu time    2.9993: real time    3.0216
    --------------------------------------------
      LOOP:  cpu time   33.9463: real time   34.1979

 eigenvalue-minimisations  :     0
 total energy-change (2. order) :-0.1003856E-01  (-0.2804280E-02)
 number of electron     216.0000000 magnetization 
 augmentation part       -0.5308791 magnetization 

 Free energy of the ion-electron system (eV)
  ---------------------------------------------------
  alpha Z        PSCENC =        47.94900195
  Ewald energy   TEWEN  =     41669.36851546
  -Hartree energ DENC   =    -48636.47019568
  -exchange      EXHF   =         0.00000000
  -V(xc)+E(xc)   XCENC  =       657.74291450
  PAW double counting   =    159497.27257127  -159355.75100371
  entropy T*S    EENTRO =        -0.00000000
  eigenvalues    EBANDS =     -2772.94585653
  atomic energy  EATOM  =      8369.52358910
  ---------------------------------------------------
  free energy    TOTEN  =      -523.31046363 eV

  energy without entropy =     -523.31046363  energy(sigma->0) =     -523.31046363


--------------------------------------------------------------------------------------------------------




--------------------------------------- Iteration      1(  14)  ---------------------------------------


    POTLOK:  cpu time    1.6941: real time    1.7040
    SETDIJ:  cpu time    0.2083: real time    0.2092
    TRIAL :  cpu time   20.0746: real time   20.2316
    CORREC:  cpu time    8.9549: real time    9.0204
    CHARGE:  cpu time    2.9845: real time    3.0071
    --------------------------------------------
      LOOP:  cpu time   33.9431: real time   34.2308

 eigenvalue-minimisations  :     0
 total energy-change (2. order) :-0.2793354E-02  (-0.7900137E-03)
 number of electron     216.0000000 magnetization 
 augmentation part       -0.5311966 magnetization 

 Free energy of the ion-electron system (eV)
  ---------------------------------------------------
  alpha Z        PSCENC =        47.94900195
  Ewald energy   TEWEN  =     41669.36851546
  -Hartree energ DENC   =    -48636.58348168
  -exchange      EXHF   =         0.00000000
  -V(xc)+E(xc)   XCENC  =       657.73112171
  PAW double counting   =    159070.39874198  -158928.87580169
  entropy T*S    EENTRO =        -0.00000000
  eigenvalues    EBANDS =     -2772.82494382
  atomic energy  EATOM  =      8369.52358910
  ---------------------------------------------------
  free energy    TOTEN  =      -523.31325699 eV

  energy without entropy =     -523.31325699  energy(sigma->0) =     -523.31325699


--------------------------------------------------------------------------------------------------------




--------------------------------------- Iteration      1(  15)  ---------------------------------------


    POTLOK:  cpu time    1.6921: real time    1.7019
    SETDIJ:  cpu time    0.1956: real time    0.1963
    TRIAL :  cpu time   20.0466: real time   20.2127
    CORREC:  cpu time    8.9625: real time    9.0291
    CHARGE:  cpu time    2.9988: real time    3.0211
    --------------------------------------------
      LOOP:  cpu time   33.9373: real time   34.2077

 eigenvalue-minimisations  :     0
 total energy-change (2. order) :-0.7848325E-03  (-0.2378195E-03)
 number of electron     216.0000000 magnetization 
 augmentation part       -0.5314253 magnetization 

 Free energy of the ion-electron system (eV)
  ---------------------------------------------------
  alpha Z        PSCENC =        47.94900195
  Ewald energy   TEWEN  =     41669.36851546
  -Hartree energ DENC   =    -48636.50402161
  -exchange      EXHF   =         0.00000000
  -V(xc)+E(xc)   XCENC  =       657.72492457
  PAW double counting   =    158858.10100425  -158716.57680743
  entropy T*S    EENTRO =        -0.00000000
  eigenvalues    EBANDS =     -2772.90024812
  atomic energy  EATOM  =      8369.52358910
  ---------------------------------------------------
  free energy    TOTEN  =      -523.31404182 eV

  energy without entropy =     -523.31404182  energy(sigma->0) =     -523.31404182


--------------------------------------------------------------------------------------------------------




--------------------------------------- Iteration      1(  16)  ---------------------------------------


    POTLOK:  cpu time    1.6892: real time    1.6998
    SETDIJ:  cpu time    0.2010: real time    0.2017
    TRIAL :  cpu time   20.0525: real time   20.2090
    CORREC:  cpu time    8.9486: real time    9.0199
    CHARGE:  cpu time    2.9915: real time    3.0148
    --------------------------------------------
      LOOP:  cpu time   33.9055: real time   34.1858

 eigenvalue-minimisations  :     0
 total energy-change (2. order) :-0.2354116E-03  (-0.8476293E-04)
 number of electron     216.0000000 magnetization 
 augmentation part       -0.5315307 magnetization 

 Free energy of the ion-electron system (eV)
  ---------------------------------------------------
  alpha Z        PSCENC =        47.94900195
  Ewald energy   TEWEN  =     41669.36851546
  -Hartree energ DENC   =    -48636.41811217
  -exchange      EXHF   =         0.00000000
  -V(xc)+E(xc)   XCENC  =       657.71965625
  PAW double counting   =    158738.24957270  -158596.72375107
  entropy T*S    EENTRO =        -0.00000000
  eigenvalues    EBANDS =     -2772.98274946
  atomic energy  EATOM  =      8369.52358910
  ---------------------------------------------------
  free energy    TOTEN  =      -523.31427723 eV

  energy without entropy =     -523.31427723  energy(sigma->0) =     -523.31427723


--------------------------------------------------------------------------------------------------------




--------------------------------------- Iteration      1(  17)  ---------------------------------------


    POTLOK:  cpu time    1.6898: real time    1.6995
    SETDIJ:  cpu time    0.1979: real time    0.1985
    TRIAL :  cpu time   20.0754: real time   20.2241
    CORREC:  cpu time    8.9527: real time    9.0144
    CHARGE:  cpu time    3.0005: real time    3.0222
    --------------------------------------------
      LOOP:  cpu time   34.0099: real time   34.2539

 eigenvalue-minimisations  :     0
 total energy-change (2. order) :-0.8340064E-04  (-0.3392620E-04)
 number of electron     216.0000000 magnetization 
 augmentation part       -0.5315726 magnetization 

 Free energy of the ion-electron system (eV)
  ---------------------------------------------------
  alpha Z        PSCENC =        47.94900195
  Ewald energy   TEWEN  =     41669.36851546
  -Hartree energ DENC   =    -48636.58003417
  -exchange      EXHF   =         0.00000000
  -V(xc)+E(xc)   XCENC  =       657.72616111
  PAW double counting   =    158666.10747289  -158524.58147159
  entropy T*S    EENTRO =        -0.00000000
  eigenvalues    EBANDS =     -2772.82759539
  atomic energy  EATOM  =      8369.52358910
  ---------------------------------------------------
  free energy    TOTEN  =      -523.31436063 eV

  energy without entropy =     -523.31436063  energy(sigma->0) =     -523.31436063


--------------------------------------------------------------------------------------------------------




--------------------------------------- Iteration      1(  18)  ---------------------------------------


    POTLOK:  cpu time    1.6891: real time    1.6983
    SETDIJ:  cpu time    0.2016: real time    0.2023
    TRIAL :  cpu time   20.0744: real time   20.2220
    CORREC:  cpu time    8.9413: real time    9.0067
    CHARGE:  cpu time    3.0015: real time    3.0231
    --------------------------------------------
      LOOP:  cpu time   33.9661: real time   34.2128

 eigenvalue-minimisations  :     0
 total energy-change (2. order) :-0.3411615E-04  (-0.1293219E-04)
 number of electron     216.0000000 magnetization 
 augmentation part       -0.5315918 magnetization 

 Free energy of the ion-electron system (eV)
  ---------------------------------------------------
  alpha Z        PSCENC =        47.94900195
  Ewald energy   TEWEN  =     41669.36851546
  -Hartree energ DENC   =    -48636.64432381
  -exchange      EXHF   =         0.00000000
  -V(xc)+E(xc)   XCENC  =       657.72859858
  PAW double counting   =    158641.40114249  -158499.87487365
  entropy T*S    EENTRO =        -0.00000000
  eigenvalues    EBANDS =     -2772.76604486
  atomic energy  EATOM  =      8369.52358910
  ---------------------------------------------------
  free energy    TOTEN  =      -523.31439475 eV

  energy without entropy =     -523.31439475  energy(sigma->0) =     -523.31439475


--------------------------------------------------------------------------------------------------------




--------------------------------------- Iteration      1(  19)  ---------------------------------------


    POTLOK:  cpu time    1.6926: real time    1.7023
    SETDIJ:  cpu time    0.2059: real time    0.2068
    TRIAL :  cpu time   20.0601: real time   20.2143
    CORREC:  cpu time    8.9715: real time    9.0356
    CHARGE:  cpu time    2.9915: real time    3.0147
    --------------------------------------------
      LOOP:  cpu time   33.9510: real time   34.2053

 eigenvalue-minimisations  :     0
 total energy-change (2. order) :-0.1336579E-04  (-0.4747979E-05)
 number of electron     216.0000000 magnetization 
 augmentation part       -0.5315879 magnetization 

 Free energy of the ion-electron system (eV)
  ---------------------------------------------------
  alpha Z        PSCENC =        47.94900195
  Ewald energy   TEWEN  =     41669.36851546
  -Hartree energ DENC   =    -48636.64028283
  -exchange      EXHF   =         0.00000000
  -V(xc)+E(xc)   XCENC  =       657.72817750
  PAW double counting   =    158648.00671328  -158506.48017162
  entropy T*S    EENTRO =        -0.00000000
  eigenvalues    EBANDS =     -2772.76995095
  atomic energy  EATOM  =      8369.52358910
  ---------------------------------------------------
  free energy    TOTEN  =      -523.31440811 eV

  energy without entropy =     -523.31440811  energy(sigma->0) =     -523.31440811


--------------------------------------------------------------------------------------------------------




--------------------------------------- Iteration      1(  20)  ---------------------------------------


    POTLOK:  cpu time    1.6909: real time    1.7020
    SETDIJ:  cpu time    0.1973: real time    0.1980
    TRIAL :  cpu time   20.0821: real time   20.2387
    CORREC:  cpu time    8.9559: real time    9.0234
    CHARGE:  cpu time    2.9864: real time    3.0086
    --------------------------------------------
      LOOP:  cpu time   33.9686: real time   34.2389

 eigenvalue-minimisations  :     0
 total energy-change (2. order) :-0.4891393E-05  (-0.1717543E-05)
 number of electron     216.0000000 magnetization 
 augmentation part       -0.5315801 magnetization 

 Free energy of the ion-electron system (eV)
  ---------------------------------------------------
  alpha Z        PSCENC =        47.94900195
  Ewald energy   TEWEN  =     41669.36851546
  -Hartree energ DENC   =    -48636.66269168
  -exchange      EXHF   =         0.00000000
  -V(xc)+E(xc)   XCENC  =       657.72908625
  PAW double counting   =    158661.96265061  -158520.43618287
  entropy T*S    EENTRO =        -0.00000000
  eigenvalues    EBANDS =     -2772.74838183
  atomic energy  EATOM  =      8369.52358910
  ---------------------------------------------------
  free energy    TOTEN  =      -523.31441300 eV

  energy without entropy =     -523.31441300  energy(sigma->0) =     -523.31441300


--------------------------------------------------------------------------------------------------------




--------------------------------------- Iteration      1(  21)  ---------------------------------------


    POTLOK:  cpu time    1.6922: real time    1.7024
    SETDIJ:  cpu time    0.1962: real time    0.1969
    TRIAL :  cpu time   20.0817: real time   20.2297
    CORREC:  cpu time    8.9677: real time    9.0369
    CHARGE:  cpu time    2.9938: real time    3.0154
    --------------------------------------------
      LOOP:  cpu time   33.9988: real time   34.2527

 eigenvalue-minimisations  :     0
 total energy-change (2. order) :-0.1752342E-05  (-0.6401292E-06)
 number of electron     216.0000000 magnetization 
 augmentation part       -0.5315669 magnetization 

 Free energy of the ion-electron system (eV)
  ---------------------------------------------------
  alpha Z        PSCENC =        47.94900195
  Ewald energy   TEWEN  =     41669.36851546
  -Hartree energ DENC   =    -48636.66764892
  -exchange      EXHF   =         0.00000000
  -V(xc)+E(xc)   XCENC  =       657.72907784
  PAW double counting   =    158673.07561412  -158531.54918944
  entropy T*S    EENTRO =        -0.00000000
  eigenvalues    EBANDS =     -2772.74337488
  atomic energy  EATOM  =      8369.52358910
  ---------------------------------------------------
  free energy    TOTEN  =      -523.31441476 eV

  energy without entropy =     -523.31441476  energy(sigma->0) =     -523.31441476


--------------------------------------------------------------------------------------------------------




--------------------------------------- Iteration      1(  22)  ---------------------------------------


    POTLOK:  cpu time    1.6933: real time    1.7034
    SETDIJ:  cpu time    0.1940: real time    0.1947
    TRIAL :  cpu time   20.0540: real time   20.2064
    CORREC:  cpu time    8.9579: real time    9.0216
    CHARGE:  cpu time    2.9939: real time    3.0165
    --------------------------------------------
      LOOP:  cpu time   33.9346: real time   34.1855

 eigenvalue-minimisations  :     0
 total energy-change (2. order) :-0.6294867E-06  (-0.3205003E-06)
 number of electron     216.0000000 magnetization 
 augmentation part       -0.5315560 magnetization 

 Free energy of the ion-electron system (eV)
  ---------------------------------------------------
  alpha Z        PSCENC =        47.94900195
  Ewald energy   TEWEN  =     41669.36851546
  -Hartree energ DENC   =    -48636.66349821
  -exchange      EXHF   =         0.00000000
  -V(xc)+E(xc)   XCENC  =       657.72890785
  PAW double counting   =    158679.14227159  -158537.61592448
  entropy T*S    EENTRO =        -0.00000000
  eigenvalues    EBANDS =     -2772.74727864
  atomic energy  EATOM  =      8369.52358910
  ---------------------------------------------------
  free energy    TOTEN  =      -523.31441539 eV

  energy without entropy =     -523.31441539  energy(sigma->0) =     -523.31441539


--------------------------------------------------------------------------------------------------------




--------------------------------------- Iteration      1(  23)  ---------------------------------------


    POTLOK:  cpu time    1.6910: real time    1.7006
    SETDIJ:  cpu time    0.1953: real time    0.1960
    TRIAL :  cpu time   20.0626: real time   20.2085
    CORREC:  cpu time    8.9509: real time    9.0166
    CHARGE:  cpu time    3.0026: real time    3.0242
    --------------------------------------------
      LOOP:  cpu time   33.9600: real time   34.2090

 eigenvalue-minimisations  :     0
 total energy-change (2. order) :-0.2601300E-06  (-0.2633727E-06)
 number of electron     216.0000000 magnetization 
 augmentation part       -0.5315552 magnetization 

 Free energy of the ion-electron system (eV)
  ---------------------------------------------------
  alpha Z        PSCENC =        47.94900195
  Ewald energy   TEWEN  =     41669.36851546
  -Hartree energ DENC   =    -48636.66018283
  -exchange      EXHF   =         0.00000000
  -V(xc)+E(xc)   XCENC  =       657.72883936
  PAW double counting   =    158682.52640618  -158541.00013420
  entropy T*S    EENTRO =        -0.00000000
  eigenvalues    EBANDS =     -2772.75045066
  atomic energy  EATOM  =      8369.52358910
  ---------------------------------------------------
  free energy    TOTEN  =      -523.31441565 eV

  energy without entropy =     -523.31441565  energy(sigma->0) =     -523.31441565


--------------------------------------------------------------------------------------------------------




--------------------------------------- Iteration      1(  24)  ---------------------------------------


    POTLOK:  cpu time    1.6875: real time    1.6973
    SETDIJ:  cpu time    0.1972: real time    0.1979
    TRIAL :  cpu time   20.0690: real time   20.2145
    CORREC:  cpu time    8.9435: real time    9.0048
    CHARGE:  cpu time    2.9812: real time    3.0043
    --------------------------------------------
      LOOP:  cpu time   33.9617: real time   34.2038

 eigenvalue-minimisations  :     0
 total energy-change (2. order) : 0.1385633E-06  (-0.2551499E-06)
 number of electron     216.0000000 magnetization 
 augmentation part       -0.5315542 magnetization 

 Free energy of the ion-electron system (eV)
  ---------------------------------------------------
  alpha Z        PSCENC =        47.94900195
  Ewald energy   TEWEN  =     41669.36851546
  -Hartree energ DENC   =    -48636.65215550
  -exchange      EXHF   =         0.00000000
  -V(xc)+E(xc)   XCENC  =       657.72853910
  PAW double counting   =    158685.66303703  -158544.13677596
  entropy T*S    EENTRO =        -0.00000000
  eigenvalues    EBANDS =     -2772.75816669
  atomic energy  EATOM  =      8369.52358910
  ---------------------------------------------------
  free energy    TOTEN  =      -523.31441551 eV

  energy without entropy =     -523.31441551  energy(sigma->0) =     -523.31441551


--------------------------------------------------------------------------------------------------------




--------------------------------------- Iteration      1(  25)  ---------------------------------------


    POTLOK:  cpu time    1.6909: real time    1.7009
    SETDIJ:  cpu time    0.1982: real time    0.1989
    TRIAL :  cpu time   20.0824: real time   20.2289
    CORREC:  cpu time    8.8296: real time    8.8922
    CHARGE:  cpu time    2.9891: real time    3.0104
    --------------------------------------------
      LOOP:  cpu time   33.8153: real time   34.0806

 eigenvalue-minimisations  :     0
 total energy-change (2. order) :-0.2207526E-06  ( 0.1211326E-05)
 number of electron     216.0000000 magnetization 
 augmentation part       -0.5315591 magnetization 

 Free energy of the ion-electron system (eV)
  ---------------------------------------------------
  alpha Z        PSCENC =        47.94900195
  Ewald energy   TEWEN  =     41669.36851546
  -Hartree energ DENC   =    -48636.65596682
  -exchange      EXHF   =         0.00000000
  -V(xc)+E(xc)   XCENC  =       657.72881369
  PAW double counting   =    158684.98033783  -158543.45410946
  entropy T*S    EENTRO =        -0.00000000
  eigenvalues    EBANDS =     -2772.75459749
  atomic energy  EATOM  =      8369.52358910
  ---------------------------------------------------
  free energy    TOTEN  =      -523.31441573 eV

  energy without entropy =     -523.31441573  energy(sigma->0) =     -523.31441573


--------------------------------------------------------------------------------------------------------




--------------------------------------- Iteration      1(  26)  ---------------------------------------


    POTLOK:  cpu time    1.6938: real time    1.7036
    SETDIJ:  cpu time    0.1979: real time    0.1987
    TRIAL :  cpu time   20.0648: real time   20.2199
    CORREC:  cpu time    8.8285: real time    8.8947
    EDDIAG:  cpu time    4.1722: real time    4.2040
    CHARGE:  cpu time    2.9844: real time    3.0056
    --------------------------------------------
      LOOP:  cpu time   37.9904: real time   38.2803

 eigenvalue-minimisations  :     0
 total energy-change (2. order) :-0.5573384E-07  ( 0.6555890E-08)
 number of electron     216.0000000 magnetization 
 augmentation part       -0.5315604 magnetization 

 Free energy of the ion-electron system (eV)
  ---------------------------------------------------
  alpha Z        PSCENC =        47.94900195
  Ewald energy   TEWEN  =     41669.36851546
  -Hartree energ DENC   =    -48636.65406997
  -exchange      EXHF   =         0.00000000
  -V(xc)+E(xc)   XCENC  =       657.72864614
  PAW double counting   =    158684.31909681  -158542.79282094
  entropy T*S    EENTRO =        -0.00000000
  eigenvalues    EBANDS =     -2772.75637435
  atomic energy  EATOM  =      8369.52358910
  ---------------------------------------------------
  free energy    TOTEN  =      -523.31441578 eV

  energy without entropy =     -523.31441578  energy(sigma->0) =     -523.31441578


--------------------------------------------------------------------------------------------------------


  average scaling for gradient   0.8558


 average (electrostatic) potential at core
  the test charge radii are     0.5770  0.5955
  (the norm of the test charge is              1.0000)
       1 -87.9771       2 -87.9766       3 -87.9771       4 -87.9776       5 -87.9760
       6 -87.9759       7 -87.9770       8 -87.9760       9 -87.9764      10 -87.9766
      11 -87.9759      12 -87.9759      13 -87.9765      14 -87.9762      15 -87.9758
      16 -87.9760      17 -87.9764      18 -87.9768      19 -87.9769      20 -87.9764
      21 -87.9758      22 -87.9757      23 -87.9779      24 -87.9778      25 -87.9758
      26 -87.9759      27 -87.9763      28 -87.9772      29 -87.9757      30 -87.9757
      31 -87.9772      32 -87.9768      33 -87.9761      34 -87.9760      35 -87.9760
      36 -87.9761      37 -87.9766      38 -87.9768      39 -87.9767      40 -87.9768
      41 -87.9768      42 -87.9769      43 -87.9765      44 -87.9771      45 -87.9758
      46 -87.9759      47 -87.9759      48 -87.9759      49 -87.9769      50 -87.9766
      51 -91.8731      52-124.2563      53-124.2555
 
 
 
 E-fermi :  -4.3658     XC(G=0):  -1.8856     alpha+bet : -1.6890

 Fermi energy:        -4.3658173483

 k-point     1 :       0.0000    0.0000    0.0000
  band No.  band energies     occupation 
      1     -29.1530      2.00000
      2     -28.0444      2.00000
      3     -23.6831      2.00000
      4     -22.6909      2.00000
      5     -22.6895      2.00000
      6     -22.6892      2.00000
      7     -22.6890      2.00000
      8     -22.6889      2.00000
      9     -22.6883      2.00000
     10     -20.7437      2.00000
     11     -20.7436      2.00000
     12     -20.7434      2.00000
     13     -20.7427      2.00000
     14     -20.7422      2.00000
     15     -20.7419      2.00000
     16     -19.8009      2.00000
     17     -19.8007      2.00000
     18     -19.8003      2.00000
     19     -19.8001      2.00000
     20     -19.7993      2.00000
     21     -19.7990      2.00000
     22     -17.5603      2.00000
     23     -17.5599      2.00000
     24     -17.5592      2.00000
     25     -17.5590      2.00000
     26     -17.5585      2.00000
     27     -17.5584      2.00000
     28     -16.3920      2.00000
     29     -16.3920      2.00000
     30     -16.3909      2.00000
     31     -16.3907      2.00000
     32     -16.3903      2.00000
     33     -16.3902      2.00000
     34     -14.9851      2.00000
     35     -14.9850      2.00000
     36     -14.9843      2.00000
     37     -14.9841      2.00000
     38     -14.9841      2.00000
     39     -14.9838      2.00000
     40     -13.2135      2.00000
     41     -12.4932      2.00000
     42     -12.4929      2.00000
     43     -12.4925      2.00000
     44     -12.4924      2.00000
     45     -12.4912      2.00000
     46     -12.4910      2.00000
     47     -12.2856      2.00000
     48     -12.2855      2.00000
     49     -12.2848      2.00000
     50     -12.2847      2.00000
     51     -12.2846      2.00000
     52     -12.2845      2.00000
     53     -11.8682      2.00000
     54     -11.6732      2.00000
     55     -11.6731      2.00000
     56     -10.9766      2.00000
     57     -10.8232      2.00000
     58     -10.8230      2.00000
     59     -10.8213      2.00000
     60     -10.8210      2.00000
     61     -10.8208      2.00000
     62     -10.8207      2.00000
     63      -9.8000      2.00000
     64      -9.7990      2.00000
     65      -9.7988      2.00000
     66      -9.7984      2.00000
     67      -9.7982      2.00000
     68      -9.7981      2.00000
     69      -9.4915      2.00000
     70      -9.4904      2.00000
     71      -9.4900      2.00000
     72      -9.4899      2.00000
     73      -9.4895      2.00000
     74      -9.4894      2.00000
     75      -9.4850      2.00000
     76      -9.4847      2.00000
     77      -9.4839      2.00000
     78      -9.4836      2.00000
     79      -9.4835      2.00000
     80      -9.4828      2.00000
     81      -8.0356      2.00000
     82      -8.0355      2.00000
     83      -7.7465      2.00000
     84      -7.7447      2.00000
     85      -7.7446      2.00000
     86      -7.7442      2.00000
     87      -7.7432      2.00000
     88      -7.7432      2.00000
     89      -7.5519      2.00000
     90      -7.5516      2.00000
     91      -7.5514      2.00000
     92      -7.5510      2.00000
     93      -7.5506      2.00000
     94      -7.5504      2.00000
     95      -6.6064      2.00000
     96      -6.6063      2.00000
     97      -6.6060      2.00000
     98      -6.6059      2.00000
     99      -6.6052      2.00000
    100      -6.6050      2.00000
    101      -6.1744      2.00000
    102      -6.1721      2.00000
    103      -4.5069      2.00000
    104      -4.5065      2.00000
    105      -4.5060      2.00000
    106      -4.5059      2.00000
    107      -4.5053      2.00000
    108      -4.5052      2.00000
    109      -1.5130      0.00000
    110      -1.5128      0.00000
    111      -1.5125      0.00000
    112      -1.5124      0.00000
    113      -1.5117      0.00000
    114      -1.5113      0.00000
    115       0.4788      0.00000
    116       0.4791      0.00000
    117       0.4795      0.00000
    118       0.4796      0.00000
    119       0.4799      0.00000
    120       0.4812      0.00000
    121       0.7114      0.00000
    122       0.9825      0.00000
    123       1.1857      0.00000
    124       1.1857      0.00000
    125       1.4451      0.00000
    126       1.7780      0.00000
    127       2.0321      0.00000
    128       2.0357      0.00000
    129       2.0428      0.00000
    130       2.0481      0.00000
    131       2.0513      0.00000
    132       2.0525      0.00000
    133       2.2174      0.00000
    134       2.3461      0.00000
    135       2.3463      0.00000
    136       2.3466      0.00000
    137       2.3470      0.00000
    138       2.3472      0.00000
    139       2.3476      0.00000
    140       2.3881      0.00000
    141       2.5972      0.00000
    142       2.7047      0.00000
    143       2.7207      0.00000
    144       2.7290      0.00000
    145       2.7318      0.00000
    146       2.7418      0.00000
    147       2.7523      0.00000
    148       2.7996      0.00000
    149       2.8071      0.00000
    150       2.8085      0.00000
    151       2.8324      0.00000
    152       3.1640      0.00000
    153       3.4896      0.00000
    154       3.6387      0.00000
    155       3.8070      0.00000
    156       3.8467      0.00000
    157       4.0212      0.00000
    158       4.0976      0.00000
    159       4.1804      0.00000
    160       4.3728      0.00000
    161       4.5263      0.00000
    162       4.6268      0.00000
    163       4.8114      0.00000
    164       4.8494      0.00000
    165       4.8663      0.00000
    166       4.8776      0.00000
    167       4.8791      0.00000
    168       4.8809      0.00000


--------------------------------------------------------------------------------------------------------


 soft charge-density along one line, spin component           1
         0         1         2         3         4         5         6         7         8         9
 total charge-density along one line
 
 pseudopotential strength for first ion, spin component:           1
 12.639  21.266   0.000   0.000   0.000   0.000   0.000   0.000
 21.266  35.783   0.000   0.000   0.000   0.000   0.000   0.000
  0.000   0.000  -3.235  -0.000   0.000  -5.794   0.000   0.000
  0.000   0.000  -0.000  -3.235  -0.000   0.000  -5.793  -0.000
  0.000   0.000   0.000  -0.000  -3.235   0.000  -0.000  -5.794
  0.000   0.000  -5.794   0.000   0.000 -10.354   0.000   0.000
  0.000   0.000   0.000  -5.793  -0.000   0.000 -10.352  -0.000
  0.000   0.000   0.000  -0.000  -5.794   0.000  -0.000 -10.354
 total augmentation occupancy for first ion, spin component:           1
 10.264  -3.894  -0.000  -0.002  -0.000   0.000   0.001   0.000
 -3.894   1.507   0.000   0.001   0.000  -0.000  -0.000  -0.000
 -0.000   0.000   8.468  -0.009   0.000  -3.024   0.003  -0.000
 -0.002   0.001  -0.009   4.016  -0.000   0.003  -1.207   0.000
 -0.000   0.000   0.000  -0.000   8.468  -0.000   0.000  -3.024
  0.000  -0.000  -3.024   0.003  -0.000   1.093  -0.001   0.000
  0.001  -0.000   0.003  -1.207   0.000  -0.001   0.368  -0.000
  0.000  -0.000  -0.000   0.000  -3.024   0.000  -0.000   1.093


------------------------ aborting loop because EDIFF is reached ----------------------------------------


    FORLOC:  cpu time    0.1394: real time    0.1405
    FORNL :  cpu time    3.8283: real time    3.8611
    FORCOR:  cpu time    1.6147: real time    1.6255
    OFIELD:  cpu time    0.0029: real time    0.0029
 WARNING: Using user supplied parameters
     VDW_A1 = 0.495
     VDW_A2 = 5.731
     VDW_S8 = 0.79
     because the xc functional is not supported. Required parameters not
     defined in the INCAR file will be replaced with PBE defaults ones.


 ---------------------------------------------------------------------------------------------

         DFTD3 V3.0 Rev 1        
 IVDW         = 12
 DF unknown   
 parameters
 VDW_S6       =    1.0000
 VDW_S8       =    0.7898
 VDW_A1       =    0.4948
 VDW_A2       =    5.7308
 k1-k3        =   16.0000    1.3333   -4.0000
 VDW_RADIUS   =   50.2022 A
 VDW_CNRADIUS =   21.1671 A
 Edisp (eV)   -1.69216

 E6    (eV) :    -1.3064
 E8    (eV) :    -0.3858
 % E8        : 22.80
    FORVDW:  cpu time    0.1312: real time    0.1321

 VOLUME and BASIS-vectors are now :
 -----------------------------------------------------------------------------
  energy-cutoff  :     1000.00
  volume of cell :     3288.85
      direct lattice vectors                 reciprocal lattice vectors
    12.325000000  0.000000000  0.000000000     0.081135903  0.046843835  0.000000000
    -6.162500000 10.673763102  0.000000000     0.000000000  0.093687670  0.000000000
     0.000000000  0.000000000 25.000000000     0.000000000  0.000000000  0.040000000

  length of vectors
    12.325000000 12.325000000 25.000000000     0.093687670  0.093687670  0.040000000


 FORCES acting on ions:
    Electron-Ion                     Ewald-Force                    Non-Local-Force
 -----------------------------------------------------------------------------------------------
   0.832E+00 0.735E+00 0.152E+02   -.833E+00 -.736E+00 -.152E+02   0.469E-02 -.747E-03 0.619E-02
   0.114E+01 0.618E+00 0.164E+02   -.115E+01 -.615E+00 -.164E+02   0.310E-02 -.332E-02 -.599E-02
   0.458E+00 0.126E+01 0.165E+02   -.460E+00 -.126E+01 -.165E+02   -.328E-03 0.115E-01 -.155E-02
   0.575E+00 0.841E+00 0.189E+02   -.573E+00 -.840E+00 -.189E+02   0.118E-01 0.521E-03 -.166E-01
   0.922E+00 0.239E+00 0.157E+02   -.921E+00 -.240E+00 -.157E+02   -.439E-03 -.540E-02 0.371E-02
   0.941E+00 -.209E+00 0.158E+02   -.944E+00 0.210E+00 -.158E+02   -.642E-02 0.326E-02 -.250E-02
   0.110E+01 0.472E+00 0.189E+02   -.111E+01 -.472E+00 -.189E+02   0.119E-01 -.194E-01 -.697E-02
   0.112E+01 -.361E+00 0.201E+02   -.113E+01 0.364E+00 -.201E+02   -.702E-02 -.563E-02 -.600E-02
   -.550E+00 0.121E+01 0.169E+02   0.554E+00 -.122E+01 -.169E+02   -.208E-03 -.131E-01 -.526E-02
   -.716E+00 0.624E+00 0.192E+02   0.717E+00 -.625E+00 -.192E+02   -.259E-01 0.148E-01 0.243E-02
   0.245E+00 -.252E+00 0.149E+02   -.242E+00 0.252E+00 -.149E+02   0.387E-02 -.266E-02 0.577E-03
   0.240E+00 -.198E+00 0.146E+02   -.240E+00 0.199E+00 -.146E+02   -.678E-02 0.332E-02 0.670E-02
   0.336E+00 -.882E+00 0.210E+02   -.336E+00 0.885E+00 -.209E+02   0.266E-01 -.774E-02 -.239E-02
   0.213E+00 -.134E+01 0.181E+02   -.218E+00 0.134E+01 -.181E+02   0.376E-02 0.676E-02 -.168E-01
   -.863E+00 0.518E+00 0.152E+02   0.865E+00 -.519E+00 -.152E+02   0.737E-02 -.407E-02 0.807E-02
   -.110E+01 0.304E+00 0.155E+02   0.110E+01 -.304E+00 -.155E+02   -.150E-02 0.515E-02 -.460E-02
   -.155E+00 -.646E-01 0.142E+02   0.158E+00 0.627E-01 -.142E+02   -.123E-03 0.516E-03 0.228E-02
   0.722E-01 0.537E+00 0.143E+02   -.717E-01 -.537E+00 -.143E+02   -.299E-02 0.164E-02 0.964E-02
   -.227E+00 -.128E+01 0.165E+02   0.227E+00 0.128E+01 -.165E+02   0.596E-02 -.153E-02 0.169E-03
   -.135E+00 -.787E+00 0.150E+02   0.132E+00 0.788E+00 -.150E+02   0.636E-04 -.836E-03 -.583E-03
   0.120E+01 -.509E+00 0.173E+02   -.120E+01 0.510E+00 -.173E+02   -.182E-02 -.214E-02 -.168E-01
   0.858E+00 -.687E+00 0.163E+02   -.861E+00 0.689E+00 -.163E+02   -.686E-02 0.531E-02 -.179E-02
   -.202E+00 0.351E+00 0.209E+02   0.198E+00 -.349E+00 -.209E+02   -.105E-01 0.104E-01 0.154E-03
   -.292E+00 -.555E+00 0.209E+02   0.294E+00 0.553E+00 -.209E+02   0.122E-01 -.150E-01 -.120E-01
   0.466E+00 -.171E+00 0.149E+02   -.464E+00 0.169E+00 -.149E+02   0.364E-02 -.256E-02 -.266E-02
   0.137E+00 0.395E+00 0.148E+02   -.137E+00 -.395E+00 -.148E+02   -.513E-02 0.338E-02 0.625E-02
   -.131E+01 0.129E+00 0.173E+02   0.131E+01 -.132E+00 -.173E+02   0.119E-01 0.778E-02 -.272E-02
   -.121E+01 -.503E+00 0.167E+02   0.122E+01 0.503E+00 -.167E+02   -.855E-02 0.908E-02 0.430E-03
   0.467E+00 -.976E+00 0.165E+02   -.467E+00 0.976E+00 -.165E+02   0.419E-02 0.234E-02 -.662E-02
   0.443E-01 -.430E+00 0.152E+02   -.466E-01 0.432E+00 -.152E+02   -.479E-02 0.247E-02 -.175E-02
   -.867E+00 -.866E+00 0.178E+02   0.866E+00 0.867E+00 -.178E+02   -.119E-01 -.788E-02 -.144E-01
   -.640E+00 -.122E+01 0.163E+02   0.642E+00 0.122E+01 -.163E+02   0.776E-03 -.966E-03 0.157E-02
   0.496E-01 0.268E+00 0.145E+02   -.496E-01 -.268E+00 -.145E+02   0.502E-02 -.468E-02 0.775E-02
   0.153E+00 0.236E+00 0.147E+02   -.156E+00 -.235E+00 -.147E+02   -.230E-02 0.456E-02 -.601E-03
   -.579E+00 0.109E+00 0.149E+02   0.582E+00 -.110E+00 -.149E+02   0.420E-02 -.248E-02 0.671E-02
   -.511E+00 -.239E+00 0.148E+02   0.510E+00 0.239E+00 -.148E+02   -.377E-02 0.225E-02 0.437E-02
   -.961E+00 -.526E+00 0.151E+02   0.964E+00 0.524E+00 -.151E+02   -.779E-03 0.106E-02 0.357E-02
   -.642E+00 -.517E+00 0.146E+02   0.643E+00 0.517E+00 -.146E+02   -.379E-02 0.131E-02 0.931E-02
   -.588E+00 -.740E+00 0.149E+02   0.588E+00 0.741E+00 -.149E+02   -.286E-02 0.511E-03 0.480E-02
   -.870E-01 -.210E+00 0.144E+02   0.879E-01 0.209E+00 -.144E+02   0.197E-02 0.751E-03 0.745E-02
   0.224E+00 0.557E+00 0.144E+02   -.225E+00 -.557E+00 -.144E+02   -.395E-02 0.171E-02 0.709E-02
   0.672E+00 0.101E+01 0.152E+02   -.671E+00 -.101E+01 -.152E+02   -.747E-03 -.999E-03 0.751E-02
   0.788E-01 0.913E+00 0.147E+02   -.755E-01 -.915E+00 -.147E+02   -.166E-03 0.642E-03 0.254E-02
   0.872E-03 0.132E+01 0.160E+02   -.545E-05 -.132E+01 -.160E+02   -.810E-02 0.171E-02 0.505E-02
   -.178E+00 0.327E+00 0.150E+02   0.180E+00 -.329E+00 -.150E+02   0.403E-02 -.306E-02 0.214E-02
   -.630E+00 0.803E+00 0.155E+02   0.630E+00 -.803E+00 -.155E+02   -.596E-02 0.166E-03 -.890E-03
   -.188E+00 -.408E+00 0.149E+02   0.188E+00 0.407E+00 -.149E+02   0.607E-02 -.124E-02 0.657E-02
   -.368E+00 0.127E+00 0.145E+02   0.367E+00 -.126E+00 -.145E+02   -.357E-02 0.334E-02 -.254E-02
   0.323E-01 -.247E+00 0.145E+02   -.326E-01 0.247E+00 -.145E+02   0.423E-02 -.304E-02 0.599E-02
   0.396E+00 0.284E+00 0.145E+02   -.398E+00 -.282E+00 -.145E+02   -.226E-03 0.175E-02 0.347E-02
   -.160E-02 0.266E-01 -.200E+03   -.281E-02 -.225E-01 0.200E+03   -.285E-02 0.181E-02 -.102E-02
   -.228E+03 0.155E+03 -.313E+03   0.279E+03 -.190E+03 0.317E+03   -.523E+02 0.356E+02 -.351E+01
   0.228E+03 -.155E+03 -.291E+03   -.279E+03 0.190E+03 0.288E+03   0.523E+02 -.356E+02 0.316E+01
 -----------------------------------------------------------------------------------------------
   -.797E-02 0.145E-01 0.358E+00   0.114E-12 -.114E-12 0.171E-12   0.761E-02 -.150E-01 -.354E+00
 
 
 POSITION                                       TOTAL-FORCE (eV/Angst)
 -----------------------------------------------------------------------------------
     11.98348      0.00342      0.01417         0.003479     -0.001886     -0.001443
     -0.34154      1.42665      0.01100        -0.000819     -0.000118     -0.003682
      2.12355      0.00315      0.01249        -0.002248      0.010982     -0.007215
      2.12326      1.42653      0.00641         0.014101      0.001010     -0.008539
     10.75099      2.13819      0.01213         0.000933     -0.005874     -0.000168
     -1.57382      3.56123      0.01110        -0.009433      0.004496     -0.001469
      0.89078      2.13854      0.00548         0.009910     -0.019696      0.003029
      0.89099      3.56147      0.00181        -0.011979     -0.002804      0.013632
      4.58864      0.00346      0.01135         0.003521     -0.016231     -0.003706
      4.58894      1.42623      0.00646        -0.023977      0.013619      0.015380
      9.51854      4.27281      0.01369         0.007045     -0.002889      0.000130
     -2.80632      5.69591      0.01434        -0.007040      0.003378      0.000669
      2.12300      4.27302      0.00000         0.025497     -0.005114      0.023042
      2.12335      5.69594      0.00581        -0.000531      0.009177     -0.002186
      7.05344      0.00333      0.01399         0.009504     -0.005696     -0.000590
      7.05353      1.42635      0.01368        -0.001739      0.005151     -0.004177
      8.28610      6.40752      0.01601         0.003141     -0.001220     -0.001055
     -4.03885      7.83070      0.01636        -0.002555      0.001031     -0.000433
      3.35586      6.40753      0.01007         0.005607      0.000677     -0.001266
      3.35599      7.83072      0.01320        -0.003006      0.000201     -0.000788
     -0.34146      4.27290      0.00723        -0.001614     -0.001370     -0.004303
     -0.34138      5.69591      0.00946        -0.009427      0.006587     -0.001030
      3.35624      2.13791      0.00222        -0.014660      0.012304      0.017938
      3.35573      3.56155      0.00139         0.014437     -0.016778      0.010057
     -1.57395      6.40758      0.01311         0.005635     -0.003946     -0.000656
     -1.57385      7.83068      0.01438        -0.005222      0.004071     -0.000191
      5.82093      2.13784      0.01033         0.016066      0.005099     -0.003036
      5.82114      3.56097      0.01156        -0.006449      0.008843     -0.004117
      0.89092      6.40755      0.00907         0.004727      0.002252     -0.002176
      0.89106      7.83068      0.01235        -0.006910      0.004289      0.000311
      4.58871      4.27293      0.00850        -0.013784     -0.006217     -0.011405
      4.58852      5.69606      0.01149         0.002511     -0.001528     -0.004419
      9.51845      0.00337      0.01490         0.005096     -0.004991     -0.000054
      9.51855      1.42644      0.01438        -0.005408      0.005482     -0.000491
      8.28593      2.13803      0.01453         0.007163     -0.003496      0.000381
      8.28613      3.56115      0.01464        -0.004660      0.002180     -0.000252
      7.05356      4.27269      0.01457         0.002760     -0.000945     -0.001007
      7.05362      5.69588      0.01553        -0.002638      0.001592     -0.000373
      5.82112      6.40755      0.01489        -0.003308      0.002028     -0.000376
      5.82102      7.83073      0.01579         0.003092      0.000230     -0.000573
      7.05363      8.54227      0.01631        -0.004873      0.001537      0.000779
     -5.27149      9.96549      0.01495         0.000415     -0.002119     -0.002800
     -2.80638      8.54234      0.01558         0.003246     -0.001460     -0.001637
     -2.80627      9.96553      0.01362        -0.007272      0.000079     -0.004398
     -0.34149      8.54239      0.01378         0.005900     -0.005289      0.000099
     -0.34138      9.96550      0.01354        -0.006026      0.000304     -0.001450
      2.12343      8.54232      0.01336         0.006045     -0.001789      0.000746
      2.12354      9.96544      0.01469        -0.005166      0.004209     -0.002115
      4.58846      8.54235      0.01505         0.003836     -0.002850      0.000823
      4.58853      9.96550      0.01517        -0.002663      0.003545     -0.000118
      3.04930      2.68154      7.93701        -0.007318      0.005883      0.038583
      4.02070      2.02068      8.00143        -1.425062      0.969220     -0.111798
      2.07767      3.34267      7.87755         1.432122     -0.975151      0.069889
 -----------------------------------------------------------------------------------
    total drift:                               -0.000353     -0.000462      0.003948


--------------------------------------------------------------------------------------------------------



  FREE ENERGIE OF THE ION-ELECTRON SYSTEM (eV)
  ---------------------------------------------------
  free  energy   TOTEN  =      -525.00657417 eV

  energy  without entropy=     -525.00657417  energy(sigma->0) =     -525.00657417
 


--------------------------------------------------------------------------------------------------------


    POTLOK:  cpu time    1.8910: real time    1.9027


--------------------------------------------------------------------------------------------------------


 writing wavefunctions
     LOOP+:  cpu time  924.2699: real time  931.9660
    4ORBIT:  cpu time    0.0000: real time    0.0000

 total amount of memory used by VASP MPI-rank0   698619. kBytes
=======================================================================

   base      :      30000. kBytes
   nonl-proj :     230539. kBytes
   fftplans  :      40716. kBytes
   grid      :     363125. kBytes
   one-center:        162. kBytes
   wavefun   :      34077. kBytes
 
  
  
 General timing and accounting informations for this job:
 ========================================================
  
                  Total CPU time used (sec):      970.065
                            User time (sec):      940.904
                          System time (sec):       29.161
                         Elapsed time (sec):      978.917
  
                   Maximum memory used (kb):     1276512.
                   Average memory used (kb):          N/A
  
                          Minor page faults:       149129
                          Major page faults:          104
                 Voluntary context switches:         3810
