 vasp.6.2.1 16May21 (build Nov 06 2021 14:46:37) complex                        
  
 executed on             LinuxIFC date 2025.04.06  10:41:27
 running on  112 total cores
 distrk:  each k-point on   56 cores,    2 groups
 distr:  one band on NCORE=   1 cores,   56 groups


--------------------------------------------------------------------------------------------------------


 INCAR:
   ALGO = Conjugate
   KPAR = 2
   NCORE = 32
   ISMEAR = 0
   SIGMA = 0.01
   PREC = Accurate
   EDIFF = 1E-7
   ENCUT = 1000
   ISIF = 0
   METAGGA = R2SCAN
   LASPH = .TRUE.
   IVDW = 12
   VDW_S8 = 0.7898
   VDW_A1 = 0.4948
   VDW_A2 = 5.7308
   SYMPREC = 1E-7

 POTCAR:    PAW_PBE C_h 06Feb2004                 
 POTCAR:    PAW_PBE O_h 06Feb2004                 
 -----------------------------------------------------------------------------
|                                                                             |
|           W    W    AA    RRRRR   N    N  II  N    N   GGGG   !!!           |
|           W    W   A  A   R    R  NN   N  II  NN   N  G    G  !!!           |
|           W    W  A    A  R    R  N N  N  II  N N  N  G       !!!           |
|           W WW W  AAAAAA  RRRRR   N  N N  II  N  N N  G  GGG   !            |
|           WW  WW  A    A  R   R   N   NN  II  N   NN  G    G                |
|           W    W  A    A  R    R  N    N  II  N    N   GGGG   !!!           |
|                                                                             |
|     The value NCORE = 32 specified in the INCAR file was overwritten,       |
|     because it was not compatible with the 56 processes available:          |
|     NCORE = 1                                                               |
|     was used instead, please check that this makes sense for your           |
|     machine.                                                                |
|                                                                             |
 -----------------------------------------------------------------------------

 -----------------------------------------------------------------------------
|                                                                             |
|           W    W    AA    RRRRR   N    N  II  N    N   GGGG   !!!           |
|           W    W   A  A   R    R  NN   N  II  NN   N  G    G  !!!           |
|           W    W  A    A  R    R  N N  N  II  N N  N  G       !!!           |
|           W WW W  AAAAAA  RRRRR   N  N N  II  N  N N  G  GGG   !            |
|           WW  WW  A    A  R   R   N   NN  II  N   NN  G    G                |
|           W    W  A    A  R    R  N    N  II  N    N   GGGG   !!!           |
|                                                                             |
|     For optimal performance we recommend to set                             |
|       NCORE = 2 up to number-of-cores-per-socket                            |
|     NCORE specifies how many cores store one orbital (NPAR=cpu/NCORE).      |
|     This setting can greatly improve the performance of VASP for DFT.       |
|     The default, NCORE=1 might be grossly inefficient on modern             |
|     multi-core architectures or massively parallel machines. Do your        |
|     own testing! More info at https://www.vasp.at/wiki/index.php/NCORE      |
|     Unfortunately you need to use the default for GW and RPA                |
|     calculations (for HF NCORE is supported but not extensively tested      |
|     yet).                                                                   |
|                                                                             |
 -----------------------------------------------------------------------------

 POTCAR:    PAW_PBE C_h 06Feb2004                 
   VRHFIN =C: s2p2                                                                                  
   LEXCH  = PE                                                                                      
   EATOM  =   147.1560 eV,   10.8157 Ry                                                             
                                                                                                    
   TITEL  = PAW_PBE C_h 06Feb2004                                                                   
   LULTRA =        F    use ultrasoft PP ?                                                          
   IUNSCR =        1    unscreen: 0-lin 1-nonlin 2-no                                               
   RPACOR =    0.800    partial core radius                                                         
   POMASS =   12.011; ZVAL   =    4.000    mass and valenz                                          
   RCORE  =    1.100    outmost cutoff radius                                                       
   RWIGS  =    1.630; RWIGS  =    0.863    wigner-seitz radius (au A)                               
   ENMAX  =  700.000; ENMIN  =  500.000 eV                                                          
   ICORE  =        2    local potential                                                             
   LCOR   =        T    correct aug charges                                                         
   LPAW   =        T    paw PP                                                                      
   EAUG   =  946.768                                                                                
   DEXC   =    0.000                                                                                
   RMAX   =    1.128    core radius for proj-oper                                                   
   RAUG   =    1.300    factor for augmentation sphere                                              
   RDEP   =    1.162    radius for radial grids                                                     
   RDEPT  =    1.088    core radius for aug-charge                                                  
                                                                                                    
   Atomic configuration                                                                             
    4 entries                                                                                       
     n  l   j            E        occ.                                                              
     1  0  0.50      -273.3789   2.0000                                                             
     2  0  0.50       -13.7508   2.0000                                                             
     2  1  0.50        -5.2854   2.0000                                                             
     3  2  1.50        -5.4423   0.0000                                                             
   Description                                                                                      
     l       E           TYP  RCUT    TYP  RCUT                                                     
     0    -13.7508458     23  1.100                                                                 
     0     -8.2022199     23  1.100                                                                 
     1     -5.2854383     23  1.100                                                                 
     1      1.1560700     23  1.100                                                                 
     2     -5.4423304      7  1.100                                                                 
  local pseudopotential read in
  partial core-charges read in
  partial kinetic energy density read in
  atomic valenz-charges read in
  non local Contribution for L=           0  read in
    real space projection operators read in
  non local Contribution for L=           0  read in
    real space projection operators read in
  non local Contribution for L=           1  read in
    real space projection operators read in
  non local Contribution for L=           1  read in
    real space projection operators read in
    PAW grid and wavefunctions read in
 
   number of l-projection  operators is LMAX  =           4
   number of lm-projection operators is LMMAX =           8
 
 POTCAR:    PAW_PBE O_h 06Feb2004                 
   VRHFIN =O: s2p4                                                                                  
   LEXCH  = PE                                                                                      
   EATOM  =   432.3788 eV,   31.7789 Ry                                                             
                                                                                                    
   TITEL  = PAW_PBE O_h 06Feb2004                                                                   
   LULTRA =        F    use ultrasoft PP ?                                                          
   IUNSCR =        1    unscreen: 0-lin 1-nonlin 2-no                                               
   RPACOR =    0.800    partial core radius                                                         
   POMASS =   16.000; ZVAL   =    6.000    mass and valenz                                          
   RCORE  =    1.100    outmost cutoff radius                                                       
   RWIGS  =    1.400; RWIGS  =    0.741    wigner-seitz radius (au A)                               
   ENMAX  =  700.000; ENMIN  =  500.000 eV                                                          
   ICORE  =        2    local potential                                                             
   LCOR   =        T    correct aug charges                                                         
   LPAW   =        T    paw PP                                                                      
   EAUG   =  888.804                                                                                
   DEXC   =    0.000                                                                                
   RMAX   =    1.128    core radius for proj-oper                                                   
   RAUG   =    1.300    factor for augmentation sphere                                              
   RDEP   =    1.125    radius for radial grids                                                     
   RDEPT  =    1.088    core radius for aug-charge                                                  
                                                                                                    
   Atomic configuration                                                                             
    4 entries                                                                                       
     n  l   j            E        occ.                                                              
     1  0  0.50      -514.6923   2.0000                                                             
     2  0  0.50       -23.9615   2.0000                                                             
     2  1  0.50        -9.0305   4.0000                                                             
     3  2  1.50        -9.5241   0.0000                                                             
   Description                                                                                      
     l       E           TYP  RCUT    TYP  RCUT                                                     
     0    -23.9615319     23  1.100                                                                 
     0    -25.3221145     23  1.100                                                                 
     1     -9.0304911     23  1.100                                                                 
     1     -5.4802209     23  1.100                                                                 
     2     -9.5240782      7  1.100                                                                 
  local pseudopotential read in
  partial core-charges read in
  partial kinetic energy density read in
  atomic valenz-charges read in
  non local Contribution for L=           0  read in
    real space projection operators read in
  non local Contribution for L=           0  read in
    real space projection operators read in
  non local Contribution for L=           1  read in
    real space projection operators read in
  non local Contribution for L=           1  read in
    real space projection operators read in
    PAW grid and wavefunctions read in
 
   number of l-projection  operators is LMAX  =           4
   number of lm-projection operators is LMMAX =           8
 
 -----------------------------------------------------------------------------
|                                                                             |
|               ----> ADVICE to this user running VASP <----                  |
|                                                                             |
|     You have a (more or less) 'large supercell' and for larger cells it     |
|     might be more efficient to use real-space projection operators.         |
|     Therefore, try LREAL= Auto in the INCAR file.                           |
|     Mind: For very accurate calculation, you might also keep the            |
|     reciprocal projection scheme (i.e. LREAL=.FALSE.).                      |
|                                                                             |
 -----------------------------------------------------------------------------

  PAW_PBE C_h 06Feb2004                 :
 energy of atom  1       EATOM= -147.1560
 kinetic energy error for atom=    0.0031 (will be added to EATOM!!)
  PAW_PBE O_h 06Feb2004                 :
 energy of atom  2       EATOM= -432.3788
 kinetic energy error for atom=    0.0171 (will be added to EATOM!!)
 
 
 POSCAR:  C  O
  positions in cartesian coordinates
  No initial velocities read in

 METAGGA = R2SCA    LMAXTAU =  6    LMIXTAU =  F

 exchange correlation table for  LEXCH =        8
   RHO(1)=    0.500       N(1)  =     2000
   RHO(2)=  100.500       N(2)  =     4000
 


--------------------------------------------------------------------------------------------------------


 ion  position               nearest neighbor table
   1  0.972  0.000  0.001-  50 1.42   2 1.42  42 1.42
   2  0.039  0.134  0.001-   5 1.42   7 1.42   1 1.42
   3  0.172  0.000  0.001-  42 1.42  44 1.42   4 1.42
   4  0.239  0.134  0.000-   7 1.42   3 1.42  23 1.42
   5  0.972  0.200  0.001-   6 1.42   2 1.42  34 1.42
   6  0.039  0.334  0.001-   5 1.42  21 1.42  11 1.42
   7  0.172  0.200  0.000-   8 1.42   2 1.42   4 1.42
   8  0.239  0.334  0.000-  13 1.42   7 1.42  21 1.42
   9  0.372  0.000  0.001-  10 1.42  44 1.42  46 1.42
  10  0.439  0.134  0.000-  27 1.42   9 1.42  23 1.42
  11  0.972  0.400  0.001-  12 1.42  36 1.42   6 1.42
  12  0.039  0.534  0.001-  25 1.42  11 1.42  17 1.42
  13  0.372  0.400  0.000-   8 1.42  14 1.42  24 1.42
  14  0.439  0.534  0.000-  13 1.42  29 1.42  19 1.42
  15  0.572  0.000  0.001-  46 1.42  16 1.42  48 1.42
  16  0.639  0.134  0.001-  15 1.42  35 1.42  27 1.42
  17  0.972  0.600  0.001-  38 1.42  18 1.42  12 1.42
  18  0.039  0.734  0.001-  43 1.42  41 1.42  17 1.42
  19  0.572  0.600  0.001-  14 1.42  20 1.42  32 1.42
  20  0.639  0.734  0.001-  49 1.42  19 1.42  47 1.42
  21  0.172  0.400  0.000-  22 1.42   8 1.42   6 1.42
  22  0.239  0.534  0.000-  21 1.42  29 1.42  25 1.42
  23  0.372  0.200  0.000-  10 1.42   4 1.42  24 1.42
  24  0.439  0.334  0.000-  13 1.42  31 1.42  23 1.42
  25  0.172  0.600  0.001-  26 1.42  12 1.42  22 1.42
  26  0.239  0.734  0.001-  25 1.42  45 1.42  43 1.42
  27  0.572  0.200  0.001-  10 1.42  28 1.42  16 1.42
  28  0.639  0.334  0.001-  27 1.42  37 1.42  31 1.42
  29  0.372  0.600  0.000-  22 1.42  14 1.42  30 1.42
  30  0.439  0.734  0.001-  47 1.42  29 1.42  45 1.42
  31  0.572  0.400  0.000-  32 1.42  28 1.42  24 1.42
  32  0.639  0.534  0.001-  31 1.42  39 1.42  19 1.42
  33  0.772  0.000  0.001-  34 1.42  48 1.42  50 1.42
  34  0.839  0.134  0.001-  33 1.42   5 1.42  35 1.42
  35  0.772  0.200  0.001-  36 1.42  16 1.42  34 1.42
  36  0.839  0.334  0.001-  35 1.42  11 1.42  37 1.42
  37  0.772  0.400  0.001-  28 1.42  38 1.42  36 1.42
  38  0.839  0.534  0.001-  17 1.42  37 1.42  39 1.42
  39  0.772  0.600  0.001-  40 1.42  38 1.42  32 1.42
  40  0.839  0.734  0.001-  39 1.42  49 1.42  41 1.42
  41  0.972  0.800  0.001-  18 1.42  42 1.42  40 1.42
  42  0.039  0.934  0.001-   3 1.42  41 1.42   1 1.42
  43  0.172  0.800  0.001-  18 1.42  44 1.42  26 1.42
  44  0.239  0.934  0.001-   9 1.42  43 1.42   3 1.42
  45  0.372  0.800  0.001-  26 1.42  46 1.42  30 1.42
  46  0.439  0.934  0.001-  15 1.42  45 1.42   9 1.42
  47  0.572  0.800  0.001-  30 1.42  48 1.42  20 1.42
  48  0.639  0.934  0.001-  47 1.42  33 1.42  15 1.42
  49  0.772  0.800  0.001-  50 1.42  20 1.42  40 1.42
  50  0.839  0.934  0.001-  49 1.42   1 1.42  33 1.42
  51  0.373  0.251  0.157-  52 1.18  53 1.18
  52  0.421  0.189  0.161-  51 1.18
  53  0.325  0.313  0.155-  51 1.18
 
  LATTYP: Found a hexagonal cell.
 ALAT       =    12.3250000000
 C/A-ratio  =     1.6227180527
  
  Lattice vectors:
  
 A1 = (  12.3250000000,   0.0000000000,   0.0000000000)
 A2 = (  -6.1625000000,  10.6737631016,   0.0000000000)
 A3 = (   0.0000000000,   0.0000000000,  20.0000000000)


Analysis of symmetry for initial positions (statically):
=====================================================================
 Subroutine PRICEL returns:
 Original cell was already a primitive cell.
 

 Routine SETGRP: Setting up the symmetry group for a 
 hexagonal supercell.


 Subroutine GETGRP returns: Found  1 space group operations
 (whereof  1 operations were pure point group operations)
 out of a pool of 24 trial point group operations.


The static configuration has the point symmetry C_1 .


Analysis of symmetry for dynamics (positions and initial velocities):
=====================================================================
 Subroutine PRICEL returns:
 Original cell was already a primitive cell.
 

 Routine SETGRP: Setting up the symmetry group for a 
 hexagonal supercell.


 Subroutine GETGRP returns: Found  1 space group operations
 (whereof  1 operations were pure point group operations)
 out of a pool of 24 trial point group operations.


The dynamic configuration has the point symmetry C_1 .


 Subroutine INISYM returns: Found  1 space group operations
 (whereof  1 operations are pure point group operations),
 and found     1 'primitive' translations


----------------------------------------------------------------------------------------

                                     Primitive cell                                     

  volume of cell :    2631.0826

  direct lattice vectors                    reciprocal lattice vectors
    12.325000000  0.000000000  0.000000000     0.081135903  0.046843835  0.000000000
    -6.162500000 10.673763102  0.000000000     0.000000000  0.093687670  0.000000000
     0.000000000  0.000000000 20.000000000     0.000000000  0.000000000  0.050000000

  length of vectors
    12.325000000 12.325000000 20.000000000     0.093687670  0.093687670  0.050000000

  position of ions in fractional coordinates (direct lattice)
     0.972450841  0.000320818  0.000708389
     0.039118382  0.133659505  0.000550216
     0.172443627  0.000295449  0.000624535
     0.239096278  0.133647917  0.000320585
     0.972452058  0.200322012  0.000606523
     0.039128360  0.333643771  0.000555187
     0.172451764  0.200354552  0.000273959
     0.239124359  0.333665720  0.000090325
     0.372465565  0.000324403  0.000567391
     0.439137473  0.133619939  0.000322923
     0.972449824  0.400309362  0.000684513
     0.039124981  0.533636789  0.000716763
     0.372416176  0.400329481  0.000000000
     0.439099602  0.533638981  0.000290518
     0.572443676  0.000312125  0.000699475
     0.639110207  0.133631751  0.000684093
     0.972452703  0.600305653  0.000800361
     0.039124495  0.733640359  0.000818141
     0.572433471  0.600306242  0.000503618
     0.639111888  0.733641879  0.000659881
     0.172454630  0.400318228  0.000361306
     0.239120185  0.533636548  0.000473136
     0.372459750  0.200295993  0.000111246
     0.439107096  0.333673419  0.000069702
     0.172452155  0.600311506  0.000655425
     0.239123371  0.733638574  0.000718912
     0.572431082  0.200289171  0.000516621
     0.639112773  0.333618630  0.000577970
     0.372439808  0.600308022  0.000453556
     0.439116090  0.733637858  0.000617737
     0.572469358  0.400320504  0.000424897
     0.639119408  0.533650873  0.000574513
     0.772445723  0.000315427  0.000745201
     0.839116277  0.133640203  0.000719132
     0.772440513  0.200307432  0.000726291
     0.839120241  0.333635728  0.000731834
     0.772446320  0.400298367  0.000728722
     0.839118980  0.533633964  0.000776376
     0.772456143  0.600308173  0.000744639
     0.839115033  0.733643180  0.000789390
     0.972455313  0.800305582  0.000815291
     0.039114714  0.933643289  0.000747563
     0.172457971  0.800312211  0.000779216
     0.239134551  0.933647193  0.000681063
     0.372451396  0.800316674  0.000689249
     0.439124489  0.933644769  0.000676788
     0.572441101  0.800310054  0.000668168
     0.639115067  0.933638985  0.000734556
     0.772445098  0.800313187  0.000752577
     0.839116614  0.933644338  0.000758538
     0.373021009  0.251226878  0.157490131
     0.420879805  0.189313152  0.160711224
     0.325156981  0.313167186  0.154517388

  ion indices of the primitive-cell ions
   primitive index   ion index
                 1           1
                 2           2
                 3           3
                 4           4
                 5           5
                 6           6
                 7           7
                 8           8
                 9           9
                10          10
                11          11
                12          12
                13          13
                14          14
                15          15
                16          16
                17          17
                18          18
                19          19
                20          20
                21          21
                22          22
                23          23
                24          24
                25          25
                26          26
                27          27
                28          28
                29          29
                30          30
                31          31
                32          32
                33          33
                34          34
                35          35
                36          36
                37          37
                38          38
                39          39
                40          40
                41          41
                42          42
                43          43
                44          44
                45          45
                46          46
                47          47
                48          48
                49          49
                50          50
                51          51
                52          52
                53          53

----------------------------------------------------------------------------------------

 
 
 KPOINTS: auto                                    

Automatic generation of k-mesh.
 Grid dimensions read from file:
 generate k-points for:    1    1    1

 Generating k-lattice:

  Cartesian coordinates                     Fractional coordinates (reciprocal lattice)
     0.081135903  0.046843835  0.000000000     1.000000000 -0.000000000  0.000000000
     0.000000000  0.093687670  0.000000000     0.000000000  1.000000000  0.000000000
     0.000000000  0.000000000  0.050000000     0.000000000  0.000000000  1.000000000

  Length of vectors
     0.093687670  0.093687670  0.050000000

  Shift w.r.t. Gamma in fractional coordinates (k-lattice)
     0.000000000  0.000000000  0.000000000

 
 Subroutine IBZKPT returns following result:
 ===========================================
 
 Found      1 irreducible k-points:
 
 Following reciprocal coordinates:
            Coordinates               Weight
  0.000000  0.000000  0.000000      1.000000
 
 Following cartesian coordinates:
            Coordinates               Weight
  0.000000  0.000000  0.000000      1.000000
 


--------------------------------------------------------------------------------------------------------




 Dimension of arrays:
   k-points           NKPTS =      1   k-points in BZ     NKDIM =      1   number of bands    NBANDS=    168
   number of dos      NEDOS =    301   number of ions     NIONS =     53
   non local maximal  LDIM  =      4   non local SUM 2l+1 LMDIM =      8
   total plane-waves  NPLWV = ******
   max r-space proj   IRMAX =      1   max aug-charges    IRDMAX=   9736
   dimension x,y,z NGX =   128 NGY =  128 NGZ =  210
   dimension x,y,z NGXF=   256 NGYF=  256 NGZF=  420
   support grid    NGXF=   256 NGYF=  256 NGZF=  420
   ions per type =              51   2
   NGX,Y,Z   is equivalent  to a cutoff of  17.27, 17.27, 17.46 a.u.
   NGXF,Y,Z  is equivalent  to a cutoff of  34.53, 34.53, 34.91 a.u.

 SYSTEM =  unknown system                          
 POSCAR =   C  O                                   

 Startparameter for this run:
   NWRITE =      2    write-flag & timer
   PREC   = accura    normal or accurate (medium, high low for compatibility)
   ISTART =      0    job   : 0-new  1-cont  2-samecut
   ICHARG =      2    charge: 1-file 2-atom 10-const
   ISPIN  =      1    spin polarized calculation?
   LNONCOLLINEAR =      F non collinear calculations
   LSORBIT =      F    spin-orbit coupling
   INIWAV =      1    electr: 0-lowe 1-rand  2-diag
   LASPH  =      T    aspherical Exc in radial PAW
 Electronic Relaxation 1
   ENCUT  = 1000.0 eV  73.50 Ry    8.57 a.u.  31.78 31.78 51.57*2*pi/ulx,y,z
   ENINI  = 1000.0     initial cutoff
   ENAUG  =  946.8 eV  augmentation charge cutoff
   NELM   =     60;   NELMIN=  2; NELMDL= -5     # of ELM steps 
   EDIFF  = 0.1E-06   stopping-criterion for ELM
   LREAL  =      F    real-space projection
   NLSPLINE    = F    spline interpolate recip. space projectors
   LCOMPAT=      F    compatible to vasp.4.4
   GGA_COMPAT  = T    GGA compatible to vasp.4.4-vasp.4.6
   LMAXPAW     = -100 max onsite density
   LMAXMIX     =    2 max onsite mixed and CHGCAR
   VOSKOWN=      0    Vosko Wilk Nusair interpolation
   ROPT   =    0.00000   0.00000
 Ionic relaxation
   EDIFFG = 0.1E-05   stopping-criterion for IOM
   NSW    =      0    number of steps for IOM
   NBLOCK =      1;   KBLOCK =      1    inner block; outer block 
   IBRION =     -1    ionic relax: 0-MD 1-quasi-New 2-CG
   NFREE  =      0    steps in history (QN), initial steepest desc. (CG)
   ISIF   =      0    stress and relaxation
   IWAVPR =     10    prediction:  0-non 1-charg 2-wave 3-comb
   ISYM   =      2    0-nonsym 1-usesym 2-fastsym
   LCORR  =      T    Harris-Foulkes like correction to forces

   POTIM  = 0.5000    time-step for ionic-motion
   TEIN   =    0.0    initial temperature
   TEBEG  =    0.0;   TEEND  =   0.0 temperature during run
   SMASS  =  -3.00    Nose mass-parameter (am)
   estimated Nose-frequenzy (Omega)   =  0.10E-29 period in steps = 0.13E+47 mass=  -0.347E-26a.u.
   SCALEE = 1.0000    scale energy and forces
   NPACO  =    256;   APACO  = 16.0  distance and # of slots for P.C.
   PSTRESS=    0.0 pullay stress

  Mass of Ions in am
   POMASS =  12.01 16.00
  Ionic Valenz
   ZVAL   =   4.00  6.00
  Atomic Wigner-Seitz radii
   RWIGS  =  -1.00 -1.00
  virtual crystal weights 
   VCA    =   1.00  1.00
   NELECT =     216.0000    total number of electrons
   NUPDOWN=      -1.0000    fix difference up-down

 DOS related values:
   EMIN   =  10.00;   EMAX   =-10.00  energy-range for DOS
   EFERMI =   0.00
   ISMEAR =     0;   SIGMA  =   0.01  broadening in eV -4-tet -1-fermi 0-gaus

 Electronic relaxation 2 (details)
   IALGO  =     58    algorithm
   LDIAG  =      T    sub-space diagonalisation (order eigenvalues)
   LSUBROT=      F    optimize rotation matrix (better conditioning)
   TURBO    =      0    0=normal 1=particle mesh
   IRESTART =      0    0=no restart 2=restart with 2 vectors
   NREBOOT  =      0    no. of reboots
   NMIN     =      0    reboot dimension
   EREF     =   0.00    reference energy to select bands
   IMIX   =      4    mixing-type and parameters
     AMIX     =   0.40;   BMIX     =  1.00
     AMIX_MAG =   1.60;   BMIX_MAG =  1.00
     AMIN     =   0.10
     WC   =   100.;   INIMIX=   1;  MIXPRE=   1;  MAXMIX= -45

 Intra band minimization:
   WEIMIN = 0.0000     energy-eigenvalue tresh-hold
   EBREAK =  0.15E-09  absolut break condition
   DEPER  =   0.30     relativ break condition  

   TIME   =   0.40     timestep for ELM

  volume/ion in A,a.u.               =      49.64       335.01
  Fermi-wavevector in a.u.,A,eV,Ry     =   0.711510  1.344560  6.887909  0.506247
  Thomas-Fermi vector in A             =   1.798641
 
 Write flags
   LWAVE        =      T    write WAVECAR
   LDOWNSAMPLE  =      F    k-point downsampling of WAVECAR
   LCHARG       =      T    write CHGCAR
   LVTOT        =      F    write LOCPOT, total local potential
   LVHAR        =      F    write LOCPOT, Hartree potential only
   LELF         =      F    write electronic localiz. function (ELF)
   LORBIT       =      0    0 simple, 1 ext, 2 COOP (PROOUT), +10 PAW based schemes


 Dipole corrections
   LMONO  =      F    monopole corrections only (constant potential shift)
   LDIPOL =      F    correct potential (dipole corrections)
   IDIPOL =      0    1-x, 2-y, 3-z, 4-all directions 
   EPSILON=  1.0000000 bulk dielectric constant

 Exchange correlation treatment:
   GGA     =    --    GGA type
   LEXCH   =     8    internal setting for exchange type
   VOSKOWN=      0    Vosko Wilk Nusair interpolation
   LHFCALC =     F    Hartree Fock is set to
   LHFONE  =     F    Hartree Fock one center treatment
   AEXX    =    0.0000 exact exchange contribution

 Linear response parameters
   LEPSILON=     F    determine dielectric tensor
   LRPA    =     F    only Hartree local field effects (RPA)
   LNABLA  =     F    use nabla operator in PAW spheres
   LVEL    =     F    velocity operator in full k-point grid
   LINTERFAST=   F  fast interpolation
   KINTER  =     0    interpolate to denser k-point grid
   CSHIFT  =0.1000    complex shift for real part using Kramers Kronig
   OMEGAMAX=  -1.0    maximum frequency
   DEG_THRESHOLD= 0.2000000E-02 threshold for treating states as degnerate
   RTIME   =   -0.100 relaxation time in fs
  (WPLASMAI=    0.000 imaginary part of plasma frequency in eV, 0.658/RTIME)
   DFIELD  = 0.0000000 0.0000000 0.0000000 field for delta impulse in time
 
 Orbital magnetization related:
   ORBITALMAG=     F  switch on orbital magnetization
   LCHIMAG   =     F  perturbation theory with respect to B field
   DQ        =  0.001000  dq finite difference perturbation B field
   LLRAUG    =     F  two centre corrections for induced B field



--------------------------------------------------------------------------------------------------------


 Static calculation
 charge density and potential will be updated during run
 non-spin polarized calculation
 Conjugate gradient for all bands (Freysoldt, et al. PRB 79, 241103 (2009))
 preconditioned conjugated gradient                                        
 perform sub-space diagonalisation
    before iterative eigenvector-optimisation
 modified Broyden-mixing scheme, WC =      100.0
 initial mixing is a Kerker type mixing with AMIX =  0.4000 and BMIX =      1.0000
 Hartree-type preconditioning will be used
 using additional bands           60
 reciprocal scheme for non local part
 use partial core corrections
 no Harris-corrections to forces 
 use gradient corrections 
 use of overlap-Matrix (Vanderbilt PP)
 Gauss-broadening in eV      SIGMA  =   0.01


--------------------------------------------------------------------------------------------------------


  energy-cutoff  :     1000.00
  volume of cell :     2631.08
      direct lattice vectors                 reciprocal lattice vectors
    12.325000000  0.000000000  0.000000000     0.081135903  0.046843835  0.000000000
    -6.162500000 10.673763102  0.000000000     0.000000000  0.093687670  0.000000000
     0.000000000  0.000000000 20.000000000     0.000000000  0.000000000  0.050000000

  length of vectors
    12.325000000 12.325000000 20.000000000     0.093687670  0.093687670  0.050000000


 
 k-points in units of 2pi/SCALE and weight: auto                                    
   0.00000000  0.00000000  0.00000000       1.000
 
 k-points in reciprocal lattice and weights: auto                                    
   0.00000000  0.00000000  0.00000000       1.000
 
 position of ions in fractional coordinates (direct lattice) 
   0.97245084  0.00032082  0.00070839
   0.03911838  0.13365950  0.00055022
   0.17244363  0.00029545  0.00062454
   0.23909628  0.13364792  0.00032058
   0.97245206  0.20032201  0.00060652
   0.03912836  0.33364377  0.00055519
   0.17245176  0.20035455  0.00027396
   0.23912436  0.33366572  0.00009033
   0.37246557  0.00032440  0.00056739
   0.43913747  0.13361994  0.00032292
   0.97244982  0.40030936  0.00068451
   0.03912498  0.53363679  0.00071676
   0.37241618  0.40032948  0.00000000
   0.43909960  0.53363898  0.00029052
   0.57244368  0.00031213  0.00069947
   0.63911021  0.13363175  0.00068409
   0.97245270  0.60030565  0.00080036
   0.03912449  0.73364036  0.00081814
   0.57243347  0.60030624  0.00050362
   0.63911189  0.73364188  0.00065988
   0.17245463  0.40031823  0.00036131
   0.23912018  0.53363655  0.00047314
   0.37245975  0.20029599  0.00011125
   0.43910710  0.33367342  0.00006970
   0.17245216  0.60031151  0.00065542
   0.23912337  0.73363857  0.00071891
   0.57243108  0.20028917  0.00051662
   0.63911277  0.33361863  0.00057797
   0.37243981  0.60030802  0.00045356
   0.43911609  0.73363786  0.00061774
   0.57246936  0.40032050  0.00042490
   0.63911941  0.53365087  0.00057451
   0.77244572  0.00031543  0.00074520
   0.83911628  0.13364020  0.00071913
   0.77244051  0.20030743  0.00072629
   0.83912024  0.33363573  0.00073183
   0.77244632  0.40029837  0.00072872
   0.83911898  0.53363396  0.00077638
   0.77245614  0.60030817  0.00074464
   0.83911503  0.73364318  0.00078939
   0.97245531  0.80030558  0.00081529
   0.03911471  0.93364329  0.00074756
   0.17245797  0.80031221  0.00077922
   0.23913455  0.93364719  0.00068106
   0.37245140  0.80031667  0.00068925
   0.43912449  0.93364477  0.00067679
   0.57244110  0.80031005  0.00066817
   0.63911507  0.93363899  0.00073456
   0.77244510  0.80031319  0.00075258
   0.83911661  0.93364434  0.00075854
   0.37302101  0.25122688  0.15749013
   0.42087980  0.18931315  0.16071122
   0.32515698  0.31316719  0.15451739
 
 position of ions in cartesian coordinates  (Angst):
  11.98347958  0.00342433  0.01416777
  -0.34154264  1.42664989  0.01100432
   2.12354700  0.00315355  0.01249070
   2.12325634  1.42652621  0.00641170
  10.75098721  2.13818970  0.01213047
  -1.57382270  3.56123457  0.01110375
   0.89078307  2.13853702  0.00547917
   0.89099273  3.56146885  0.00180651
   4.58863896  0.00346260  0.01134782
   4.58893648  1.42622757  0.00645846
   9.51853763  4.27280730  0.01369027
  -2.80632132  5.69591267  0.01433526
   2.12299894  4.27302204  0.00000000
   2.12335237  5.69593607  0.00581036
   7.05344483  0.00333155  0.01398950
   7.05352764  1.42635365  0.01368187
   8.28609598  6.40752033  0.01600723
  -4.03884931  7.83070339  0.01636283
   3.35585531  6.40752662  0.01007237
   3.35598594  7.83071962  0.01319763
  -0.34145776  4.27290193  0.00722612
  -0.34137895  5.69591010  0.00946273
   3.35624236  2.13791198  0.00222492
   3.35573251  3.56155103  0.00139405
  -1.57394684  6.40758280  0.01310850
  -1.57385216  7.83068434  0.01437823
   5.82093107  2.13783916  0.01033241
   5.82114012  3.56096622  0.01155939
   0.89092245  6.40754561  0.00907111
   0.89106251  7.83067670  0.01235474
   4.58870974  4.27292622  0.00849795
   4.58852320  5.69606300  0.01149026
   9.51844972  0.00336679  0.01490402
   9.51855036  1.42644387  0.01438264
   8.28593477  2.13803408  0.01452582
   8.28612680  3.56114872  0.01463668
   7.05356221  4.27268994  0.01457444
   7.05362213  5.69588251  0.01552751
   5.82112285  6.40754723  0.01489279
   5.82101669  7.83073350  0.01578780
   7.05362858  8.54227219  0.01630582
  -5.27148792  9.96548729  0.01495127
  -2.80637951  8.54234295  0.01558431
  -2.80626749  9.96552896  0.01362126
  -0.34148805  8.54239058  0.01378498
  -0.34137657  9.96550309  0.01353576
   2.12342586  8.54231992  0.01336337
   2.12354296  9.96544135  0.01469111
   4.58845581  8.54235337  0.01505154
   4.58852904  9.96549848  0.01517076
   3.04929830  2.68153618  3.14980262
   4.02070129  2.02068374  3.21422448
   2.07766701  3.34267235  3.09034775
 


--------------------------------------------------------------------------------------------------------


 k-point   1 :   0.0000 0.0000 0.0000  plane waves:  189031

 maximum and minimum number of plane-waves per node :    189031   189031

 maximum number of plane-waves:    189031
 maximum index in each direction: 
   IXMAX=   31   IYMAX=   31   IZMAX=   51
   IXMIN=  -31   IYMIN=  -31   IZMIN=  -51


 serial   3D FFT for wavefunctions
 parallel 3D FFT for charge:
    minimum data exchange during FFTs selected (reduces bandwidth)


 total amount of memory used by VASP MPI-rank0   556209. kBytes
=======================================================================

   base      :      30000. kBytes
   nonl-proj :     184518. kBytes
   fftplans  :      31725. kBytes
   grid      :     282516. kBytes
   one-center:        162. kBytes
   wavefun   :      27288. kBytes
 
     INWAV:  cpu time    0.0000: real time    0.0000
 Broyden mixing: mesh for mixing (old mesh)
   NGX = 63   NGY = 63   NGZ =103
  (NGX  =256   NGY  =256   NGZ  =420)
  gives a total of 408807 points

 initial charge density was supplied:
 charge density of overlapping atoms calculated
 number of electron     216.0000000 magnetization 
 keeping initial charge density in first step


--------------------------------------------------------------------------------------------------------


 Maximum index for augmentation-charges          459 (set IRDMAX)


--------------------------------------------------------------------------------------------------------


 First call to EWALD:  gamma=   0.128
 Maximum number of real-space cells 3x 3x 2
 Maximum number of reciprocal cells 3x 3x 4

    FEWALD:  cpu time    0.0026: real time    0.0026


--------------------------------------- Iteration      1(   1)  ---------------------------------------


    POTLOK:  cpu time    1.2862: real time    1.2953
    SETDIJ:  cpu time    0.1849: real time    0.1860
    TRIAL :  cpu time   21.8323: real time   22.0141
    CORREC:  cpu time    0.0005: real time    0.0006
    --------------------------------------------
      LOOP:  cpu time   23.3173: real time   23.5108

 eigenvalue-minimisations  :   336
 total energy-change (2. order) : 0.2427067E+04  (-0.1181329E+05)
 number of electron     216.0000000 magnetization 
 augmentation part      216.0000000 magnetization 

 Free energy of the ion-electron system (eV)
  ---------------------------------------------------
  alpha Z        PSCENC =        59.93625244
  Ewald energy   TEWEN  =     34385.40656134
  -Hartree energ DENC   =    -40560.25757233
  -exchange      EXHF   =         0.00000000
  -V(xc)+E(xc)   XCENC  =       605.29886394
  PAW double counting   =      6340.10990386    -6200.63067283
  entropy T*S    EENTRO =        -0.00000000
  eigenvalues    EBANDS =      -572.32027796
  atomic energy  EATOM  =      8369.52358910
  ---------------------------------------------------
  free energy    TOTEN  =      2427.06664756 eV

  energy without entropy =     2427.06664756  energy(sigma->0) =     2427.06664756


--------------------------------------------------------------------------------------------------------




--------------------------------------- Iteration      1(   2)  ---------------------------------------


    TRIAL :  cpu time   35.6475: real time   35.9255
    CORREC:  cpu time    0.0001: real time    0.0001
    --------------------------------------------
      LOOP:  cpu time   35.6941: real time   35.9759

 eigenvalue-minimisations  :   672
 total energy-change (2. order) :-0.2477032E+04  (-0.2363833E+04)
 number of electron     216.0000000 magnetization 
 augmentation part      216.0000000 magnetization 

 Free energy of the ion-electron system (eV)
  ---------------------------------------------------
  alpha Z        PSCENC =        59.93625244
  Ewald energy   TEWEN  =     34385.40656134
  -Hartree energ DENC   =    -40560.25757233
  -exchange      EXHF   =         0.00000000
  -V(xc)+E(xc)   XCENC  =       605.29886394
  PAW double counting   =      6340.10990386    -6200.63067283
  entropy T*S    EENTRO =        -0.00000000
  eigenvalues    EBANDS =     -3049.35204278
  atomic energy  EATOM  =      8369.52358910
  ---------------------------------------------------
  free energy    TOTEN  =       -49.96511725 eV

  energy without entropy =      -49.96511725  energy(sigma->0) =      -49.96511725


--------------------------------------------------------------------------------------------------------




--------------------------------------- Iteration      1(   3)  ---------------------------------------


    TRIAL :  cpu time   24.1398: real time   24.3253
    CORREC:  cpu time    0.0001: real time    0.0001
    --------------------------------------------
      LOOP:  cpu time   24.1988: real time   24.3873

 eigenvalue-minimisations  :   392
 total energy-change (2. order) :-0.5325816E+03  (-0.5297907E+03)
 number of electron     216.0000000 magnetization 
 augmentation part      216.0000000 magnetization 

 Free energy of the ion-electron system (eV)
  ---------------------------------------------------
  alpha Z        PSCENC =        59.93625244
  Ewald energy   TEWEN  =     34385.40656134
  -Hartree energ DENC   =    -40560.25757233
  -exchange      EXHF   =         0.00000000
  -V(xc)+E(xc)   XCENC  =       605.29886394
  PAW double counting   =      6340.10990386    -6200.63067283
  entropy T*S    EENTRO =        -0.00000000
  eigenvalues    EBANDS =     -3581.93362154
  atomic energy  EATOM  =      8369.52358910
  ---------------------------------------------------
  free energy    TOTEN  =      -582.54669602 eV

  energy without entropy =     -582.54669602  energy(sigma->0) =     -582.54669602


--------------------------------------------------------------------------------------------------------




--------------------------------------- Iteration      1(   4)  ---------------------------------------


    TRIAL :  cpu time   26.4285: real time   26.6229
    CORREC:  cpu time    0.0001: real time    0.0001
    --------------------------------------------
      LOOP:  cpu time   26.4839: real time   26.6830

 eigenvalue-minimisations  :   448
 total energy-change (2. order) :-0.2427337E+02  (-0.2412782E+02)
 number of electron     216.0000000 magnetization 
 augmentation part      216.0000000 magnetization 

 Free energy of the ion-electron system (eV)
  ---------------------------------------------------
  alpha Z        PSCENC =        59.93625244
  Ewald energy   TEWEN  =     34385.40656134
  -Hartree energ DENC   =    -40560.25757233
  -exchange      EXHF   =         0.00000000
  -V(xc)+E(xc)   XCENC  =       605.29886394
  PAW double counting   =      6340.10990386    -6200.63067283
  entropy T*S    EENTRO =        -0.00000000
  eigenvalues    EBANDS =     -3606.20699522
  atomic energy  EATOM  =      8369.52358910
  ---------------------------------------------------
  free energy    TOTEN  =      -606.82006970 eV

  energy without entropy =     -606.82006970  energy(sigma->0) =     -606.82006970


--------------------------------------------------------------------------------------------------------




--------------------------------------- Iteration      1(   5)  ---------------------------------------


    TRIAL :  cpu time   26.4530: real time   26.6488
    CORREC:  cpu time    0.0001: real time    0.0001
    CHARGE:  cpu time    2.2993: real time    2.3156
    --------------------------------------------
      LOOP:  cpu time   28.8031: real time   29.0161

 eigenvalue-minimisations  :   448
 total energy-change (2. order) :-0.8473774E+00  (-0.8437375E+00)
 number of electron     216.0000000 magnetization 
 augmentation part       -0.4478239 magnetization 

 Free energy of the ion-electron system (eV)
  ---------------------------------------------------
  alpha Z        PSCENC =        59.93625244
  Ewald energy   TEWEN  =     34385.40656134
  -Hartree energ DENC   =    -40560.25757233
  -exchange      EXHF   =         0.00000000
  -V(xc)+E(xc)   XCENC  =       605.29886394
  PAW double counting   =      6340.10990386    -6200.63067283
  entropy T*S    EENTRO =        -0.00000000
  eigenvalues    EBANDS =     -3607.05437262
  atomic energy  EATOM  =      8369.52358910
  ---------------------------------------------------
  free energy    TOTEN  =      -607.66744710 eV

  energy without entropy =     -607.66744710  energy(sigma->0) =     -607.66744710


--------------------------------------------------------------------------------------------------------




--------------------------------------- Iteration      1(   6)  ---------------------------------------


    POTLOK:  cpu time    1.2616: real time    1.2690
    SETDIJ:  cpu time    0.1865: real time    0.1872
    TRIAL :  cpu time   15.5565: real time   15.6895
    CORREC:  cpu time    6.8796: real time    6.9275
    CHARGE:  cpu time    2.2925: real time    2.3086
    --------------------------------------------
      LOOP:  cpu time   26.2133: real time   26.4215

 eigenvalue-minimisations  :     0
 total energy-change (2. order) : 0.9776231E+02  (-0.1129189E+02)
 number of electron     216.0000000 magnetization 
 augmentation part       -0.5075615 magnetization 

 Free energy of the ion-electron system (eV)
  ---------------------------------------------------
  alpha Z        PSCENC =        59.93625244
  Ewald energy   TEWEN  =     34385.40656134
  -Hartree energ DENC   =    -41875.51046536
  -exchange      EXHF   =         0.00000000
  -V(xc)+E(xc)   XCENC  =       676.65154734
  PAW double counting   =    119281.58269231  -119141.98031285
  entropy T*S    EENTRO =        -0.00000000
  eigenvalues    EBANDS =     -2265.51499887
  atomic energy  EATOM  =      8369.52358910
  ---------------------------------------------------
  free energy    TOTEN  =      -509.90513455 eV

  energy without entropy =     -509.90513455  energy(sigma->0) =     -509.90513455


--------------------------------------------------------------------------------------------------------




--------------------------------------- Iteration      1(   7)  ---------------------------------------


    POTLOK:  cpu time    1.2612: real time    1.2685
    SETDIJ:  cpu time    0.1730: real time    0.1737
    TRIAL :  cpu time   15.5862: real time   15.7057
    CORREC:  cpu time    6.8732: real time    6.9269
    CHARGE:  cpu time    2.2877: real time    2.3070
    --------------------------------------------
      LOOP:  cpu time   26.2311: real time   26.4381

 eigenvalue-minimisations  :     0
 total energy-change (2. order) :-0.1130195E+02  (-0.1428535E+01)
 number of electron     216.0000000 magnetization 
 augmentation part       -0.5400771 magnetization 

 Free energy of the ion-electron system (eV)
  ---------------------------------------------------
  alpha Z        PSCENC =        59.93625244
  Ewald energy   TEWEN  =     34385.40656134
  -Hartree energ DENC   =    -41469.87227631
  -exchange      EXHF   =         0.00000000
  -V(xc)+E(xc)   XCENC  =       659.04822826
  PAW double counting   =    138780.99400513  -138639.65735769
  entropy T*S    EENTRO =        -0.00000000
  eigenvalues    EBANDS =     -2666.58608773
  atomic energy  EATOM  =      8369.52358910
  ---------------------------------------------------
  free energy    TOTEN  =      -521.20708544 eV

  energy without entropy =     -521.20708544  energy(sigma->0) =     -521.20708544


--------------------------------------------------------------------------------------------------------




--------------------------------------- Iteration      1(   8)  ---------------------------------------


    POTLOK:  cpu time    1.2671: real time    1.2764
    SETDIJ:  cpu time    0.1656: real time    0.1662
    TRIAL :  cpu time   15.5488: real time   15.6836
    CORREC:  cpu time    6.8722: real time    6.9301
    CHARGE:  cpu time    2.2851: real time    2.3012
    --------------------------------------------
      LOOP:  cpu time   26.1852: real time   26.4616

 eigenvalue-minimisations  :     0
 total energy-change (2. order) :-0.1429180E+01  (-0.4488463E+00)
 number of electron     216.0000000 magnetization 
 augmentation part       -0.5416892 magnetization 

 Free energy of the ion-electron system (eV)
  ---------------------------------------------------
  alpha Z        PSCENC =        59.93625244
  Ewald energy   TEWEN  =     34385.40656134
  -Hartree energ DENC   =    -41445.45451568
  -exchange      EXHF   =         0.00000000
  -V(xc)+E(xc)   XCENC  =       658.06436716
  PAW double counting   =    148655.43151754  -148513.97385679
  entropy T*S    EENTRO =        -0.00000000
  eigenvalues    EBANDS =     -2691.57018043
  atomic energy  EATOM  =      8369.52358910
  ---------------------------------------------------
  free energy    TOTEN  =      -522.63626533 eV

  energy without entropy =     -522.63626533  energy(sigma->0) =     -522.63626533


--------------------------------------------------------------------------------------------------------




--------------------------------------- Iteration      1(   9)  ---------------------------------------


    POTLOK:  cpu time    1.2579: real time    1.2708
    SETDIJ:  cpu time    0.1815: real time    0.1822
    TRIAL :  cpu time   15.5764: real time   15.6990
    CORREC:  cpu time    6.8790: real time    6.9313
    CHARGE:  cpu time    2.2910: real time    2.3066
    --------------------------------------------
      LOOP:  cpu time   26.2081: real time   26.4504

 eigenvalue-minimisations  :     0
 total energy-change (2. order) :-0.4485795E+00  (-0.1768623E+00)
 number of electron     216.0000000 magnetization 
 augmentation part       -0.5389429 magnetization 

 Free energy of the ion-electron system (eV)
  ---------------------------------------------------
  alpha Z        PSCENC =        59.93625244
  Ewald energy   TEWEN  =     34385.40656134
  -Hartree energ DENC   =    -41451.22674128
  -exchange      EXHF   =         0.00000000
  -V(xc)+E(xc)   XCENC  =       658.03149212
  PAW double counting   =    156381.67943151  -156240.15391027
  entropy T*S    EENTRO =        -0.00000000
  eigenvalues    EBANDS =     -2686.28151977
  atomic energy  EATOM  =      8369.52358910
  ---------------------------------------------------
  free energy    TOTEN  =      -523.08484480 eV

  energy without entropy =     -523.08484480  energy(sigma->0) =     -523.08484480


--------------------------------------------------------------------------------------------------------




--------------------------------------- Iteration      1(  10)  ---------------------------------------


    POTLOK:  cpu time    1.2594: real time    1.2665
    SETDIJ:  cpu time    0.1787: real time    0.1794
    TRIAL :  cpu time   15.5615: real time   15.6859
    CORREC:  cpu time    6.8777: real time    6.9272
    CHARGE:  cpu time    2.2856: real time    2.3027
    --------------------------------------------
      LOOP:  cpu time   26.1960: real time   26.4094

 eigenvalue-minimisations  :     0
 total energy-change (2. order) :-0.1767086E+00  (-0.7743798E-01)
 number of electron     216.0000000 magnetization 
 augmentation part       -0.5342033 magnetization 

 Free energy of the ion-electron system (eV)
  ---------------------------------------------------
  alpha Z        PSCENC =        59.93625244
  Ewald energy   TEWEN  =     34385.40656134
  -Hartree energ DENC   =    -41450.01075815
  -exchange      EXHF   =         0.00000000
  -V(xc)+E(xc)   XCENC  =       657.95143872
  PAW double counting   =    160076.06644611  -159934.49718309
  entropy T*S    EENTRO =        -0.00000000
  eigenvalues    EBANDS =     -2687.63789984
  atomic energy  EATOM  =      8369.52358910
  ---------------------------------------------------
  free energy    TOTEN  =      -523.26155338 eV

  energy without entropy =     -523.26155338  energy(sigma->0) =     -523.26155338


--------------------------------------------------------------------------------------------------------




--------------------------------------- Iteration      1(  11)  ---------------------------------------


    POTLOK:  cpu time    1.2621: real time    1.2703
    SETDIJ:  cpu time    0.1752: real time    0.1758
    TRIAL :  cpu time   15.5796: real time   15.6969
    CORREC:  cpu time    6.8764: real time    6.9276
    CHARGE:  cpu time    2.2848: real time    2.3011
    --------------------------------------------
      LOOP:  cpu time   26.2193: real time   26.4196

 eigenvalue-minimisations  :     0
 total energy-change (2. order) :-0.7729532E-01  (-0.2976485E-01)
 number of electron     216.0000000 magnetization 
 augmentation part       -0.5309387 magnetization 

 Free energy of the ion-electron system (eV)
  ---------------------------------------------------
  alpha Z        PSCENC =        59.93625244
  Ewald energy   TEWEN  =     34385.40656134
  -Hartree energ DENC   =    -41444.41354353
  -exchange      EXHF   =         0.00000000
  -V(xc)+E(xc)   XCENC  =       657.88506004
  PAW double counting   =    160715.37236109  -160573.82139030
  entropy T*S    EENTRO =        -0.00000000
  eigenvalues    EBANDS =     -2693.22773889
  atomic energy  EATOM  =      8369.52358910
  ---------------------------------------------------
  free energy    TOTEN  =      -523.33884870 eV

  energy without entropy =     -523.33884870  energy(sigma->0) =     -523.33884870


--------------------------------------------------------------------------------------------------------




--------------------------------------- Iteration      1(  12)  ---------------------------------------


    POTLOK:  cpu time    1.2614: real time    1.2689
    SETDIJ:  cpu time    0.1764: real time    0.1769
    TRIAL :  cpu time   15.5770: real time   15.6972
    CORREC:  cpu time    6.8902: real time    6.9373
    CHARGE:  cpu time    2.2902: real time    2.3065
    --------------------------------------------
      LOOP:  cpu time   26.2300: real time   26.4261

 eigenvalue-minimisations  :     0
 total energy-change (2. order) :-0.2971860E-01  (-0.9287730E-02)
 number of electron     216.0000000 magnetization 
 augmentation part       -0.5307831 magnetization 

 Free energy of the ion-electron system (eV)
  ---------------------------------------------------
  alpha Z        PSCENC =        59.93625244
  Ewald energy   TEWEN  =     34385.40656134
  -Hartree energ DENC   =    -41440.13010784
  -exchange      EXHF   =         0.00000000
  -V(xc)+E(xc)   XCENC  =       657.81703788
  PAW double counting   =    160130.94698993  -159989.42129314
  entropy T*S    EENTRO =        -0.00000000
  eigenvalues    EBANDS =     -2697.44759702
  atomic energy  EATOM  =      8369.52358910
  ---------------------------------------------------
  free energy    TOTEN  =      -523.36856730 eV

  energy without entropy =     -523.36856730  energy(sigma->0) =     -523.36856730


--------------------------------------------------------------------------------------------------------




--------------------------------------- Iteration      1(  13)  ---------------------------------------


    POTLOK:  cpu time    1.2635: real time    1.2705
    SETDIJ:  cpu time    0.1738: real time    0.1744
    TRIAL :  cpu time   15.5936: real time   15.7111
    CORREC:  cpu time    6.8829: real time    6.9351
    CHARGE:  cpu time    2.2918: real time    2.3111
    --------------------------------------------
      LOOP:  cpu time   26.2644: real time   26.4794

 eigenvalue-minimisations  :     0
 total energy-change (2. order) :-0.9268848E-02  (-0.2602108E-02)
 number of electron     216.0000000 magnetization 
 augmentation part       -0.5312987 magnetization 

 Free energy of the ion-electron system (eV)
  ---------------------------------------------------
  alpha Z        PSCENC =        59.93625244
  Ewald energy   TEWEN  =     34385.40656134
  -Hartree energ DENC   =    -41438.84426568
  -exchange      EXHF   =         0.00000000
  -V(xc)+E(xc)   XCENC  =       657.76876143
  PAW double counting   =    159465.24440476  -159323.72278147
  entropy T*S    EENTRO =        -0.00000000
  eigenvalues    EBANDS =     -2698.69035807
  atomic energy  EATOM  =      8369.52358910
  ---------------------------------------------------
  free energy    TOTEN  =      -523.37783615 eV

  energy without entropy =     -523.37783615  energy(sigma->0) =     -523.37783615


--------------------------------------------------------------------------------------------------------




--------------------------------------- Iteration      1(  14)  ---------------------------------------


    POTLOK:  cpu time    1.2593: real time    1.2670
    SETDIJ:  cpu time    0.1747: real time    0.1753
    TRIAL :  cpu time   15.5819: real time   15.6980
    CORREC:  cpu time    6.8841: real time    6.9296
    CHARGE:  cpu time    2.2904: real time    2.3060
    --------------------------------------------
      LOOP:  cpu time   26.2505: real time   26.4442

 eigenvalue-minimisations  :     0
 total energy-change (2. order) :-0.2591840E-02  (-0.6992331E-03)
 number of electron     216.0000000 magnetization 
 augmentation part       -0.5315486 magnetization 

 Free energy of the ion-electron system (eV)
  ---------------------------------------------------
  alpha Z        PSCENC =        59.93625244
  Ewald energy   TEWEN  =     34385.40656134
  -Hartree energ DENC   =    -41438.90012720
  -exchange      EXHF   =         0.00000000
  -V(xc)+E(xc)   XCENC  =       657.75724614
  PAW double counting   =    159072.66883414  -158931.14592481
  entropy T*S    EENTRO =        -0.00000000
  eigenvalues    EBANDS =     -2698.62685914
  atomic energy  EATOM  =      8369.52358910
  ---------------------------------------------------
  free energy    TOTEN  =      -523.38042799 eV

  energy without entropy =     -523.38042799  energy(sigma->0) =     -523.38042799


--------------------------------------------------------------------------------------------------------




--------------------------------------- Iteration      1(  15)  ---------------------------------------


    POTLOK:  cpu time    1.2590: real time    1.2664
    SETDIJ:  cpu time    0.1775: real time    0.1781
    TRIAL :  cpu time   15.5725: real time   15.6994
    CORREC:  cpu time    6.8735: real time    6.9288
    CHARGE:  cpu time    2.2851: real time    2.3018
    --------------------------------------------
      LOOP:  cpu time   26.2281: real time   26.4421

 eigenvalue-minimisations  :     0
 total energy-change (2. order) :-0.6948544E-03  (-0.1951182E-03)
 number of electron     216.0000000 magnetization 
 augmentation part       -0.5317184 magnetization 

 Free energy of the ion-electron system (eV)
  ---------------------------------------------------
  alpha Z        PSCENC =        59.93625244
  Ewald energy   TEWEN  =     34385.40656134
  -Hartree energ DENC   =    -41438.83413676
  -exchange      EXHF   =         0.00000000
  -V(xc)+E(xc)   XCENC  =       657.75255295
  PAW double counting   =    158880.00872871  -158738.48486597
  entropy T*S    EENTRO =        -0.00000000
  eigenvalues    EBANDS =     -2698.68980465
  atomic energy  EATOM  =      8369.52358910
  ---------------------------------------------------
  free energy    TOTEN  =      -523.38112284 eV

  energy without entropy =     -523.38112284  energy(sigma->0) =     -523.38112284


--------------------------------------------------------------------------------------------------------




--------------------------------------- Iteration      1(  16)  ---------------------------------------


    POTLOK:  cpu time    1.2605: real time    1.2678
    SETDIJ:  cpu time    0.1779: real time    0.1785
    TRIAL :  cpu time   15.5717: real time   15.6829
    CORREC:  cpu time    6.8832: real time    6.9347
    CHARGE:  cpu time    2.2863: real time    2.3050
    --------------------------------------------
      LOOP:  cpu time   26.2077: real time   26.4023

 eigenvalue-minimisations  :     0
 total energy-change (2. order) :-0.1932697E-03  (-0.6130489E-04)
 number of electron     216.0000000 magnetization 
 augmentation part       -0.5317833 magnetization 

 Free energy of the ion-electron system (eV)
  ---------------------------------------------------
  alpha Z        PSCENC =        59.93625244
  Ewald energy   TEWEN  =     34385.40656134
  -Hartree energ DENC   =    -41438.75235498
  -exchange      EXHF   =         0.00000000
  -V(xc)+E(xc)   XCENC  =       657.74723490
  PAW double counting   =    158772.47970501  -158630.95428631
  entropy T*S    EENTRO =        -0.00000000
  eigenvalues    EBANDS =     -2698.76801762
  atomic energy  EATOM  =      8369.52358910
  ---------------------------------------------------
  free energy    TOTEN  =      -523.38131611 eV

  energy without entropy =     -523.38131611  energy(sigma->0) =     -523.38131611


--------------------------------------------------------------------------------------------------------




--------------------------------------- Iteration      1(  17)  ---------------------------------------


    POTLOK:  cpu time    1.2656: real time    1.2733
    SETDIJ:  cpu time    0.1800: real time    0.1807
    TRIAL :  cpu time   15.5735: real time   15.6998
    CORREC:  cpu time    6.8817: real time    6.9312
    CHARGE:  cpu time    2.2885: real time    2.3057
    --------------------------------------------
      LOOP:  cpu time   26.2380: real time   26.4407

 eigenvalue-minimisations  :     0
 total energy-change (2. order) :-0.6027252E-04  (-0.2182570E-04)
 number of electron     216.0000000 magnetization 
 augmentation part       -0.5318091 magnetization 

 Free energy of the ion-electron system (eV)
  ---------------------------------------------------
  alpha Z        PSCENC =        59.93625244
  Ewald energy   TEWEN  =     34385.40656134
  -Hartree energ DENC   =    -41438.89831085
  -exchange      EXHF   =         0.00000000
  -V(xc)+E(xc)   XCENC  =       657.75253798
  PAW double counting   =    158706.77194243  -158565.24633675
  entropy T*S    EENTRO =        -0.00000000
  eigenvalues    EBANDS =     -2698.62761208
  atomic energy  EATOM  =      8369.52358910
  ---------------------------------------------------
  free energy    TOTEN  =      -523.38137639 eV

  energy without entropy =     -523.38137639  energy(sigma->0) =     -523.38137639


--------------------------------------------------------------------------------------------------------




--------------------------------------- Iteration      1(  18)  ---------------------------------------


    POTLOK:  cpu time    1.2614: real time    1.2693
    SETDIJ:  cpu time    0.1823: real time    0.1829
    TRIAL :  cpu time   15.5766: real time   15.6926
    CORREC:  cpu time    6.8808: real time    6.9310
    CHARGE:  cpu time    2.2898: real time    2.3064
    --------------------------------------------
      LOOP:  cpu time   26.2296: real time   26.4263

 eigenvalue-minimisations  :     0
 total energy-change (2. order) :-0.2189013E-04  (-0.7360864E-05)
 number of electron     216.0000000 magnetization 
 augmentation part       -0.5318260 magnetization 

 Free energy of the ion-electron system (eV)
  ---------------------------------------------------
  alpha Z        PSCENC =        59.93625244
  Ewald energy   TEWEN  =     34385.40656134
  -Hartree energ DENC   =    -41438.96311601
  -exchange      EXHF   =         0.00000000
  -V(xc)+E(xc)   XCENC  =       657.75473105
  PAW double counting   =    158679.95267021  -158538.42682553
  entropy T*S    EENTRO =        -0.00000000
  eigenvalues    EBANDS =     -2698.56526088
  atomic energy  EATOM  =      8369.52358910
  ---------------------------------------------------
  free energy    TOTEN  =      -523.38139828 eV

  energy without entropy =     -523.38139828  energy(sigma->0) =     -523.38139828


--------------------------------------------------------------------------------------------------------




--------------------------------------- Iteration      1(  19)  ---------------------------------------


    POTLOK:  cpu time    1.2530: real time    1.2654
    SETDIJ:  cpu time    0.1792: real time    0.1800
    TRIAL :  cpu time   15.5476: real time   15.6918
    CORREC:  cpu time    6.8827: real time    6.9301
    CHARGE:  cpu time    2.2868: real time    2.3046
    --------------------------------------------
      LOOP:  cpu time   26.1886: real time   26.4518

 eigenvalue-minimisations  :     0
 total energy-change (2. order) :-0.7604685E-05  (-0.2496209E-05)
 number of electron     216.0000000 magnetization 
 augmentation part       -0.5318268 magnetization 

 Free energy of the ion-electron system (eV)
  ---------------------------------------------------
  alpha Z        PSCENC =        59.93625244
  Ewald energy   TEWEN  =     34385.40656134
  -Hartree energ DENC   =    -41438.96287758
  -exchange      EXHF   =         0.00000000
  -V(xc)+E(xc)   XCENC  =       657.75443088
  PAW double counting   =    158679.97854244  -158538.45243633
  entropy T*S    EENTRO =        -0.00000000
  eigenvalues    EBANDS =     -2698.56546817
  atomic energy  EATOM  =      8369.52358910
  ---------------------------------------------------
  free energy    TOTEN  =      -523.38140588 eV

  energy without entropy =     -523.38140588  energy(sigma->0) =     -523.38140588


--------------------------------------------------------------------------------------------------------




--------------------------------------- Iteration      1(  20)  ---------------------------------------


    POTLOK:  cpu time    1.2621: real time    1.2696
    SETDIJ:  cpu time    0.1782: real time    0.1788
    TRIAL :  cpu time   15.5616: real time   15.6922
    CORREC:  cpu time    6.8889: real time    6.9376
    CHARGE:  cpu time    2.2897: real time    2.3057
    --------------------------------------------
      LOOP:  cpu time   26.2167: real time   26.4222

 eigenvalue-minimisations  :     0
 total energy-change (2. order) :-0.2582237E-05  (-0.7930806E-06)
 number of electron     216.0000000 magnetization 
 augmentation part       -0.5318257 magnetization 

 Free energy of the ion-electron system (eV)
  ---------------------------------------------------
  alpha Z        PSCENC =        59.93625244
  Ewald energy   TEWEN  =     34385.40656134
  -Hartree energ DENC   =    -41438.98106346
  -exchange      EXHF   =         0.00000000
  -V(xc)+E(xc)   XCENC  =       657.75511344
  PAW double counting   =    158687.46203319  -158545.93594790
  entropy T*S    EENTRO =        -0.00000000
  eigenvalues    EBANDS =     -2698.54794661
  atomic energy  EATOM  =      8369.52358910
  ---------------------------------------------------
  free energy    TOTEN  =      -523.38140846 eV

  energy without entropy =     -523.38140846  energy(sigma->0) =     -523.38140846


--------------------------------------------------------------------------------------------------------




--------------------------------------- Iteration      1(  21)  ---------------------------------------


    POTLOK:  cpu time    1.2644: real time    1.2718
    SETDIJ:  cpu time    0.1741: real time    0.1747
    TRIAL :  cpu time   15.5745: real time   15.6945
    CORREC:  cpu time    6.8976: real time    6.9448
    CHARGE:  cpu time    2.2862: real time    2.3026
    --------------------------------------------
      LOOP:  cpu time   26.2324: real time   26.4511

 eigenvalue-minimisations  :     0
 total energy-change (2. order) :-0.8039060E-06  (-0.2802165E-06)
 number of electron     216.0000000 magnetization 
 augmentation part       -0.5318218 magnetization 

 Free energy of the ion-electron system (eV)
  ---------------------------------------------------
  alpha Z        PSCENC =        59.93625244
  Ewald energy   TEWEN  =     34385.40656134
  -Hartree energ DENC   =    -41438.98952702
  -exchange      EXHF   =         0.00000000
  -V(xc)+E(xc)   XCENC  =       657.75530393
  PAW double counting   =    158693.88108730  -158552.35502270
  entropy T*S    EENTRO =        -0.00000000
  eigenvalues    EBANDS =     -2698.53965366
  atomic energy  EATOM  =      8369.52358910
  ---------------------------------------------------
  free energy    TOTEN  =      -523.38140927 eV

  energy without entropy =     -523.38140927  energy(sigma->0) =     -523.38140927


--------------------------------------------------------------------------------------------------------




--------------------------------------- Iteration      1(  22)  ---------------------------------------


    POTLOK:  cpu time    1.2625: real time    1.2711
    SETDIJ:  cpu time    0.1744: real time    0.1750
    TRIAL :  cpu time   15.5582: real time   15.6897
    CORREC:  cpu time    6.8875: real time    6.9384
    CHARGE:  cpu time    2.2854: real time    2.3040
    --------------------------------------------
      LOOP:  cpu time   26.1817: real time   26.4112

 eigenvalue-minimisations  :     0
 total energy-change (2. order) :-0.2707238E-06  (-0.1319524E-06)
 number of electron     216.0000000 magnetization 
 augmentation part       -0.5318160 magnetization 

 Free energy of the ion-electron system (eV)
  ---------------------------------------------------
  alpha Z        PSCENC =        59.93625244
  Ewald energy   TEWEN  =     34385.40656134
  -Hartree energ DENC   =    -41438.98859295
  -exchange      EXHF   =         0.00000000
  -V(xc)+E(xc)   XCENC  =       657.75521519
  PAW double counting   =    158697.96910541  -158556.44306888
  entropy T*S    EENTRO =        -0.00000000
  eigenvalues    EBANDS =     -2698.54047120
  atomic energy  EATOM  =      8369.52358910
  ---------------------------------------------------
  free energy    TOTEN  =      -523.38140954 eV

  energy without entropy =     -523.38140954  energy(sigma->0) =     -523.38140954


--------------------------------------------------------------------------------------------------------




--------------------------------------- Iteration      1(  23)  ---------------------------------------


    POTLOK:  cpu time    1.2595: real time    1.2665
    SETDIJ:  cpu time    0.1762: real time    0.1768
    TRIAL :  cpu time   15.5951: real time   15.7076
    CORREC:  cpu time    6.8785: real time    6.9331
    CHARGE:  cpu time    2.2895: real time    2.3065
    --------------------------------------------
      LOOP:  cpu time   26.2801: real time   26.4880

 eigenvalue-minimisations  :     0
 total energy-change (2. order) :-0.1066073E-06  (-0.1039136E-06)
 number of electron     216.0000000 magnetization 
 augmentation part       -0.5318122 magnetization 

 Free energy of the ion-electron system (eV)
  ---------------------------------------------------
  alpha Z        PSCENC =        59.93625244
  Ewald energy   TEWEN  =     34385.40656134
  -Hartree energ DENC   =    -41438.98740452
  -exchange      EXHF   =         0.00000000
  -V(xc)+E(xc)   XCENC  =       657.75521374
  PAW double counting   =    158700.54182175  -158559.01583453
  entropy T*S    EENTRO =        -0.00000000
  eigenvalues    EBANDS =     -2698.54160896
  atomic energy  EATOM  =      8369.52358910
  ---------------------------------------------------
  free energy    TOTEN  =      -523.38140964 eV

  energy without entropy =     -523.38140964  energy(sigma->0) =     -523.38140964


--------------------------------------------------------------------------------------------------------




--------------------------------------- Iteration      1(  24)  ---------------------------------------


    POTLOK:  cpu time    1.2592: real time    1.2661
    SETDIJ:  cpu time    0.1881: real time    0.1887
    TRIAL :  cpu time   15.5825: real time   15.7060
    CORREC:  cpu time    6.8738: real time    6.9334
    CHARGE:  cpu time    2.2865: real time    2.3056
    --------------------------------------------
      LOOP:  cpu time   26.2414: real time   26.4666

 eigenvalue-minimisations  :     0
 total energy-change (2. order) :-0.4743924E-08  (-0.1246439E-06)
 number of electron     216.0000000 magnetization 
 augmentation part       -0.5318174 magnetization 

 Free energy of the ion-electron system (eV)
  ---------------------------------------------------
  alpha Z        PSCENC =        59.93625244
  Ewald energy   TEWEN  =     34385.40656134
  -Hartree energ DENC   =    -41438.98486039
  -exchange      EXHF   =         0.00000000
  -V(xc)+E(xc)   XCENC  =       657.75513677
  PAW double counting   =    158703.12019557  -158561.59423887
  entropy T*S    EENTRO =        -0.00000000
  eigenvalues    EBANDS =     -2698.54404560
  atomic energy  EATOM  =      8369.52358910
  ---------------------------------------------------
  free energy    TOTEN  =      -523.38140965 eV

  energy without entropy =     -523.38140965  energy(sigma->0) =     -523.38140965


--------------------------------------------------------------------------------------------------------




--------------------------------------- Iteration      1(  25)  ---------------------------------------


    POTLOK:  cpu time    1.2566: real time    1.2667
    SETDIJ:  cpu time    0.1817: real time    0.1824
    TRIAL :  cpu time   15.5556: real time   15.6897
    CORREC:  cpu time    6.8770: real time    6.9333
    CHARGE:  cpu time    2.2843: real time    2.3035
    --------------------------------------------
      LOOP:  cpu time   26.1590: real time   26.4093

 eigenvalue-minimisations  :     0
 total energy-change (2. order) : 0.7427298E-07  (-0.1613626E-06)
 number of electron     216.0000000 magnetization 
 augmentation part       -0.5318182 magnetization 

 Free energy of the ion-electron system (eV)
  ---------------------------------------------------
  alpha Z        PSCENC =        59.93625244
  Ewald energy   TEWEN  =     34385.40656134
  -Hartree energ DENC   =    -41438.98491086
  -exchange      EXHF   =         0.00000000
  -V(xc)+E(xc)   XCENC  =       657.75520953
  PAW double counting   =    158702.45033627  -158560.92436968
  entropy T*S    EENTRO =        -0.00000000
  eigenvalues    EBANDS =     -2698.54407772
  atomic energy  EATOM  =      8369.52358910
  ---------------------------------------------------
  free energy    TOTEN  =      -523.38140957 eV

  energy without entropy =     -523.38140957  energy(sigma->0) =     -523.38140957


--------------------------------------------------------------------------------------------------------




--------------------------------------- Iteration      1(  26)  ---------------------------------------


    POTLOK:  cpu time    1.2597: real time    1.2683
    SETDIJ:  cpu time    0.1768: real time    0.1775
    TRIAL :  cpu time   15.5863: real time   15.6992
    CORREC:  cpu time    6.7829: real time    6.8343
    CHARGE:  cpu time    2.2998: real time    2.3159
    --------------------------------------------
      LOOP:  cpu time   26.1329: real time   26.3369

 eigenvalue-minimisations  :     0
 total energy-change (2. order) :-0.1450535E-06  ( 0.1496850E-07)
 number of electron     216.0000000 magnetization 
 augmentation part       -0.5318169 magnetization 

 Free energy of the ion-electron system (eV)
  ---------------------------------------------------
  alpha Z        PSCENC =        59.93625244
  Ewald energy   TEWEN  =     34385.40656134
  -Hartree energ DENC   =    -41438.98469313
  -exchange      EXHF   =         0.00000000
  -V(xc)+E(xc)   XCENC  =       657.75511618
  PAW double counting   =    158702.18038913  -158560.65439702
  entropy T*S    EENTRO =        -0.00000000
  eigenvalues    EBANDS =     -2698.54422776
  atomic energy  EATOM  =      8369.52358910
  ---------------------------------------------------
  free energy    TOTEN  =      -523.38140972 eV

  energy without entropy =     -523.38140972  energy(sigma->0) =     -523.38140972


--------------------------------------------------------------------------------------------------------




--------------------------------------- Iteration      1(  27)  ---------------------------------------


    POTLOK:  cpu time    1.2579: real time    1.2655
    SETDIJ:  cpu time    0.1783: real time    0.1789
    TRIAL :  cpu time   15.5964: real time   15.7114
    CORREC:  cpu time    6.7817: real time    6.8285
    EDDIAG:  cpu time    3.2107: real time    3.2346
    CHARGE:  cpu time    2.2928: real time    2.3085
    --------------------------------------------
      LOOP:  cpu time   29.4244: real time   29.6350

 eigenvalue-minimisations  :     0
 total energy-change (2. order) :-0.1018634E-07  ( 0.9763768E-10)
 number of electron     216.0000000 magnetization 
 augmentation part       -0.5318174 magnetization 

 Free energy of the ion-electron system (eV)
  ---------------------------------------------------
  alpha Z        PSCENC =        59.93625244
  Ewald energy   TEWEN  =     34385.40656134
  -Hartree energ DENC   =    -41438.98510488
  -exchange      EXHF   =         0.00000000
  -V(xc)+E(xc)   XCENC  =       657.75517631
  PAW double counting   =    158701.95458069  -158560.42860482
  entropy T*S    EENTRO =        -0.00000000
  eigenvalues    EBANDS =     -2698.54385991
  atomic energy  EATOM  =      8369.52358910
  ---------------------------------------------------
  free energy    TOTEN  =      -523.38140973 eV

  energy without entropy =     -523.38140973  energy(sigma->0) =     -523.38140973


--------------------------------------------------------------------------------------------------------


  average scaling for gradient   0.7762


 average (electrostatic) potential at core
  the test charge radii are     0.5770  0.5955
  (the norm of the test charge is              1.0000)
       1 -87.6394       2 -87.6342       3 -87.6463       4 -87.6552       5 -87.6307
       6 -87.6272       7 -87.6407       8 -87.6236       9 -87.6302      10 -87.6345
      11 -87.6302      12 -87.6347      13 -87.6325      14 -87.6287      15 -87.6274
      16 -87.6274      17 -87.6336      18 -87.6355      19 -87.6384      20 -87.6335
      21 -87.6226      22 -87.6249      23 -87.6543      24 -87.6526      25 -87.6293
      26 -87.6316      27 -87.6310      28 -87.6427      29 -87.6267      30 -87.6292
      31 -87.6517      32 -87.6415      33 -87.6360      34 -87.6311      35 -87.6293
      36 -87.6323      37 -87.6343      38 -87.6374      39 -87.6375      40 -87.6355
      41 -87.6363      42 -87.6394      43 -87.6329      44 -87.6393      45 -87.6287
      46 -87.6273      47 -87.6338      48 -87.6309      49 -87.6363      50 -87.6344
      51 -91.5030      52-123.8811      53-123.8845
 
 
 
 E-fermi :  -4.0604     XC(G=0):  -2.3119     alpha+bet : -2.1113

 Fermi energy:        -4.0604132876

 k-point     1 :       0.0000    0.0000    0.0000
  band No.  band energies     occupation 
      1     -28.7790      2.00000
      2     -27.6719      2.00000
      3     -23.3414      2.00000
      4     -22.3574      2.00000
      5     -22.3523      2.00000
      6     -22.3461      2.00000
[...]
     31     -16.0484      2.00000
     32     -16.0475      2.00000
     33     -16.0470      2.00000
     34     -14.6445      2.00000
     35     -14.6441      2.00000
     36     -14.6436      2.00000
     37     -14.6419      2.00000
     38     -14.6417      2.00000
     39     -14.6412      2.00000
     40     -12.8539      2.00000
     41     -12.1527      2.00000
     42     -12.1525      2.00000
     43     -12.1499      2.00000
     44     -12.1497      2.00000
     45     -12.1496      2.00000
     46     -12.1492      2.00000
     47     -11.9466      2.00000
     48     -11.9459      2.00000
     49     -11.9437      2.00000
     50     -11.9435      2.00000
     51     -11.9406      2.00000
     52     -11.9403      2.00000
     53     -11.5122      2.00000
     54     -11.3838      2.00000
     55     -11.3109      2.00000
     56     -10.6048      2.00000
     57     -10.4812      2.00000
     58     -10.4811      2.00000
     59     -10.4803      2.00000
     60     -10.4800      2.00000
     61     -10.4788      2.00000
     62     -10.4786      2.00000
     63      -9.4616      2.00000
     64      -9.4554      2.00000
     65      -9.4548      2.00000
     66      -9.4506      2.00000
     67      -9.4486      2.00000
     68      -9.4246      2.00000
     69      -9.1537      2.00000
     70      -9.1499      2.00000
     71      -9.1491      2.00000
     72      -9.1478      2.00000
     73      -9.1472      2.00000
     74      -9.1457      2.00000
     75      -9.1443      2.00000
     76      -9.1434      2.00000
     77      -9.1426      2.00000
     78      -9.1405      2.00000
     79      -9.1404      2.00000
     80      -9.1397      2.00000
     81      -7.7292      2.00000
     82      -7.6808      2.00000
     83      -7.4053      2.00000
     84      -7.4049      2.00000
     85      -7.4045      2.00000
     86      -7.4024      2.00000
     87      -7.3997      2.00000
     88      -7.3995      2.00000
     89      -7.2172      2.00000
     90      -7.2131      2.00000
     91      -7.2042      2.00000
     92      -7.2032      2.00000
     93      -7.2008      2.00000
     94      -7.1489      2.00000
     95      -6.2719      2.00000
     96      -6.2691      2.00000
     97      -6.2636      2.00000
     98      -6.2598      2.00000
     99      -6.2570      2.00000
    100      -6.2395      2.00000
    101      -5.8327      2.00000
    102      -5.8304      2.00000
    103      -4.1737      2.00000
    104      -4.1695      2.00000
    105      -4.1657      2.00000
    106      -4.1638      2.00000
    107      -4.1586      2.00000
    108      -4.1580      2.00000
    109      -1.1839      0.00000
    110      -1.1820      0.00000
    111      -1.1710      0.00000
    112      -1.1692      0.00000
    113      -1.1671      0.00000
    114      -1.1653      0.00000
    115       0.8027      0.00000
    116       0.8091      0.00000
    117       0.8139      0.00000
    118       0.8223      0.00000
    119       0.8239      0.00000
    120       0.8257      0.00000
    121       0.9572      0.00000
    122       1.5359      0.00000
    123       1.5510      0.00000
    124       1.6029      0.00000
    125       1.9567      0.00000
    126       2.0823      0.00000
    127       2.3420      0.00000
    128       2.3916      0.00000
    129       2.3972      0.00000
    130       2.4020      0.00000
    131       2.4816      0.00000
    132       2.6778      0.00000
    133       2.6810      0.00000
    134       2.6901      0.00000
    135       2.6917      0.00000
    136       2.6931      0.00000
    137       2.7005      0.00000
    138       2.8619      0.00000
    139       2.9657      0.00000
    140       3.0482      0.00000
    141       3.1218      0.00000
    142       3.1324      0.00000
    143       3.1336      0.00000
    144       3.1711      0.00000
    145       3.2620      0.00000
    146       3.2684      0.00000
    147       3.2904      0.00000
    148       3.2997      0.00000
    149       3.3468      0.00000
    150       3.3758      0.00000
    151       3.5510      0.00000
    152       4.5366      0.00000
    153       4.5894      0.00000
    154       4.6970      0.00000
    155       4.7999      0.00000
    156       5.0553      0.00000
    157       5.2034      0.00000
    158       5.2105      0.00000
    159       5.2108      0.00000
    160       5.2150      0.00000
    161       5.2190      0.00000
    162       5.2198      0.00000
    163       5.2229      0.00000
    164       5.2956      0.00000
    165       5.3654      0.00000
    166       5.5232      0.00000
    167       5.5403      0.00000
    168       5.6336      0.00000


--------------------------------------------------------------------------------------------------------


 soft charge-density along one line, spin component           1
         0         1         2         3         4         5         6         7         8         9
 total charge-density along one line
 
 pseudopotential strength for first ion, spin component:           1
 12.626  21.245  -0.000   0.000   0.000  -0.000   0.000   0.000
 21.245  35.746  -0.000   0.000   0.000  -0.000   0.000   0.000
 -0.000  -0.000  -3.230  -0.000   0.000  -5.784   0.000   0.000
  0.000   0.000  -0.000  -3.230  -0.000   0.000  -5.784  -0.000
  0.000   0.000   0.000  -0.000  -3.230   0.000  -0.000  -5.784
 -0.000  -0.000  -5.784   0.000   0.000 -10.337   0.000   0.000
  0.000   0.000   0.000  -5.784  -0.000   0.000 -10.335  -0.000
  0.000   0.000   0.000  -0.000  -5.784   0.000  -0.000 -10.337
 total augmentation occupancy for first ion, spin component:           1
 10.263  -3.894  -0.001  -0.002   0.001   0.000   0.001  -0.000
 -3.894   1.507   0.000   0.001  -0.000  -0.000  -0.000   0.000
 -0.001   0.000   8.468  -0.009   0.000  -3.024   0.004  -0.000
 -0.002   0.001  -0.009   4.015  -0.000   0.004  -1.207   0.000
  0.001  -0.000   0.000  -0.000   8.468  -0.000   0.000  -3.024
  0.000  -0.000  -3.024   0.004  -0.000   1.092  -0.001   0.000
  0.001  -0.000   0.004  -1.207   0.000  -0.001   0.368   0.000
 -0.000   0.000  -0.000   0.000  -3.024   0.000   0.000   1.092


------------------------ aborting loop because EDIFF is reached ----------------------------------------


    FORLOC:  cpu time    0.1061: real time    0.1069
    FORNL :  cpu time    2.9678: real time    2.9926
    FORCOR:  cpu time    1.2727: real time    1.2799
    OFIELD:  cpu time    0.0024: real time    0.0025
 WARNING: Using user supplied parameters
     VDW_A1 = 0.495
     VDW_A2 = 5.731
     VDW_S8 = 0.79
     because the xc functional is not supported. Required parameters not
     defined in the INCAR file will be replaced with PBE defaults ones.


 ---------------------------------------------------------------------------------------------

         DFTD3 V3.0 Rev 1        
 IVDW         = 12
 DF unknown   
 parameters
 VDW_S6       =    1.0000
 VDW_S8       =    0.7898
 VDW_A1       =    0.4948
 VDW_A2       =    5.7308
 k1-k3        =   16.0000    1.3333   -4.0000
 VDW_RADIUS   =   50.2022 A
 VDW_CNRADIUS =   21.1671 A
 Edisp (eV)   -1.79440

 E6    (eV) :    -1.3873
 E8    (eV) :    -0.4071
 % E8        : 22.69
    FORVDW:  cpu time    0.1537: real time    0.1550

 VOLUME and BASIS-vectors are now :
 -----------------------------------------------------------------------------
  energy-cutoff  :     1000.00
  volume of cell :     2631.08
      direct lattice vectors                 reciprocal lattice vectors
    12.325000000  0.000000000  0.000000000     0.081135903  0.046843835  0.000000000
    -6.162500000 10.673763102  0.000000000     0.000000000  0.093687670  0.000000000
     0.000000000  0.000000000 20.000000000     0.000000000  0.000000000  0.050000000

  length of vectors
    12.325000000 12.325000000 20.000000000     0.093687670  0.093687670  0.050000000


 FORCES acting on ions:
    Electron-Ion                     Ewald-Force                    Non-Local-Force
 -----------------------------------------------------------------------------------------------
   0.112E+02 0.983E+01 0.227E+02   -.112E+02 -.983E+01 -.227E+02   0.144E-01 -.588E-02 0.108E-01
   0.184E+02 0.914E+01 0.305E+02   -.185E+02 -.913E+01 -.305E+02   0.216E-01 -.133E-01 -.995E-02
   0.915E+01 0.233E+02 0.384E+02   -.914E+01 -.234E+02 -.385E+02   -.266E-02 0.480E-01 0.339E-01
   0.146E+02 0.214E+02 0.632E+02   -.147E+02 -.215E+02 -.633E+02   0.576E-01 0.241E-01 0.937E-01
   0.122E+02 0.289E+01 0.228E+02   -.122E+02 -.288E+01 -.228E+02   0.379E-02 -.178E-01 -.701E-02
   0.128E+02 -.218E+01 0.234E+02   -.128E+02 0.219E+01 -.233E+02   -.209E-01 -.387E-02 -.164E-01
   0.250E+02 0.102E+02 0.539E+02   -.250E+02 -.101E+02 -.539E+02   0.542E-01 -.656E-01 -.991E-02
   0.247E+02 -.834E+01 0.575E+02   -.247E+02 0.838E+01 -.574E+02   0.382E-02 -.306E-01 -.112E+00
   -.101E+02 0.216E+02 0.396E+02   0.102E+02 -.216E+02 -.396E+02   -.217E-01 -.639E-02 -.400E-01
   -.186E+02 0.159E+02 0.614E+02   0.187E+02 -.160E+02 -.614E+02   -.733E-01 0.412E-01 -.868E-01
   0.299E+01 -.264E+01 0.179E+02   -.298E+01 0.263E+01 -.179E+02   -.541E-02 0.401E-02 -.593E-02
   0.238E+01 -.193E+01 0.165E+02   -.237E+01 0.193E+01 -.165E+02   -.161E-01 0.689E-02 0.183E-02
   0.947E+01 -.227E+02 0.661E+02   -.957E+01 0.228E+02 -.660E+02   0.931E-01 -.225E-01 -.987E-01
   0.435E+01 -.236E+02 0.392E+02   -.438E+01 0.236E+02 -.392E+02   0.275E-01 -.489E-04 -.414E-01
   -.109E+02 0.686E+01 0.223E+02   0.109E+02 -.685E+01 -.223E+02   0.159E-01 -.861E-02 -.914E-02
   -.162E+02 0.457E+01 0.265E+02   0.162E+02 -.457E+01 -.265E+02   -.116E-02 0.112E-01 -.273E-01
   -.162E+01 -.666E+00 0.158E+02   0.163E+01 0.663E+00 -.158E+02   -.582E-02 0.539E-03 0.122E-02
   0.899E+00 0.599E+01 0.170E+02   -.893E+00 -.599E+01 -.170E+02   -.926E-02 0.419E-02 0.884E-02
   -.335E+01 -.193E+02 0.290E+02   0.332E+01 0.194E+02 -.290E+02   0.286E-01 -.605E-02 0.646E-02
   -.142E+01 -.929E+01 0.191E+02   0.141E+01 0.930E+01 -.191E+02   0.609E-02 -.591E-02 -.223E-02
   0.192E+02 -.835E+01 0.332E+02   -.192E+02 0.835E+01 -.332E+02   -.624E-02 -.589E-02 -.517E-01
   0.113E+02 -.979E+01 0.253E+02   -.113E+02 0.978E+01 -.252E+02   -.144E-01 0.175E-01 -.202E-01
   -.469E+01 0.106E+02 0.820E+02   0.477E+01 -.106E+02 -.821E+02   -.727E-01 0.568E-01 0.674E-01
   -.830E+01 -.168E+02 0.772E+02   0.825E+01 0.169E+02 -.773E+02   0.496E-01 -.702E-01 0.715E-01
   0.522E+01 -.231E+01 0.181E+02   -.520E+01 0.230E+01 -.181E+02   -.107E-01 0.230E-02 -.101E-01
   0.963E+00 0.468E+01 0.183E+02   -.954E+00 -.468E+01 -.183E+02   -.136E-01 0.647E-02 -.131E-02
   -.249E+02 0.287E+01 0.442E+02   0.249E+02 -.291E+01 -.442E+02   -.314E-02 0.298E-01 -.443E-01
   -.227E+02 -.972E+01 0.394E+02   0.227E+02 0.969E+01 -.394E+02   -.395E-01 0.339E-01 0.138E-01
   0.690E+01 -.141E+02 0.266E+02   -.691E+01 0.141E+02 -.266E+02   0.114E-01 0.100E-01 -.246E-01
   0.643E+00 -.520E+01 0.194E+02   -.654E+00 0.519E+01 -.194E+02   0.224E-02 0.977E-02 -.101E-01
   -.185E+02 -.200E+02 0.496E+02   0.186E+02 0.200E+02 -.497E+02   -.485E-01 -.308E-01 0.625E-01
   -.104E+02 -.190E+02 0.313E+02   0.104E+02 0.190E+02 -.313E+02   0.119E-03 -.284E-01 0.192E-01
   0.608E+00 0.250E+01 0.164E+02   -.614E+00 -.250E+01 -.164E+02   0.124E-01 -.891E-02 0.401E-02
   0.174E+01 0.253E+01 0.179E+02   -.174E+01 -.252E+01 -.179E+02   0.735E-03 -.389E-02 -.626E-02
   -.760E+01 0.939E+00 0.199E+02   0.759E+01 -.947E+00 -.199E+02   0.107E-01 0.204E-02 -.331E-02
   -.652E+01 -.260E+01 0.192E+02   0.652E+01 0.260E+01 -.192E+02   -.114E-01 0.893E-02 -.344E-02
   -.133E+02 -.695E+01 0.234E+02   0.133E+02 0.694E+01 -.234E+02   -.167E-01 0.430E-02 -.575E-03
   -.765E+01 -.621E+01 0.189E+02   0.766E+01 0.621E+01 -.189E+02   -.113E-01 0.338E-02 0.101E-01
   -.719E+01 -.941E+01 0.205E+02   0.720E+01 0.942E+01 -.205E+02   -.116E-01 -.767E-02 0.717E-02
   -.106E+01 -.223E+01 0.170E+02   0.105E+01 0.223E+01 -.170E+02   0.247E-02 -.219E-02 0.854E-02
   0.270E+01 0.645E+01 0.179E+02   -.270E+01 -.646E+01 -.179E+02   -.444E-02 0.101E-01 0.810E-02
   0.901E+01 0.141E+02 0.244E+02   -.903E+01 -.141E+02 -.245E+02   0.120E-01 0.125E-01 0.137E-01
   0.719E+00 0.115E+02 0.203E+02   -.708E+00 -.116E+02 -.203E+02   -.881E-02 0.917E-02 -.203E-02
   0.135E+00 0.218E+02 0.324E+02   -.103E+00 -.218E+02 -.324E+02   -.367E-01 0.118E-01 0.832E-02
   -.219E+01 0.436E+01 0.194E+02   0.220E+01 -.436E+01 -.194E+02   0.108E-02 -.801E-02 -.741E-02
   -.929E+01 0.118E+02 0.252E+02   0.929E+01 -.118E+02 -.252E+02   -.987E-02 -.240E-02 -.215E-01
   -.157E+01 -.441E+01 0.177E+02   0.156E+01 0.441E+01 -.177E+02   0.151E-01 -.203E-02 0.120E-02
   -.410E+01 0.167E+01 0.169E+02   0.408E+01 -.167E+01 -.169E+02   0.895E-02 -.913E-03 -.862E-02
   0.319E+00 -.274E+01 0.166E+02   -.321E+00 0.274E+01 -.166E+02   0.847E-02 -.370E-02 0.606E-02
   0.432E+01 0.317E+01 0.168E+02   -.433E+01 -.317E+01 -.168E+02   0.621E-02 0.289E-02 0.344E-02
   0.167E+00 -.113E+00 -.376E+03   -.153E+00 0.103E+00 0.376E+03   -.138E-01 0.726E-02 -.502E-01
   -.228E+03 0.155E+03 -.576E+03   0.279E+03 -.190E+03 0.579E+03   -.522E+02 0.355E+02 -.321E+01
   0.228E+03 -.155E+03 -.556E+03   -.279E+03 0.190E+03 0.553E+03   0.522E+02 -.355E+02 0.344E+01
 -----------------------------------------------------------------------------------------------
   0.364E-01 -.383E-02 0.534E-01   0.568E-13 0.568E-13 0.341E-12   -.366E-01 0.324E-02 -.424E-01
 
 
 POSITION                                       TOTAL-FORCE (eV/Angst)
 -----------------------------------------------------------------------------------
     11.98348      0.00342      0.01417         0.002425      0.000095     -0.001227
     -0.34154      1.42665      0.01100         0.001377      0.002193      0.000046
      2.12355      0.00315      0.01249         0.001887     -0.007596      0.003492
      2.12326      1.42653      0.00641        -0.002221      0.002798      0.007124
     10.75099      2.13819      0.01213         0.001331     -0.003917      0.001574
     -1.57382      3.56123      0.01110        -0.005069      0.006538      0.000172
      0.89078      2.13854      0.00548        -0.005540      0.003506      0.001839
      0.89099      3.56147      0.00181        -0.008197      0.008732     -0.010272
      4.58864      0.00346      0.01135         0.006821      0.005038     -0.000124
      4.58894      1.42623      0.00646         0.002147     -0.002464     -0.015573
      9.51854      4.27281      0.01369         0.008328     -0.007880      0.000204
     -2.80632      5.69591      0.01434        -0.009584      0.005055      0.001042
      2.12300      4.27302      0.00000        -0.005525      0.011071     -0.020147
      2.12335      5.69594      0.00581        -0.003783     -0.011693      0.001186
      7.05344      0.00333      0.01399         0.005195     -0.002574      0.001156
      7.05353      1.42635      0.01368        -0.005303      0.004977     -0.000890
      8.28610      6.40752      0.01601         0.004015     -0.002345     -0.000713
     -4.03885      7.83070      0.01636        -0.003203      0.003723     -0.000287
      3.35586      6.40753      0.01007         0.003406      0.000388      0.001399
      3.35599      7.83072      0.01320        -0.002563     -0.000788      0.000001
     -0.34146      4.27290      0.00723         0.012386     -0.008241      0.000166
     -0.34138      5.69591      0.00946        -0.006640      0.003507      0.002192
      3.35624      2.13791      0.00222         0.005874     -0.003508     -0.021593
      3.35573      3.56155      0.00139        -0.002091      0.004429     -0.009319
     -1.57395      6.40758      0.01311         0.011229     -0.003671     -0.000690
     -1.57385      7.83068      0.01438        -0.005399      0.004525      0.000205
      5.82093      2.13784      0.01033         0.000170     -0.008118     -0.001797
      5.82114      3.56097      0.01156        -0.000612      0.000122      0.003910
      0.89092      6.40755      0.00907         0.003239     -0.000523      0.001750
      0.89106      7.83068      0.01235        -0.009240     -0.000666      0.000237
      4.58871      4.27293      0.00850         0.001924     -0.003905      0.006357
      4.58852      5.69606      0.01149         0.000939      0.008891      0.000153
      9.51845      0.00337      0.01490         0.006378     -0.006323      0.000253
      9.51855      1.42644      0.01438        -0.004511      0.009888     -0.000444
      8.28593      2.13803      0.01453         0.003121     -0.006116      0.000721
      8.28613      3.56115      0.01464        -0.005214      0.001680      0.000330
      7.05356      4.27269      0.01457         0.002586     -0.000631      0.000389
      7.05362      5.69588      0.01553        -0.002988      0.000256     -0.000357
      5.82112      6.40755      0.01489        -0.001717      0.001057     -0.000416
      5.82102      7.83073      0.01579         0.000555      0.002114     -0.000497
      7.05363      8.54227      0.01631        -0.002117     -0.000712      0.000909
     -5.27149      9.96549      0.01495        -0.001218     -0.002007     -0.002330
     -2.80638      8.54234      0.01558         0.002422     -0.000498     -0.000733
     -2.80627      9.96553      0.01362        -0.004197      0.000725      0.000654
     -0.34149      8.54239      0.01378         0.006410     -0.001108      0.000465
     -0.34138      9.96550      0.01354        -0.006845      0.003684      0.001178
      2.12343      8.54232      0.01336         0.006887     -0.001403      0.001126
      2.12354      9.96544      0.01469        -0.008429      0.004489     -0.002219
      4.58846      8.54235      0.01505         0.005793     -0.004778      0.001026
      4.58853      9.96550      0.01517        -0.002761      0.004223      0.000488
      3.04930      2.68154      3.14980         0.000971     -0.002654     -0.019809
      4.02070      2.02068      3.21422        -1.396569      0.959499     -0.062690
      2.07767      3.34267      3.09035         1.403719     -0.969090      0.130384
 -----------------------------------------------------------------------------------
    total drift:                               -0.000280     -0.000595      0.011036


--------------------------------------------------------------------------------------------------------



  FREE ENERGIE OF THE ION-ELECTRON SYSTEM (eV)
  ---------------------------------------------------
  free  energy   TOTEN  =      -525.17580611 eV

  energy  without entropy=     -525.17580611  energy(sigma->0) =     -525.17580611
 


--------------------------------------------------------------------------------------------------------


    POTLOK:  cpu time    1.4350: real time    1.4434


--------------------------------------------------------------------------------------------------------


 writing wavefunctions
     LOOP+:  cpu time  748.2434: real time  754.5540
    4ORBIT:  cpu time    0.0000: real time    0.0000

 total amount of memory used by VASP MPI-rank0   556209. kBytes
=======================================================================

   base      :      30000. kBytes
   nonl-proj :     184518. kBytes
   fftplans  :      31725. kBytes
   grid      :     282516. kBytes
   one-center:        162. kBytes
   wavefun   :      27288. kBytes
 
  
  
 General timing and accounting informations for this job:
 ========================================================
  
                  Total CPU time used (sec):      786.418
                            User time (sec):      761.926
                          System time (sec):       24.492
                         Elapsed time (sec):      793.967
  
                   Maximum memory used (kb):     1027608.
                   Average memory used (kb):          N/A
  
                          Minor page faults:       209920
                          Major page faults:           99
                 Voluntary context switches:         3955
