 vasp.6.2.1 16May21 (build Nov 06 2021 14:46:37) complex                        
  
 executed on             LinuxIFC date 2025.04.16  20:17:52
 running on  112 total cores
 distrk:  each k-point on   56 cores,    2 groups
 distr:  one band on NCORE=   1 cores,   56 groups


--------------------------------------------------------------------------------------------------------


 INCAR:
   ALGO = Conjugate
   KPAR = 2
   NCORE = 32
   ISMEAR = 0
   SIGMA = 0.01
   PREC = Accurate
   EDIFF = 1E-7
   ENCUT = 1000
   ISIF = 0
   METAGGA = R2SCAN
   LASPH = .TRUE.
   IVDW = 12
   VDW_S8 = 0.7898
   VDW_A1 = 0.4948
   VDW_A2 = 5.7308
   SYMPREC = 1E-7

 POTCAR:    PAW_PBE C_h 06Feb2004                 
 POTCAR:    PAW_PBE O_h 06Feb2004                 
 -----------------------------------------------------------------------------
|                                                                             |
|           W    W    AA    RRRRR   N    N  II  N    N   GGGG   !!!           |
|           W    W   A  A   R    R  NN   N  II  NN   N  G    G  !!!           |
|           W    W  A    A  R    R  N N  N  II  N N  N  G       !!!           |
|           W WW W  AAAAAA  RRRRR   N  N N  II  N  N N  G  GGG   !            |
|           WW  WW  A    A  R   R   N   NN  II  N   NN  G    G                |
|           W    W  A    A  R    R  N    N  II  N    N   GGGG   !!!           |
|                                                                             |
|     The value NCORE = 32 specified in the INCAR file was overwritten,       |
|     because it was not compatible with the 56 processes available:          |
|     NCORE = 1                                                               |
|     was used instead, please check that this makes sense for your           |
|     machine.                                                                |
|                                                                             |
 -----------------------------------------------------------------------------

 -----------------------------------------------------------------------------
|                                                                             |
|           W    W    AA    RRRRR   N    N  II  N    N   GGGG   !!!           |
|           W    W   A  A   R    R  NN   N  II  NN   N  G    G  !!!           |
|           W    W  A    A  R    R  N N  N  II  N N  N  G       !!!           |
|           W WW W  AAAAAA  RRRRR   N  N N  II  N  N N  G  GGG   !            |
|           WW  WW  A    A  R   R   N   NN  II  N   NN  G    G                |
|           W    W  A    A  R    R  N    N  II  N    N   GGGG   !!!           |
|                                                                             |
|     For optimal performance we recommend to set                             |
|       NCORE = 2 up to number-of-cores-per-socket                            |
|     NCORE specifies how many cores store one orbital (NPAR=cpu/NCORE).      |
|     This setting can greatly improve the performance of VASP for DFT.       |
|     The default, NCORE=1 might be grossly inefficient on modern             |
|     multi-core architectures or massively parallel machines. Do your        |
|     own testing! More info at https://www.vasp.at/wiki/index.php/NCORE      |
|     Unfortunately you need to use the default for GW and RPA                |
|     calculations (for HF NCORE is supported but not extensively tested      |
|     yet).                                                                   |
|                                                                             |
 -----------------------------------------------------------------------------

 POTCAR:    PAW_PBE C_h 06Feb2004                 
   VRHFIN =C: s2p2                                                                                  
   LEXCH  = PE                                                                                      
   EATOM  =   147.1560 eV,   10.8157 Ry                                                             
                                                                                                    
   TITEL  = PAW_PBE C_h 06Feb2004                                                                   
   LULTRA =        F    use ultrasoft PP ?                                                          
   IUNSCR =        1    unscreen: 0-lin 1-nonlin 2-no                                               
   RPACOR =    0.800    partial core radius                                                         
   POMASS =   12.011; ZVAL   =    4.000    mass and valenz                                          
   RCORE  =    1.100    outmost cutoff radius                                                       
   RWIGS  =    1.630; RWIGS  =    0.863    wigner-seitz radius (au A)                               
   ENMAX  =  700.000; ENMIN  =  500.000 eV                                                          
   ICORE  =        2    local potential                                                             
   LCOR   =        T    correct aug charges                                                         
   LPAW   =        T    paw PP                                                                      
   EAUG   =  946.768                                                                                
   DEXC   =    0.000                                                                                
   RMAX   =    1.128    core radius for proj-oper                                                   
   RAUG   =    1.300    factor for augmentation sphere                                              
   RDEP   =    1.162    radius for radial grids                                                     
   RDEPT  =    1.088    core radius for aug-charge                                                  
                                                                                                    
   Atomic configuration                                                                             
    4 entries                                                                                       
     n  l   j            E        occ.                                                              
     1  0  0.50      -273.3789   2.0000                                                             
     2  0  0.50       -13.7508   2.0000                                                             
     2  1  0.50        -5.2854   2.0000                                                             
     3  2  1.50        -5.4423   0.0000                                                             
   Description                                                                                      
     l       E           TYP  RCUT    TYP  RCUT                                                     
     0    -13.7508458     23  1.100                                                                 
     0     -8.2022199     23  1.100                                                                 
     1     -5.2854383     23  1.100                                                                 
     1      1.1560700     23  1.100                                                                 
     2     -5.4423304      7  1.100                                                                 
  local pseudopotential read in
  partial core-charges read in
  partial kinetic energy density read in
  atomic valenz-charges read in
  non local Contribution for L=           0  read in
    real space projection operators read in
  non local Contribution for L=           0  read in
    real space projection operators read in
  non local Contribution for L=           1  read in
    real space projection operators read in
  non local Contribution for L=           1  read in
    real space projection operators read in
    PAW grid and wavefunctions read in
 
   number of l-projection  operators is LMAX  =           4
   number of lm-projection operators is LMMAX =           8
 
 POTCAR:    PAW_PBE O_h 06Feb2004                 
   VRHFIN =O: s2p4                                                                                  
   LEXCH  = PE                                                                                      
   EATOM  =   432.3788 eV,   31.7789 Ry                                                             
                                                                                                    
   TITEL  = PAW_PBE O_h 06Feb2004                                                                   
   LULTRA =        F    use ultrasoft PP ?                                                          
   IUNSCR =        1    unscreen: 0-lin 1-nonlin 2-no                                               
   RPACOR =    0.800    partial core radius                                                         
   POMASS =   16.000; ZVAL   =    6.000    mass and valenz                                          
   RCORE  =    1.100    outmost cutoff radius                                                       
   RWIGS  =    1.400; RWIGS  =    0.741    wigner-seitz radius (au A)                               
   ENMAX  =  700.000; ENMIN  =  500.000 eV                                                          
   ICORE  =        2    local potential                                                             
   LCOR   =        T    correct aug charges                                                         
   LPAW   =        T    paw PP                                                                      
   EAUG   =  888.804                                                                                
   DEXC   =    0.000                                                                                
   RMAX   =    1.128    core radius for proj-oper                                                   
   RAUG   =    1.300    factor for augmentation sphere                                              
   RDEP   =    1.125    radius for radial grids                                                     
   RDEPT  =    1.088    core radius for aug-charge                                                  
                                                                                                    
   Atomic configuration                                                                             
    4 entries                                                                                       
     n  l   j            E        occ.                                                              
     1  0  0.50      -514.6923   2.0000                                                             
     2  0  0.50       -23.9615   2.0000                                                             
     2  1  0.50        -9.0305   4.0000                                                             
     3  2  1.50        -9.5241   0.0000                                                             
   Description                                                                                      
     l       E           TYP  RCUT    TYP  RCUT                                                     
     0    -23.9615319     23  1.100                                                                 
     0    -25.3221145     23  1.100                                                                 
     1     -9.0304911     23  1.100                                                                 
     1     -5.4802209     23  1.100                                                                 
     2     -9.5240782      7  1.100                                                                 
  local pseudopotential read in
  partial core-charges read in
  partial kinetic energy density read in
  atomic valenz-charges read in
  non local Contribution for L=           0  read in
    real space projection operators read in
  non local Contribution for L=           0  read in
    real space projection operators read in
  non local Contribution for L=           1  read in
    real space projection operators read in
  non local Contribution for L=           1  read in
    real space projection operators read in
    PAW grid and wavefunctions read in
 
   number of l-projection  operators is LMAX  =           4
   number of lm-projection operators is LMMAX =           8
 
 -----------------------------------------------------------------------------
|                                                                             |
|               ----> ADVICE to this user running VASP <----                  |
|                                                                             |
|     You have a (more or less) 'large supercell' and for larger cells it     |
|     might be more efficient to use real-space projection operators.         |
|     Therefore, try LREAL= Auto in the INCAR file.                           |
|     Mind: For very accurate calculation, you might also keep the            |
|     reciprocal projection scheme (i.e. LREAL=.FALSE.).                      |
|                                                                             |
 -----------------------------------------------------------------------------

  PAW_PBE C_h 06Feb2004                 :
 energy of atom  1       EATOM= -147.1560
 kinetic energy error for atom=    0.0031 (will be added to EATOM!!)
  PAW_PBE O_h 06Feb2004                 :
 energy of atom  2       EATOM= -432.3788
 kinetic energy error for atom=    0.0171 (will be added to EATOM!!)
 
 
 POSCAR:  C  O
  positions in cartesian coordinates
  No initial velocities read in

 METAGGA = R2SCA    LMAXTAU =  6    LMIXTAU =  F

 exchange correlation table for  LEXCH =        8
   RHO(1)=    0.500       N(1)  =     2000
   RHO(2)=  100.500       N(2)  =     4000
 


--------------------------------------------------------------------------------------------------------


 ion  position               nearest neighbor table
   1  0.972  0.000  0.001-  50 1.42   2 1.42  42 1.42
   2  0.039  0.134  0.000-   5 1.42   7 1.42   1 1.42
   3  0.172  0.000  0.000-  42 1.42  44 1.42   4 1.42
   4  0.239  0.134  0.000-   7 1.42   3 1.42  23 1.42
   5  0.972  0.200  0.000-   6 1.42   2 1.42  34 1.42
   6  0.039  0.334  0.000-   5 1.42  21 1.42  11 1.42
   7  0.172  0.200  0.000-   8 1.42   2 1.42   4 1.42
   8  0.239  0.334  0.000-  13 1.42   7 1.42  21 1.42
   9  0.372  0.000  0.000-  10 1.42  44 1.42  46 1.42
  10  0.439  0.134  0.000-  27 1.42   9 1.42  23 1.42
  11  0.972  0.400  0.001-  12 1.42  36 1.42   6 1.42
  12  0.039  0.534  0.001-  25 1.42  11 1.42  17 1.42
  13  0.372  0.400  0.000-   8 1.42  14 1.42  24 1.42
  14  0.439  0.534  0.000-  13 1.42  29 1.42  19 1.42
  15  0.572  0.000  0.001-  46 1.42  16 1.42  48 1.42
  16  0.639  0.134  0.001-  15 1.42  35 1.42  27 1.42
  17  0.972  0.600  0.001-  38 1.42  18 1.42  12 1.42
  18  0.039  0.734  0.001-  43 1.42  41 1.42  17 1.42
  19  0.572  0.600  0.000-  14 1.42  20 1.42  32 1.42
  20  0.639  0.734  0.001-  49 1.42  19 1.42  47 1.42
  21  0.172  0.400  0.000-  22 1.42   8 1.42   6 1.42
  22  0.239  0.534  0.000-  21 1.42  29 1.42  25 1.42
  23  0.372  0.200  0.000-  10 1.42   4 1.42  24 1.42
  24  0.439  0.334  0.000-  13 1.42  31 1.42  23 1.42
  25  0.172  0.600  0.001-  26 1.42  12 1.42  22 1.42
  26  0.239  0.734  0.001-  25 1.42  45 1.42  43 1.42
  27  0.572  0.200  0.000-  10 1.42  28 1.42  16 1.42
  28  0.639  0.334  0.000-  27 1.42  37 1.42  31 1.42
  29  0.372  0.600  0.000-  22 1.42  14 1.42  30 1.42
  30  0.439  0.734  0.000-  47 1.42  29 1.42  45 1.42
  31  0.572  0.400  0.000-  32 1.42  28 1.42  24 1.42
  32  0.639  0.534  0.000-  31 1.42  39 1.42  19 1.42
  33  0.772  0.000  0.001-  34 1.42  48 1.42  50 1.42
  34  0.839  0.134  0.001-  33 1.42   5 1.42  35 1.42
  35  0.772  0.200  0.001-  36 1.42  16 1.42  34 1.42
  36  0.839  0.334  0.001-  35 1.42  11 1.42  37 1.42
  37  0.772  0.400  0.001-  28 1.42  38 1.42  36 1.42
  38  0.839  0.534  0.001-  17 1.42  37 1.42  39 1.42
  39  0.772  0.600  0.001-  40 1.42  38 1.42  32 1.42
  40  0.839  0.734  0.001-  39 1.42  49 1.42  41 1.42
  41  0.972  0.800  0.001-  18 1.42  42 1.42  40 1.42
  42  0.039  0.934  0.001-   3 1.42  41 1.42   1 1.42
  43  0.172  0.800  0.001-  18 1.42  44 1.42  26 1.42
  44  0.239  0.934  0.001-   9 1.42  43 1.42   3 1.42
  45  0.372  0.800  0.001-  26 1.42  46 1.42  30 1.42
  46  0.439  0.934  0.001-  15 1.42  45 1.42   9 1.42
  47  0.572  0.800  0.001-  30 1.42  48 1.42  20 1.42
  48  0.639  0.934  0.001-  47 1.42  33 1.42  15 1.42
  49  0.772  0.800  0.001-  50 1.42  20 1.42  40 1.42
  50  0.839  0.934  0.001-  49 1.42   1 1.42  33 1.42
  51  0.373  0.251  0.200-  52 1.18  53 1.18
  52  0.421  0.189  0.203-  51 1.18
  53  0.325  0.313  0.198-  51 1.18
 
  LATTYP: Found a hexagonal cell.
 ALAT       =    12.3250000000
 C/A-ratio  =     2.0283975659
  
  Lattice vectors:
  
 A1 = (  12.3250000000,   0.0000000000,   0.0000000000)
 A2 = (  -6.1625000000,  10.6737631016,   0.0000000000)
 A3 = (   0.0000000000,   0.0000000000,  25.0000000000)


Analysis of symmetry for initial positions (statically):
=====================================================================
 Subroutine PRICEL returns:
 Original cell was already a primitive cell.
 

 Routine SETGRP: Setting up the symmetry group for a 
 hexagonal supercell.


 Subroutine GETGRP returns: Found  1 space group operations
 (whereof  1 operations were pure point group operations)
 out of a pool of 24 trial point group operations.


The static configuration has the point symmetry C_1 .


Analysis of symmetry for dynamics (positions and initial velocities):
=====================================================================
 Subroutine PRICEL returns:
 Original cell was already a primitive cell.
 

 Routine SETGRP: Setting up the symmetry group for a 
 hexagonal supercell.


 Subroutine GETGRP returns: Found  1 space group operations
 (whereof  1 operations were pure point group operations)
 out of a pool of 24 trial point group operations.


The dynamic configuration has the point symmetry C_1 .


 Subroutine INISYM returns: Found  1 space group operations
 (whereof  1 operations are pure point group operations),
 and found     1 'primitive' translations


----------------------------------------------------------------------------------------

                                     Primitive cell                                     

  volume of cell :    3288.8533

  direct lattice vectors                    reciprocal lattice vectors
    12.325000000  0.000000000  0.000000000     0.081135903  0.046843835  0.000000000
    -6.162500000 10.673763102  0.000000000     0.000000000  0.093687670  0.000000000
     0.000000000  0.000000000 25.000000000     0.000000000  0.000000000  0.040000000

  length of vectors
    12.325000000 12.325000000 25.000000000     0.093687670  0.093687670  0.040000000

  position of ions in fractional coordinates (direct lattice)
     0.972450841  0.000320818  0.000566711
     0.039118382  0.133659505  0.000440173
     0.172443627  0.000295449  0.000499628
     0.239096278  0.133647917  0.000256468
     0.972452058  0.200322012  0.000485219
     0.039128360  0.333643771  0.000444150
     0.172451764  0.200354552  0.000219167
     0.239124359  0.333665720  0.000072260
     0.372465565  0.000324403  0.000453913
     0.439137473  0.133619939  0.000258338
     0.972449824  0.400309362  0.000547611
     0.039124981  0.533636789  0.000573410
     0.372416176  0.400329481  0.000000000
     0.439099602  0.533638981  0.000232414
     0.572443676  0.000312125  0.000559580
     0.639110207  0.133631751  0.000547275
     0.972452703  0.600305653  0.000640289
     0.039124495  0.733640359  0.000654513
     0.572433471  0.600306242  0.000402895
     0.639111888  0.733641879  0.000527905
     0.172454630  0.400318228  0.000289045
     0.239120185  0.533636548  0.000378509
     0.372459750  0.200295993  0.000088997
     0.439107096  0.333673419  0.000055762
     0.172452155  0.600311506  0.000524340
     0.239123371  0.733638574  0.000575129
     0.572431082  0.200289171  0.000413296
     0.639112773  0.333618630  0.000462376
     0.372439808  0.600308022  0.000362844
     0.439116090  0.733637858  0.000494190
     0.572469358  0.400320504  0.000339918
     0.639119408  0.533650873  0.000459610
     0.772445723  0.000315427  0.000596161
     0.839116277  0.133640203  0.000575306
     0.772440513  0.200307432  0.000581033
     0.839120241  0.333635728  0.000585467
     0.772446320  0.400298367  0.000582978
     0.839118980  0.533633964  0.000621100
     0.772456143  0.600308173  0.000595712
     0.839115033  0.733643180  0.000631512
     0.972455313  0.800305582  0.000652233
     0.039114714  0.933643289  0.000598051
     0.172457971  0.800312211  0.000623372
     0.239134551  0.933647193  0.000544850
     0.372451396  0.800316674  0.000551399
     0.439124489  0.933644769  0.000541430
     0.572441101  0.800310054  0.000534535
     0.639115067  0.933638985  0.000587644
     0.772445098  0.800313187  0.000602062
     0.839116614  0.933644338  0.000606830
     0.373021009  0.251226878  0.200000000
     0.420879805  0.189313152  0.202576874
     0.325156981  0.313167186  0.197621805

  ion indices of the primitive-cell ions
   primitive index   ion index
                 1           1
                 2           2
                 3           3
                 4           4
                 5           5
                 6           6
                 7           7
                 8           8
                 9           9
                10          10
                11          11
                12          12
                13          13
                14          14
                15          15
                16          16
                17          17
                18          18
                19          19
                20          20
                21          21
                22          22
                23          23
                24          24
                25          25
                26          26
                27          27
                28          28
                29          29
                30          30
                31          31
                32          32
                33          33
                34          34
                35          35
                36          36
                37          37
                38          38
                39          39
                40          40
                41          41
                42          42
                43          43
                44          44
                45          45
                46          46
                47          47
                48          48
                49          49
                50          50
                51          51
                52          52
                53          53

----------------------------------------------------------------------------------------

 
 
 KPOINTS: auto                                    

Automatic generation of k-mesh.
 Grid dimensions read from file:
 generate k-points for:    1    1    1

 Generating k-lattice:

  Cartesian coordinates                     Fractional coordinates (reciprocal lattice)
     0.081135903  0.046843835  0.000000000     1.000000000 -0.000000000  0.000000000
     0.000000000  0.093687670  0.000000000     0.000000000  1.000000000  0.000000000
     0.000000000  0.000000000  0.040000000     0.000000000  0.000000000  1.000000000

  Length of vectors
     0.093687670  0.093687670  0.040000000

  Shift w.r.t. Gamma in fractional coordinates (k-lattice)
     0.000000000  0.000000000  0.000000000

 
 Subroutine IBZKPT returns following result:
 ===========================================
 
 Found      1 irreducible k-points:
 
 Following reciprocal coordinates:
            Coordinates               Weight
  0.000000  0.000000  0.000000      1.000000
 
 Following cartesian coordinates:
            Coordinates               Weight
  0.000000  0.000000  0.000000      1.000000
 


--------------------------------------------------------------------------------------------------------




 Dimension of arrays:
   k-points           NKPTS =      1   k-points in BZ     NKDIM =      1   number of bands    NBANDS=    168
   number of dos      NEDOS =    301   number of ions     NIONS =     53
   non local maximal  LDIM  =      4   non local SUM 2l+1 LMDIM =      8
   total plane-waves  NPLWV = ******
   max r-space proj   IRMAX =      1   max aug-charges    IRDMAX=  10008
   dimension x,y,z NGX =   128 NGY =  128 NGZ =  270
   dimension x,y,z NGXF=   256 NGYF=  256 NGZF=  540
   support grid    NGXF=   256 NGYF=  256 NGZF=  540
   ions per type =              51   2
   NGX,Y,Z   is equivalent  to a cutoff of  17.27, 17.27, 17.95 a.u.
   NGXF,Y,Z  is equivalent  to a cutoff of  34.53, 34.53, 35.91 a.u.

 SYSTEM =  unknown system                          
 POSCAR =   C  O                                   

 Startparameter for this run:
   NWRITE =      2    write-flag & timer
   PREC   = accura    normal or accurate (medium, high low for compatibility)
   ISTART =      0    job   : 0-new  1-cont  2-samecut
   ICHARG =      2    charge: 1-file 2-atom 10-const
   ISPIN  =      1    spin polarized calculation?
   LNONCOLLINEAR =      F non collinear calculations
   LSORBIT =      F    spin-orbit coupling
   INIWAV =      1    electr: 0-lowe 1-rand  2-diag
   LASPH  =      T    aspherical Exc in radial PAW
 Electronic Relaxation 1
   ENCUT  = 1000.0 eV  73.50 Ry    8.57 a.u.  31.78 31.78 64.46*2*pi/ulx,y,z
   ENINI  = 1000.0     initial cutoff
   ENAUG  =  946.8 eV  augmentation charge cutoff
   NELM   =     60;   NELMIN=  2; NELMDL= -5     # of ELM steps 
   EDIFF  = 0.1E-06   stopping-criterion for ELM
   LREAL  =      F    real-space projection
   NLSPLINE    = F    spline interpolate recip. space projectors
   LCOMPAT=      F    compatible to vasp.4.4
   GGA_COMPAT  = T    GGA compatible to vasp.4.4-vasp.4.6
   LMAXPAW     = -100 max onsite density
   LMAXMIX     =    2 max onsite mixed and CHGCAR
   VOSKOWN=      0    Vosko Wilk Nusair interpolation
   ROPT   =    0.00000   0.00000
 Ionic relaxation
   EDIFFG = 0.1E-05   stopping-criterion for IOM
   NSW    =      0    number of steps for IOM
   NBLOCK =      1;   KBLOCK =      1    inner block; outer block 
   IBRION =     -1    ionic relax: 0-MD 1-quasi-New 2-CG
   NFREE  =      0    steps in history (QN), initial steepest desc. (CG)
   ISIF   =      0    stress and relaxation
   IWAVPR =     10    prediction:  0-non 1-charg 2-wave 3-comb
   ISYM   =      2    0-nonsym 1-usesym 2-fastsym
   LCORR  =      T    Harris-Foulkes like correction to forces

   POTIM  = 0.5000    time-step for ionic-motion
   TEIN   =    0.0    initial temperature
   TEBEG  =    0.0;   TEEND  =   0.0 temperature during run
   SMASS  =  -3.00    Nose mass-parameter (am)
   estimated Nose-frequenzy (Omega)   =  0.10E-29 period in steps = 0.13E+47 mass=  -0.347E-26a.u.
   SCALEE = 1.0000    scale energy and forces
   NPACO  =    256;   APACO  = 16.0  distance and # of slots for P.C.
   PSTRESS=    0.0 pullay stress

  Mass of Ions in am
   POMASS =  12.01 16.00
  Ionic Valenz
   ZVAL   =   4.00  6.00
  Atomic Wigner-Seitz radii
   RWIGS  =  -1.00 -1.00
  virtual crystal weights 
   VCA    =   1.00  1.00
   NELECT =     216.0000    total number of electrons
   NUPDOWN=      -1.0000    fix difference up-down

 DOS related values:
   EMIN   =  10.00;   EMAX   =-10.00  energy-range for DOS
   EFERMI =   0.00
   ISMEAR =     0;   SIGMA  =   0.01  broadening in eV -4-tet -1-fermi 0-gaus

 Electronic relaxation 2 (details)
   IALGO  =     58    algorithm
   LDIAG  =      T    sub-space diagonalisation (order eigenvalues)
   LSUBROT=      F    optimize rotation matrix (better conditioning)
   TURBO    =      0    0=normal 1=particle mesh
   IRESTART =      0    0=no restart 2=restart with 2 vectors
   NREBOOT  =      0    no. of reboots
   NMIN     =      0    reboot dimension
   EREF     =   0.00    reference energy to select bands
   IMIX   =      4    mixing-type and parameters
     AMIX     =   0.40;   BMIX     =  1.00
     AMIX_MAG =   1.60;   BMIX_MAG =  1.00
     AMIN     =   0.10
     WC   =   100.;   INIMIX=   1;  MIXPRE=   1;  MAXMIX= -45

 Intra band minimization:
   WEIMIN = 0.0000     energy-eigenvalue tresh-hold
   EBREAK =  0.15E-09  absolut break condition
   DEPER  =   0.30     relativ break condition  

   TIME   =   0.40     timestep for ELM

  volume/ion in A,a.u.               =      62.05       418.76
  Fermi-wavevector in a.u.,A,eV,Ry     =   0.660508  1.248179  5.935820  0.436270
  Thomas-Fermi vector in A             =   1.732977
 
 Write flags
   LWAVE        =      T    write WAVECAR
   LDOWNSAMPLE  =      F    k-point downsampling of WAVECAR
   LCHARG       =      T    write CHGCAR
   LVTOT        =      F    write LOCPOT, total local potential
   LVHAR        =      F    write LOCPOT, Hartree potential only
   LELF         =      F    write electronic localiz. function (ELF)
   LORBIT       =      0    0 simple, 1 ext, 2 COOP (PROOUT), +10 PAW based schemes


 Dipole corrections
   LMONO  =      F    monopole corrections only (constant potential shift)
   LDIPOL =      F    correct potential (dipole corrections)
   IDIPOL =      0    1-x, 2-y, 3-z, 4-all directions 
   EPSILON=  1.0000000 bulk dielectric constant

 Exchange correlation treatment:
   GGA     =    --    GGA type
   LEXCH   =     8    internal setting for exchange type
   VOSKOWN=      0    Vosko Wilk Nusair interpolation
   LHFCALC =     F    Hartree Fock is set to
   LHFONE  =     F    Hartree Fock one center treatment
   AEXX    =    0.0000 exact exchange contribution

 Linear response parameters
   LEPSILON=     F    determine dielectric tensor
   LRPA    =     F    only Hartree local field effects (RPA)
   LNABLA  =     F    use nabla operator in PAW spheres
   LVEL    =     F    velocity operator in full k-point grid
   LINTERFAST=   F  fast interpolation
   KINTER  =     0    interpolate to denser k-point grid
   CSHIFT  =0.1000    complex shift for real part using Kramers Kronig
   OMEGAMAX=  -1.0    maximum frequency
   DEG_THRESHOLD= 0.2000000E-02 threshold for treating states as degnerate
   RTIME   =   -0.100 relaxation time in fs
  (WPLASMAI=    0.000 imaginary part of plasma frequency in eV, 0.658/RTIME)
   DFIELD  = 0.0000000 0.0000000 0.0000000 field for delta impulse in time
 
 Orbital magnetization related:
   ORBITALMAG=     F  switch on orbital magnetization
   LCHIMAG   =     F  perturbation theory with respect to B field
   DQ        =  0.001000  dq finite difference perturbation B field
   LLRAUG    =     F  two centre corrections for induced B field



--------------------------------------------------------------------------------------------------------


 Static calculation
 charge density and potential will be updated during run
 non-spin polarized calculation
 Conjugate gradient for all bands (Freysoldt, et al. PRB 79, 241103 (2009))
 preconditioned conjugated gradient                                        
 perform sub-space diagonalisation
    before iterative eigenvector-optimisation
 modified Broyden-mixing scheme, WC =      100.0
 initial mixing is a Kerker type mixing with AMIX =  0.4000 and BMIX =      1.0000
 Hartree-type preconditioning will be used
 using additional bands           60
 reciprocal scheme for non local part
 use partial core corrections
 no Harris-corrections to forces 
 use gradient corrections 
 use of overlap-Matrix (Vanderbilt PP)
 Gauss-broadening in eV      SIGMA  =   0.01


--------------------------------------------------------------------------------------------------------


  energy-cutoff  :     1000.00
  volume of cell :     3288.85
      direct lattice vectors                 reciprocal lattice vectors
    12.325000000  0.000000000  0.000000000     0.081135903  0.046843835  0.000000000
    -6.162500000 10.673763102  0.000000000     0.000000000  0.093687670  0.000000000
     0.000000000  0.000000000 25.000000000     0.000000000  0.000000000  0.040000000

  length of vectors
    12.325000000 12.325000000 25.000000000     0.093687670  0.093687670  0.040000000


 
 k-points in units of 2pi/SCALE and weight: auto                                    
   0.00000000  0.00000000  0.00000000       1.000
 
 k-points in reciprocal lattice and weights: auto                                    
   0.00000000  0.00000000  0.00000000       1.000
 
 position of ions in fractional coordinates (direct lattice) 
   0.97245084  0.00032082  0.00056671
   0.03911838  0.13365950  0.00044017
   0.17244363  0.00029545  0.00049963
   0.23909628  0.13364792  0.00025647
   0.97245206  0.20032201  0.00048522
   0.03912836  0.33364377  0.00044415
   0.17245176  0.20035455  0.00021917
   0.23912436  0.33366572  0.00007226
   0.37246557  0.00032440  0.00045391
   0.43913747  0.13361994  0.00025834
   0.97244982  0.40030936  0.00054761
   0.03912498  0.53363679  0.00057341
   0.37241618  0.40032948  0.00000000
   0.43909960  0.53363898  0.00023241
   0.57244368  0.00031213  0.00055958
   0.63911021  0.13363175  0.00054727
   0.97245270  0.60030565  0.00064029
   0.03912449  0.73364036  0.00065451
   0.57243347  0.60030624  0.00040289
   0.63911189  0.73364188  0.00052791
   0.17245463  0.40031823  0.00028904
   0.23912018  0.53363655  0.00037851
   0.37245975  0.20029599  0.00008900
   0.43910710  0.33367342  0.00005576
   0.17245216  0.60031151  0.00052434
   0.23912337  0.73363857  0.00057513
   0.57243108  0.20028917  0.00041330
   0.63911277  0.33361863  0.00046238
   0.37243981  0.60030802  0.00036284
   0.43911609  0.73363786  0.00049419
   0.57246936  0.40032050  0.00033992
   0.63911941  0.53365087  0.00045961
   0.77244572  0.00031543  0.00059616
   0.83911628  0.13364020  0.00057531
   0.77244051  0.20030743  0.00058103
   0.83912024  0.33363573  0.00058547
   0.77244632  0.40029837  0.00058298
   0.83911898  0.53363396  0.00062110
   0.77245614  0.60030817  0.00059571
   0.83911503  0.73364318  0.00063151
   0.97245531  0.80030558  0.00065223
   0.03911471  0.93364329  0.00059805
   0.17245797  0.80031221  0.00062337
   0.23913455  0.93364719  0.00054485
   0.37245140  0.80031667  0.00055140
   0.43912449  0.93364477  0.00054143
   0.57244110  0.80031005  0.00053453
   0.63911507  0.93363899  0.00058764
   0.77244510  0.80031319  0.00060206
   0.83911661  0.93364434  0.00060683
   0.37302101  0.25122688  0.20000000
   0.42087980  0.18931315  0.20257687
   0.32515698  0.31316719  0.19762181
 
 position of ions in cartesian coordinates  (Angst):
  11.98347958  0.00342433  0.01416777
  -0.34154264  1.42664989  0.01100432
   2.12354700  0.00315355  0.01249070
   2.12325634  1.42652621  0.00641170
  10.75098721  2.13818970  0.01213047
  -1.57382270  3.56123457  0.01110375
   0.89078307  2.13853702  0.00547917
   0.89099273  3.56146885  0.00180651
   4.58863896  0.00346260  0.01134782
   4.58893648  1.42622757  0.00645846
   9.51853763  4.27280730  0.01369027
  -2.80632132  5.69591267  0.01433526
   2.12299894  4.27302204  0.00000000
   2.12335237  5.69593607  0.00581036
   7.05344483  0.00333155  0.01398950
   7.05352764  1.42635365  0.01368187
   8.28609598  6.40752033  0.01600723
  -4.03884931  7.83070339  0.01636283
   3.35585531  6.40752662  0.01007237
   3.35598594  7.83071962  0.01319763
  -0.34145776  4.27290193  0.00722612
  -0.34137895  5.69591010  0.00946273
   3.35624236  2.13791198  0.00222492
   3.35573251  3.56155103  0.00139405
  -1.57394684  6.40758280  0.01310850
  -1.57385216  7.83068434  0.01437823
   5.82093107  2.13783916  0.01033241
   5.82114012  3.56096622  0.01155939
   0.89092245  6.40754561  0.00907111
   0.89106251  7.83067670  0.01235474
   4.58870974  4.27292622  0.00849795
   4.58852320  5.69606300  0.01149026
   9.51844972  0.00336679  0.01490402
   9.51855036  1.42644387  0.01438264
   8.28593477  2.13803408  0.01452582
   8.28612680  3.56114872  0.01463668
   7.05356221  4.27268994  0.01457444
   7.05362213  5.69588251  0.01552751
   5.82112285  6.40754723  0.01489279
   5.82101669  7.83073350  0.01578780
   7.05362858  8.54227219  0.01630582
  -5.27148792  9.96548729  0.01495127
  -2.80637951  8.54234295  0.01558431
  -2.80626749  9.96552896  0.01362126
  -0.34148805  8.54239058  0.01378498
  -0.34137657  9.96550309  0.01353576
   2.12342586  8.54231992  0.01336337
   2.12354296  9.96544135  0.01469111
   4.58845581  8.54235337  0.01505154
   4.58852904  9.96549848  0.01517076
   3.04929830  2.68153618  5.00000000
   4.02070129  2.02068374  5.06442186
   2.07766701  3.34267235  4.94054513
 


--------------------------------------------------------------------------------------------------------


 k-point   1 :   0.0000 0.0000 0.0000  plane waves:  236157

 maximum and minimum number of plane-waves per node :    236157   236157

 maximum number of plane-waves:    236157
 maximum index in each direction: 
   IXMAX=   31   IYMAX=   31   IZMAX=   64
   IXMIN=  -31   IYMIN=  -31   IZMIN=  -64


 serial   3D FFT for wavefunctions
 parallel 3D FFT for charge:
    minimum data exchange during FFTs selected (reduces bandwidth)


 total amount of memory used by VASP MPI-rank0   698619. kBytes
=======================================================================

   base      :      30000. kBytes
   nonl-proj :     230539. kBytes
   fftplans  :      40716. kBytes
   grid      :     363125. kBytes
   one-center:        162. kBytes
   wavefun   :      34077. kBytes
 
     INWAV:  cpu time    0.0000: real time    0.0000
 Broyden mixing: mesh for mixing (old mesh)
   NGX = 63   NGY = 63   NGZ =129
  (NGX  =256   NGY  =256   NGZ  =540)
  gives a total of 512001 points

 initial charge density was supplied:
 charge density of overlapping atoms calculated
 number of electron     216.0000000 magnetization 
 keeping initial charge density in first step


--------------------------------------------------------------------------------------------------------


 Maximum index for augmentation-charges          471 (set IRDMAX)


--------------------------------------------------------------------------------------------------------


 First call to EWALD:  gamma=   0.119
 Maximum number of real-space cells 4x 4x 2
 Maximum number of reciprocal cells 2x 2x 4

    FEWALD:  cpu time    0.0023: real time    0.0023


--------------------------------------- Iteration      1(   1)  ---------------------------------------


    POTLOK:  cpu time    1.7309: real time    1.7434
    SETDIJ:  cpu time    0.2132: real time    0.2141
    TRIAL :  cpu time   28.1627: real time   28.3844
    CORREC:  cpu time    0.0011: real time    0.0012
    --------------------------------------------
      LOOP:  cpu time   30.1203: real time   30.3657

 eigenvalue-minimisations  :   336
 total energy-change (2. order) : 0.2538955E+04  (-0.1080613E+05)
 number of electron     216.0000000 magnetization 
 augmentation part      216.0000000 magnetization 

 Free energy of the ion-electron system (eV)
  ---------------------------------------------------
  alpha Z        PSCENC =        47.94900195
  Ewald energy   TEWEN  =     44792.55775787
  -Hartree energ DENC   =    -50861.72206340
  -exchange      EXHF   =         0.00000000
  -V(xc)+E(xc)   XCENC  =       605.06695931
  PAW double counting   =      6340.10990386    -6200.63067283
  entropy T*S    EENTRO =        -0.00000592
  eigenvalues    EBANDS =      -553.89915494
  atomic energy  EATOM  =      8369.52358910
  ---------------------------------------------------
  free energy    TOTEN  =      2538.95531499 eV

  energy without entropy =     2538.95532091  energy(sigma->0) =     2538.95531795


--------------------------------------------------------------------------------------------------------




--------------------------------------- Iteration      1(   2)  ---------------------------------------


    TRIAL :  cpu time   39.9346: real time   40.2467
    CORREC:  cpu time    0.0001: real time    0.0001
    --------------------------------------------
      LOOP:  cpu time   39.9594: real time   40.2766

 eigenvalue-minimisations  :   560
 total energy-change (2. order) :-0.2480149E+04  (-0.2322289E+04)
 number of electron     216.0000000 magnetization 
 augmentation part      216.0000000 magnetization 

 Free energy of the ion-electron system (eV)
  ---------------------------------------------------
  alpha Z        PSCENC =        47.94900195
  Ewald energy   TEWEN  =     44792.55775787
  -Hartree energ DENC   =    -50861.72206340
  -exchange      EXHF   =         0.00000000
  -V(xc)+E(xc)   XCENC  =       605.06695931
  PAW double counting   =      6340.10990386    -6200.63067283
  entropy T*S    EENTRO =        -0.00000000
  eigenvalues    EBANDS =     -3034.04775155
  atomic energy  EATOM  =      8369.52358910
  ---------------------------------------------------
  free energy    TOTEN  =        58.80672431 eV

  energy without entropy =       58.80672431  energy(sigma->0) =       58.80672431


--------------------------------------------------------------------------------------------------------




--------------------------------------- Iteration      1(   3)  ---------------------------------------


    TRIAL :  cpu time   31.0249: real time   31.2925
    CORREC:  cpu time    0.0001: real time    0.0001
    --------------------------------------------
      LOOP:  cpu time   31.0511: real time   31.3218

 eigenvalue-minimisations  :   392
 total energy-change (2. order) :-0.6321775E+03  (-0.6289132E+03)
 number of electron     216.0000000 magnetization 
 augmentation part      216.0000000 magnetization 

 Free energy of the ion-electron system (eV)
  ---------------------------------------------------
  alpha Z        PSCENC =        47.94900195
  Ewald energy   TEWEN  =     44792.55775787
  -Hartree energ DENC   =    -50861.72206340
  -exchange      EXHF   =         0.00000000
  -V(xc)+E(xc)   XCENC  =       605.06695931
  PAW double counting   =      6340.10990386    -6200.63067283
  entropy T*S    EENTRO =        -0.00000000
  eigenvalues    EBANDS =     -3666.22529327
  atomic energy  EATOM  =      8369.52358910
  ---------------------------------------------------
  free energy    TOTEN  =      -573.37081741 eV

  energy without entropy =     -573.37081741  energy(sigma->0) =     -573.37081741


--------------------------------------------------------------------------------------------------------




--------------------------------------- Iteration      1(   4)  ---------------------------------------


    TRIAL :  cpu time   34.0133: real time   34.2706
    CORREC:  cpu time    0.0001: real time    0.0001
    --------------------------------------------
      LOOP:  cpu time   34.0635: real time   34.3261

 eigenvalue-minimisations  :   448
 total energy-change (2. order) :-0.3322698E+02  (-0.3297432E+02)
 number of electron     216.0000000 magnetization 
 augmentation part      216.0000000 magnetization 

 Free energy of the ion-electron system (eV)
  ---------------------------------------------------
  alpha Z        PSCENC =        47.94900195
  Ewald energy   TEWEN  =     44792.55775787
  -Hartree energ DENC   =    -50861.72206340
  -exchange      EXHF   =         0.00000000
  -V(xc)+E(xc)   XCENC  =       605.06695931
  PAW double counting   =      6340.10990386    -6200.63067283
  entropy T*S    EENTRO =        -0.00000000
  eigenvalues    EBANDS =     -3699.45227768
  atomic energy  EATOM  =      8369.52358910
  ---------------------------------------------------
  free energy    TOTEN  =      -606.59780182 eV

  energy without entropy =     -606.59780182  energy(sigma->0) =     -606.59780182


--------------------------------------------------------------------------------------------------------




--------------------------------------- Iteration      1(   5)  ---------------------------------------


    TRIAL :  cpu time   33.9818: real time   34.2515
    CORREC:  cpu time    0.0001: real time    0.0001
    CHARGE:  cpu time    2.9947: real time    3.0174
    --------------------------------------------
      LOOP:  cpu time   37.0579: real time   37.3786

 eigenvalue-minimisations  :   448
 total energy-change (2. order) :-0.1134430E+01  (-0.1129998E+01)
 number of electron     216.0000000 magnetization 
 augmentation part       -0.4500401 magnetization 

 Free energy of the ion-electron system (eV)
  ---------------------------------------------------
  alpha Z        PSCENC =        47.94900195
  Ewald energy   TEWEN  =     44792.55775787
  -Hartree energ DENC   =    -50861.72206340
  -exchange      EXHF   =         0.00000000
  -V(xc)+E(xc)   XCENC  =       605.06695931
  PAW double counting   =      6340.10990386    -6200.63067283
  entropy T*S    EENTRO =        -0.00000000
  eigenvalues    EBANDS =     -3700.58670795
  atomic energy  EATOM  =      8369.52358910
  ---------------------------------------------------
  free energy    TOTEN  =      -607.73223209 eV

  energy without entropy =     -607.73223209  energy(sigma->0) =     -607.73223209


--------------------------------------------------------------------------------------------------------




--------------------------------------- Iteration      1(   6)  ---------------------------------------


    POTLOK:  cpu time    1.6900: real time    1.7003
    SETDIJ:  cpu time    0.2212: real time    0.2222
    TRIAL :  cpu time   20.0599: real time   20.2298
    CORREC:  cpu time    8.9881: real time    9.0521
    CHARGE:  cpu time    2.9900: real time    3.0115
    --------------------------------------------
      LOOP:  cpu time   34.0138: real time   34.2930

 eigenvalue-minimisations  :     0
 total energy-change (2. order) : 0.9795307E+02  (-0.1129913E+02)
 number of electron     216.0000000 magnetization 
 augmentation part       -0.5073268 magnetization 

 Free energy of the ion-electron system (eV)
  ---------------------------------------------------
  alpha Z        PSCENC =        47.94900195
  Ewald energy   TEWEN  =     44792.55775787
  -Hartree energ DENC   =    -52204.25793942
  -exchange      EXHF   =         0.00000000
  -V(xc)+E(xc)   XCENC  =       676.75766893
  PAW double counting   =    119531.59669352  -119392.00494418
  entropy T*S    EENTRO =        -0.00000000
  eigenvalues    EBANDS =     -2331.90098662
  atomic energy  EATOM  =      8369.52358910
  ---------------------------------------------------
  free energy    TOTEN  =      -509.77915885 eV

  energy without entropy =     -509.77915885  energy(sigma->0) =     -509.77915885


--------------------------------------------------------------------------------------------------------




--------------------------------------- Iteration      1(   7)  ---------------------------------------


    POTLOK:  cpu time    1.6877: real time    1.6975
    SETDIJ:  cpu time    0.2146: real time    0.2154
    TRIAL :  cpu time   20.1005: real time   20.2510
    CORREC:  cpu time    8.9838: real time    9.0499
    CHARGE:  cpu time    2.9985: real time    3.0199
    --------------------------------------------
      LOOP:  cpu time   34.0890: real time   34.3419

 eigenvalue-minimisations  :     0
 total energy-change (2. order) :-0.1131457E+02  (-0.1470706E+01)
 number of electron     216.0000000 magnetization 
 augmentation part       -0.5398509 magnetization 

 Free energy of the ion-electron system (eV)
  ---------------------------------------------------
  alpha Z        PSCENC =        47.94900195
  Ewald energy   TEWEN  =     44792.55775787
  -Hartree energ DENC   =    -51792.64600919
  -exchange      EXHF   =         0.00000000
  -V(xc)+E(xc)   XCENC  =       659.08734930
  PAW double counting   =    138628.88662317  -138487.55528505
  entropy T*S    EENTRO =        -0.00000000
  eigenvalues    EBANDS =     -2738.89675469
  atomic energy  EATOM  =      8369.52358910
  ---------------------------------------------------
  free energy    TOTEN  =      -521.09372753 eV

  energy without entropy =     -521.09372753  energy(sigma->0) =     -521.09372753


--------------------------------------------------------------------------------------------------------




--------------------------------------- Iteration      1(   8)  ---------------------------------------


    POTLOK:  cpu time    1.6902: real time    1.6996
    SETDIJ:  cpu time    0.2242: real time    0.2251
    TRIAL :  cpu time   20.0837: real time   20.2363
    CORREC:  cpu time    8.9883: real time    9.0559
    CHARGE:  cpu time    3.0003: real time    3.0249
    --------------------------------------------
      LOOP:  cpu time   34.0121: real time   34.2841

 eigenvalue-minimisations  :     0
 total energy-change (2. order) :-0.1470582E+01  (-0.4570026E+00)
 number of electron     216.0000000 magnetization 
 augmentation part       -0.5416088 magnetization 

 Free energy of the ion-electron system (eV)
  ---------------------------------------------------
  alpha Z        PSCENC =        47.94900195
  Ewald energy   TEWEN  =     44792.55775787
  -Hartree energ DENC   =    -51763.38175353
  -exchange      EXHF   =         0.00000000
  -V(xc)+E(xc)   XCENC  =       658.01238975
  PAW double counting   =    148282.16241792  -148140.70695782
  entropy T*S    EENTRO =        -0.00000000
  eigenvalues    EBANDS =     -2768.68075443
  atomic energy  EATOM  =      8369.52358910
  ---------------------------------------------------
  free energy    TOTEN  =      -522.56430919 eV

  energy without entropy =     -522.56430919  energy(sigma->0) =     -522.56430919


--------------------------------------------------------------------------------------------------------




--------------------------------------- Iteration      1(   9)  ---------------------------------------


    POTLOK:  cpu time    1.6988: real time    1.7171
    SETDIJ:  cpu time    0.1982: real time    0.1989
    TRIAL :  cpu time   20.1078: real time   20.2830
    CORREC:  cpu time    8.9753: real time    9.0533
    CHARGE:  cpu time    2.9878: real time    3.0199
    --------------------------------------------
      LOOP:  cpu time   34.0178: real time   34.3253

 eigenvalue-minimisations  :     0
 total energy-change (2. order) :-0.4569164E+00  (-0.1779467E+00)
 number of electron     216.0000000 magnetization 
 augmentation part       -0.5391313 magnetization 

 Free energy of the ion-electron system (eV)
  ---------------------------------------------------
  alpha Z        PSCENC =        47.94900195
  Ewald energy   TEWEN  =     44792.55775787
  -Hartree energ DENC   =    -51771.23421462
  -exchange      EXHF   =         0.00000000
  -V(xc)+E(xc)   XCENC  =       658.00282990
  PAW double counting   =    156080.16380438  -155938.64039958
  entropy T*S    EENTRO =        -0.00000000
  eigenvalues    EBANDS =     -2761.34359458
  atomic energy  EATOM  =      8369.52358910
  ---------------------------------------------------
  free energy    TOTEN  =      -523.02122560 eV

  energy without entropy =     -523.02122560  energy(sigma->0) =     -523.02122560


--------------------------------------------------------------------------------------------------------




--------------------------------------- Iteration      1(  10)  ---------------------------------------


    POTLOK:  cpu time    1.6848: real time    1.6943
    SETDIJ:  cpu time    0.2159: real time    0.2167
    TRIAL :  cpu time   20.0709: real time   20.2522
    CORREC:  cpu time    8.9891: real time    9.0559
    CHARGE:  cpu time    2.9923: real time    3.0136
    --------------------------------------------
      LOOP:  cpu time   34.0357: real time   34.3633

 eigenvalue-minimisations  :     0
 total energy-change (2. order) :-0.1777605E+00  (-0.7698065E-01)
 number of electron     216.0000000 magnetization 
 augmentation part       -0.5342398 magnetization 

 Free energy of the ion-electron system (eV)
  ---------------------------------------------------
  alpha Z        PSCENC =        47.94900195
  Ewald energy   TEWEN  =     44792.55775787
  -Hartree energ DENC   =    -51771.00199794
  -exchange      EXHF   =         0.00000000
  -V(xc)+E(xc)   XCENC  =       657.92182273
  PAW double counting   =    159902.03123754  -159760.46065482
  entropy T*S    EENTRO =        -0.00000000
  eigenvalues    EBANDS =     -2761.71974249
  atomic energy  EATOM  =      8369.52358910
  ---------------------------------------------------
  free energy    TOTEN  =      -523.19898606 eV

  energy without entropy =     -523.19898606  energy(sigma->0) =     -523.19898606


--------------------------------------------------------------------------------------------------------




--------------------------------------- Iteration      1(  11)  ---------------------------------------


    POTLOK:  cpu time    1.6879: real time    1.6975
    SETDIJ:  cpu time    0.2181: real time    0.2190
    TRIAL :  cpu time   20.0775: real time   20.2389
    CORREC:  cpu time    8.9921: real time    9.0585
    CHARGE:  cpu time    3.0032: real time    3.0252
    --------------------------------------------
      LOOP:  cpu time   34.0646: real time   34.3404

 eigenvalue-minimisations  :     0
 total energy-change (2. order) :-0.7684972E-01  (-0.3025483E-01)
 number of electron     216.0000000 magnetization 
 augmentation part       -0.5307563 magnetization 

 Free energy of the ion-electron system (eV)
  ---------------------------------------------------
  alpha Z        PSCENC =        47.94900195
  Ewald energy   TEWEN  =     44792.55775787
  -Hartree energ DENC   =    -51765.33190578
  -exchange      EXHF   =         0.00000000
  -V(xc)+E(xc)   XCENC  =       657.85012987
  PAW double counting   =    160636.77311454  -160495.22048009
  entropy T*S    EENTRO =        -0.00000000
  eigenvalues    EBANDS =     -2767.37704324
  atomic energy  EATOM  =      8369.52358910
  ---------------------------------------------------
  free energy    TOTEN  =      -523.27583578 eV

  energy without entropy =     -523.27583578  energy(sigma->0) =     -523.27583578


--------------------------------------------------------------------------------------------------------




--------------------------------------- Iteration      1(  12)  ---------------------------------------


    POTLOK:  cpu time    1.6904: real time    1.6998
    SETDIJ:  cpu time    0.2174: real time    0.2182
    TRIAL :  cpu time   19.9849: real time   20.2197
    CORREC:  cpu time    8.9940: real time    9.0584
    CHARGE:  cpu time    3.0066: real time    3.0275
    --------------------------------------------
      LOOP:  cpu time   33.9425: real time   34.2737

 eigenvalue-minimisations  :     0
 total energy-change (2. order) :-0.3021561E-01  (-0.9604072E-02)
 number of electron     216.0000000 magnetization 
 augmentation part       -0.5305026 magnetization 

 Free energy of the ion-electron system (eV)
  ---------------------------------------------------
  alpha Z        PSCENC =        47.94900195
  Ewald energy   TEWEN  =     44792.55775787
  -Hartree energ DENC   =    -51760.98875041
  -exchange      EXHF   =         0.00000000
  -V(xc)+E(xc)   XCENC  =       657.78544653
  PAW double counting   =    160127.50057225  -159985.97385701
  entropy T*S    EENTRO =        -0.00000000
  eigenvalues    EBANDS =     -2771.65981167
  atomic energy  EATOM  =      8369.52358910
  ---------------------------------------------------
  free energy    TOTEN  =      -523.30605139 eV

  energy without entropy =     -523.30605139  energy(sigma->0) =     -523.30605139


--------------------------------------------------------------------------------------------------------




--------------------------------------- Iteration      1(  13)  ---------------------------------------


    POTLOK:  cpu time    1.6871: real time    1.6965
    SETDIJ:  cpu time    0.2165: real time    0.2173
    TRIAL :  cpu time   20.0567: real time   20.2336
    CORREC:  cpu time    8.9705: real time    9.0572
    CHARGE:  cpu time    2.9946: real time    3.0157
    --------------------------------------------
      LOOP:  cpu time   33.9787: real time   34.2765

 eigenvalue-minimisations  :     0
 total energy-change (2. order) :-0.9585572E-02  (-0.2681212E-02)
 number of electron     216.0000000 magnetization 
 augmentation part       -0.5309885 magnetization 

 Free energy of the ion-electron system (eV)
  ---------------------------------------------------
  alpha Z        PSCENC =        47.94900195
  Ewald energy   TEWEN  =     44792.55775787
  -Hartree energ DENC   =    -51759.68007021
  -exchange      EXHF   =         0.00000000
  -V(xc)+E(xc)   XCENC  =       657.73938579
  PAW double counting   =    159460.00197366  -159318.47991617
  entropy T*S    EENTRO =        -0.00000000
  eigenvalues    EBANDS =     -2772.92735894
  atomic energy  EATOM  =      8369.52358910
  ---------------------------------------------------
  free energy    TOTEN  =      -523.31563696 eV

  energy without entropy =     -523.31563696  energy(sigma->0) =     -523.31563696


--------------------------------------------------------------------------------------------------------




--------------------------------------- Iteration      1(  14)  ---------------------------------------


    POTLOK:  cpu time    1.6868: real time    1.6966
    SETDIJ:  cpu time    0.2177: real time    0.2186
    TRIAL :  cpu time   20.0867: real time   20.2418
    CORREC:  cpu time    9.1032: real time    9.1730
    CHARGE:  cpu time    3.1991: real time    3.2947
    --------------------------------------------
      LOOP:  cpu time   34.3448: real time   34.6766

 eigenvalue-minimisations  :     0
 total energy-change (2. order) :-0.2670640E-02  (-0.7335563E-03)
 number of electron     216.0000000 magnetization 
 augmentation part       -0.5312740 magnetization 

 Free energy of the ion-electron system (eV)
  ---------------------------------------------------
  alpha Z        PSCENC =        47.94900195
  Ewald energy   TEWEN  =     44792.55775787
  -Hartree energ DENC   =    -51759.75214144
  -exchange      EXHF   =         0.00000000
  -V(xc)+E(xc)   XCENC  =       657.72821125
  PAW double counting   =    159056.06247210  -158914.53933047
  entropy T*S    EENTRO =        -0.00000000
  eigenvalues    EBANDS =     -2772.84786796
  atomic energy  EATOM  =      8369.52358910
  ---------------------------------------------------
  free energy    TOTEN  =      -523.31830760 eV

  energy without entropy =     -523.31830760  energy(sigma->0) =     -523.31830760


--------------------------------------------------------------------------------------------------------




--------------------------------------- Iteration      1(  15)  ---------------------------------------


    POTLOK:  cpu time    1.6887: real time    1.6984
    SETDIJ:  cpu time    0.2225: real time    0.2233
    TRIAL :  cpu time   20.0752: real time   20.2267
    CORREC:  cpu time    8.9855: real time    9.0545
    CHARGE:  cpu time    2.9917: real time    3.0168
    --------------------------------------------
      LOOP:  cpu time   33.9916: real time   34.2750

 eigenvalue-minimisations  :     0
 total energy-change (2. order) :-0.7286869E-03  (-0.2036574E-03)
 number of electron     216.0000000 magnetization 
 augmentation part       -0.5314724 magnetization 

 Free energy of the ion-electron system (eV)
  ---------------------------------------------------
  alpha Z        PSCENC =        47.94900195
  Ewald energy   TEWEN  =     44792.55775787
  -Hartree energ DENC   =    -51759.67030256
  -exchange      EXHF   =         0.00000000
  -V(xc)+E(xc)   XCENC  =       657.72219007
  PAW double counting   =    158856.15701207  -158714.63275772
  entropy T*S    EENTRO =        -0.00000000
  eigenvalues    EBANDS =     -2772.92552707
  atomic energy  EATOM  =      8369.52358910
  ---------------------------------------------------
  free energy    TOTEN  =      -523.31903629 eV

  energy without entropy =     -523.31903629  energy(sigma->0) =     -523.31903629


--------------------------------------------------------------------------------------------------------




--------------------------------------- Iteration      1(  16)  ---------------------------------------


    POTLOK:  cpu time    1.6891: real time    1.6996
    SETDIJ:  cpu time    0.2104: real time    0.2112
    TRIAL :  cpu time   20.1005: real time   20.2722
    CORREC:  cpu time    8.9902: real time    9.0581
    CHARGE:  cpu time    2.9944: real time    3.0155
    --------------------------------------------
      LOOP:  cpu time   34.0360: real time   34.3188

 eigenvalue-minimisations  :     0
 total energy-change (2. order) :-0.2017757E-03  (-0.6793606E-04)
 number of electron     216.0000000 magnetization 
 augmentation part       -0.5315543 magnetization 

 Free energy of the ion-electron system (eV)
  ---------------------------------------------------
  alpha Z        PSCENC =        47.94900195
  Ewald energy   TEWEN  =     44792.55775787
  -Hartree energ DENC   =    -51759.56782510
  -exchange      EXHF   =         0.00000000
  -V(xc)+E(xc)   XCENC  =       657.71639502
  PAW double counting   =    158747.93639805  -158606.41057164
  entropy T*S    EENTRO =        -0.00000000
  eigenvalues    EBANDS =     -2773.02398330
  atomic energy  EATOM  =      8369.52358910
  ---------------------------------------------------
  free energy    TOTEN  =      -523.31923806 eV

  energy without entropy =     -523.31923806  energy(sigma->0) =     -523.31923806


--------------------------------------------------------------------------------------------------------




--------------------------------------- Iteration      1(  17)  ---------------------------------------


    POTLOK:  cpu time    1.6900: real time    1.6999
    SETDIJ:  cpu time    0.2133: real time    0.2140
    TRIAL :  cpu time   20.0825: real time   20.2387
    CORREC:  cpu time    8.9750: real time    9.0381
    CHARGE:  cpu time    2.9923: real time    3.0155
    --------------------------------------------
      LOOP:  cpu time   34.0208: real time   34.2884

 eigenvalue-minimisations  :     0
 total energy-change (2. order) :-0.6675260E-04  (-0.2428541E-04)
 number of electron     216.0000000 magnetization 
 augmentation part       -0.5315862 magnetization 

 Free energy of the ion-electron system (eV)
  ---------------------------------------------------
  alpha Z        PSCENC =        47.94900195
  Ewald energy   TEWEN  =     44792.55775787
  -Hartree energ DENC   =    -51759.70872217
  -exchange      EXHF   =         0.00000000
  -V(xc)+E(xc)   XCENC  =       657.72226580
  PAW double counting   =    158679.85836632  -158538.33239801
  entropy T*S    EENTRO =        -0.00000000
  eigenvalues    EBANDS =     -2772.88916568
  atomic energy  EATOM  =      8369.52358910
  ---------------------------------------------------
  free energy    TOTEN  =      -523.31930482 eV

  energy without entropy =     -523.31930482  energy(sigma->0) =     -523.31930482


--------------------------------------------------------------------------------------------------------




--------------------------------------- Iteration      1(  18)  ---------------------------------------


    POTLOK:  cpu time    1.6849: real time    1.6947
    SETDIJ:  cpu time    0.2157: real time    0.2165
    TRIAL :  cpu time   20.0861: real time   20.2463
    CORREC:  cpu time    8.9993: real time    9.0602
    CHARGE:  cpu time    3.0101: real time    3.0334
    --------------------------------------------
      LOOP:  cpu time   34.1099: real time   34.3701

 eigenvalue-minimisations  :     0
 total energy-change (2. order) :-0.2436794E-04  (-0.8592826E-05)
 number of electron     216.0000000 magnetization 
 augmentation part       -0.5316003 magnetization 

 Free energy of the ion-electron system (eV)
  ---------------------------------------------------
  alpha Z        PSCENC =        47.94900195
  Ewald energy   TEWEN  =     44792.55775787
  -Hartree energ DENC   =    -51759.76541485
  -exchange      EXHF   =         0.00000000
  -V(xc)+E(xc)   XCENC  =       657.72410278
  PAW double counting   =    158653.56545763  -158512.03916830
  entropy T*S    EENTRO =        -0.00000000
  eigenvalues    EBANDS =     -2772.83465538
  atomic energy  EATOM  =      8369.52358910
  ---------------------------------------------------
  free energy    TOTEN  =      -523.31932918 eV

  energy without entropy =     -523.31932918  energy(sigma->0) =     -523.31932918


--------------------------------------------------------------------------------------------------------




--------------------------------------- Iteration      1(  19)  ---------------------------------------


    POTLOK:  cpu time    1.6885: real time    1.6979
    SETDIJ:  cpu time    0.2192: real time    0.2200
    TRIAL :  cpu time   20.0356: real time   20.2153
    CORREC:  cpu time    9.0028: real time    9.0632
    CHARGE:  cpu time    3.0136: real time    3.0352
    --------------------------------------------
      LOOP:  cpu time   34.0177: real time   34.2956

 eigenvalue-minimisations  :     0
 total energy-change (2. order) :-0.8866598E-05  (-0.3077727E-05)
 number of electron     216.0000000 magnetization 
 augmentation part       -0.5316012 magnetization 

 Free energy of the ion-electron system (eV)
  ---------------------------------------------------
  alpha Z        PSCENC =        47.94900195
  Ewald energy   TEWEN  =     44792.55775787
  -Hartree energ DENC   =    -51759.76711524
  -exchange      EXHF   =         0.00000000
  -V(xc)+E(xc)   XCENC  =       657.72393243
  PAW double counting   =    158654.50009430  -158512.97356803
  entropy T*S    EENTRO =        -0.00000000
  eigenvalues    EBANDS =     -2772.83303043
  atomic energy  EATOM  =      8369.52358910
  ---------------------------------------------------
  free energy    TOTEN  =      -523.31933805 eV

  energy without entropy =     -523.31933805  energy(sigma->0) =     -523.31933805


--------------------------------------------------------------------------------------------------------




--------------------------------------- Iteration      1(  20)  ---------------------------------------


    POTLOK:  cpu time    1.6885: real time    1.6979
    SETDIJ:  cpu time    0.2130: real time    0.2138
    TRIAL :  cpu time   20.0559: real time   20.2310
    CORREC:  cpu time    9.0021: real time    9.0695
    CHARGE:  cpu time    3.0169: real time    3.0375
    --------------------------------------------
      LOOP:  cpu time   34.0289: real time   34.3077

 eigenvalue-minimisations  :     0
 total energy-change (2. order) :-0.3165158E-05  (-0.1071789E-05)
 number of electron     216.0000000 magnetization 
 augmentation part       -0.5316002 magnetization 

 Free energy of the ion-electron system (eV)
  ---------------------------------------------------
  alpha Z        PSCENC =        47.94900195
  Ewald energy   TEWEN  =     44792.55775787
  -Hartree energ DENC   =    -51759.78668535
  -exchange      EXHF   =         0.00000000
  -V(xc)+E(xc)   XCENC  =       657.72471920
  PAW double counting   =    158663.37329114  -158521.84680101
  entropy T*S    EENTRO =        -0.00000000
  eigenvalues    EBANDS =     -2772.81421411
  atomic energy  EATOM  =      8369.52358910
  ---------------------------------------------------
  free energy    TOTEN  =      -523.31934122 eV

  energy without entropy =     -523.31934122  energy(sigma->0) =     -523.31934122


--------------------------------------------------------------------------------------------------------




--------------------------------------- Iteration      1(  21)  ---------------------------------------


    POTLOK:  cpu time    1.6869: real time    1.6971
    SETDIJ:  cpu time    0.2184: real time    0.2192
    TRIAL :  cpu time   20.0795: real time   20.2432
    CORREC:  cpu time    8.9830: real time    9.0498
    CHARGE:  cpu time    3.0327: real time    3.0568
    --------------------------------------------
      LOOP:  cpu time   34.0576: real time   34.3336

 eigenvalue-minimisations  :     0
 total energy-change (2. order) :-0.1072971E-05  (-0.3942855E-06)
 number of electron     216.0000000 magnetization 
 augmentation part       -0.5315911 magnetization 

 Free energy of the ion-electron system (eV)
  ---------------------------------------------------
  alpha Z        PSCENC =        47.94900195
  Ewald energy   TEWEN  =     44792.55775787
  -Hartree energ DENC   =    -51759.79280257
  -exchange      EXHF   =         0.00000000
  -V(xc)+E(xc)   XCENC  =       657.72473688
  PAW double counting   =    158671.17279144  -158529.64630585
  entropy T*S    EENTRO =        -0.00000000
  eigenvalues    EBANDS =     -2772.80811110
  atomic energy  EATOM  =      8369.52358910
  ---------------------------------------------------
  free energy    TOTEN  =      -523.31934229 eV

  energy without entropy =     -523.31934229  energy(sigma->0) =     -523.31934229


--------------------------------------------------------------------------------------------------------




--------------------------------------- Iteration      1(  22)  ---------------------------------------


    POTLOK:  cpu time    1.6899: real time    1.6995
    SETDIJ:  cpu time    0.2170: real time    0.2177
    TRIAL :  cpu time   20.0767: real time   20.2470
    CORREC:  cpu time    9.0028: real time    9.0669
    CHARGE:  cpu time    3.0306: real time    3.0522
    --------------------------------------------
      LOOP:  cpu time   34.0653: real time   34.3334

 eigenvalue-minimisations  :     0
 total energy-change (2. order) :-0.3681926E-06  (-0.2157996E-06)
 number of electron     216.0000000 magnetization 
 augmentation part       -0.5315832 magnetization 

 Free energy of the ion-electron system (eV)
  ---------------------------------------------------
  alpha Z        PSCENC =        47.94900195
  Ewald energy   TEWEN  =     44792.55775787
  -Hartree energ DENC   =    -51759.79250445
  -exchange      EXHF   =         0.00000000
  -V(xc)+E(xc)   XCENC  =       657.72471826
  PAW double counting   =    158675.79762578  -158534.27120482
  entropy T*S    EENTRO =        -0.00000000
  eigenvalues    EBANDS =     -2772.80832635
  atomic energy  EATOM  =      8369.52358910
  ---------------------------------------------------
  free energy    TOTEN  =      -523.31934266 eV

  energy without entropy =     -523.31934266  energy(sigma->0) =     -523.31934266


--------------------------------------------------------------------------------------------------------




--------------------------------------- Iteration      1(  23)  ---------------------------------------


    POTLOK:  cpu time    1.6891: real time    1.6985
    SETDIJ:  cpu time    0.2163: real time    0.2171
    TRIAL :  cpu time   20.0250: real time   20.2152
    CORREC:  cpu time   35.9491: real time   36.2009
    CHARGE:  cpu time    2.9976: real time    3.0190
    --------------------------------------------
      LOOP:  cpu time   60.9275: real time   61.4029

 eigenvalue-minimisations  :     0
 total energy-change (2. order) :-0.1387962E-06  (-0.4364666E-06)
 number of electron     216.0000000 magnetization 
 augmentation part       -0.5315818 magnetization 

 Free energy of the ion-electron system (eV)
  ---------------------------------------------------
  alpha Z        PSCENC =        47.94900195
  Ewald energy   TEWEN  =     44792.55775787
  -Hartree energ DENC   =    -51759.78965186
  -exchange      EXHF   =         0.00000000
  -V(xc)+E(xc)   XCENC  =       657.72462932
  PAW double counting   =    158678.84985034  -158537.32348486
  entropy T*S    EENTRO =        -0.00000000
  eigenvalues    EBANDS =     -2772.81103466
  atomic energy  EATOM  =      8369.52358910
  ---------------------------------------------------
  free energy    TOTEN  =      -523.31934280 eV

  energy without entropy =     -523.31934280  energy(sigma->0) =     -523.31934280


--------------------------------------------------------------------------------------------------------




--------------------------------------- Iteration      1(  24)  ---------------------------------------


    POTLOK:  cpu time    1.6912: real time    1.7007
    SETDIJ:  cpu time    0.2167: real time    0.2175
    TRIAL :  cpu time   20.0816: real time   20.2353
    CORREC:  cpu time    9.0022: real time    9.0657
    CHARGE:  cpu time    3.0097: real time    3.0330
    --------------------------------------------
      LOOP:  cpu time   34.0208: real time   34.2745

 eigenvalue-minimisations  :     0
 total energy-change (2. order) : 0.8116476E-06  (-0.6293785E-06)
 number of electron     216.0000000 magnetization 
 augmentation part       -0.5315807 magnetization 

 Free energy of the ion-electron system (eV)
  ---------------------------------------------------
  alpha Z        PSCENC =        47.94900195
  Ewald energy   TEWEN  =     44792.55775787
  -Hartree energ DENC   =    -51759.78314450
  -exchange      EXHF   =         0.00000000
  -V(xc)+E(xc)   XCENC  =       657.72442742
  PAW double counting   =    158684.66471252  -158543.13839373
  entropy T*S    EENTRO =        -0.00000000
  eigenvalues    EBANDS =     -2772.81729262
  atomic energy  EATOM  =      8369.52358910
  ---------------------------------------------------
  free energy    TOTEN  =      -523.31934198 eV

  energy without entropy =     -523.31934198  energy(sigma->0) =     -523.31934198


--------------------------------------------------------------------------------------------------------




--------------------------------------- Iteration      1(  25)  ---------------------------------------


    POTLOK:  cpu time    1.6906: real time    1.7003
    SETDIJ:  cpu time    0.2158: real time    0.2165
    TRIAL :  cpu time   20.0934: real time   20.2459
    CORREC:  cpu time    8.9763: real time    9.0407
    CHARGE:  cpu time    2.9772: real time    3.0016
    --------------------------------------------
      LOOP:  cpu time   34.0169: real time   34.2728

 eigenvalue-minimisations  :     0
 total energy-change (2. order) :-0.6110640E-06  (-0.2128433E-06)
 number of electron     216.0000000 magnetization 
 augmentation part       -0.5315911 magnetization 

 Free energy of the ion-electron system (eV)
  ---------------------------------------------------
  alpha Z        PSCENC =        47.94900195
  Ewald energy   TEWEN  =     44792.55775787
  -Hartree energ DENC   =    -51759.78422196
  -exchange      EXHF   =         0.00000000
  -V(xc)+E(xc)   XCENC  =       657.72458049
  PAW double counting   =    158683.62379258  -158542.09749469
  entropy T*S    EENTRO =        -0.00000000
  eigenvalues    EBANDS =     -2772.81634794
  atomic energy  EATOM  =      8369.52358910
  ---------------------------------------------------
  free energy    TOTEN  =      -523.31934259 eV

  energy without entropy =     -523.31934259  energy(sigma->0) =     -523.31934259


--------------------------------------------------------------------------------------------------------




--------------------------------------- Iteration      1(  26)  ---------------------------------------


    POTLOK:  cpu time    1.6868: real time    1.6977
    SETDIJ:  cpu time    0.2123: real time    0.2132
    TRIAL :  cpu time   20.0578: real time   20.2252
    CORREC:  cpu time    8.9772: real time    9.0482
    CHARGE:  cpu time    2.9942: real time    3.0180
    --------------------------------------------
      LOOP:  cpu time   33.9945: real time   34.2796

 eigenvalue-minimisations  :     0
 total energy-change (2. order) :-0.1495064E-06  (-0.1231975E-06)
 number of electron     216.0000000 magnetization 
 augmentation part       -0.5315939 magnetization 

 Free energy of the ion-electron system (eV)
  ---------------------------------------------------
  alpha Z        PSCENC =        47.94900195
  Ewald energy   TEWEN  =     44792.55775787
  -Hartree energ DENC   =    -51759.78247292
  -exchange      EXHF   =         0.00000000
  -V(xc)+E(xc)   XCENC  =       657.72431809
  PAW double counting   =    158681.34532192  -158539.81891890
  entropy T*S    EENTRO =        -0.00000000
  eigenvalues    EBANDS =     -2772.81793985
  atomic energy  EATOM  =      8369.52358910
  ---------------------------------------------------
  free energy    TOTEN  =      -523.31934274 eV

  energy without entropy =     -523.31934274  energy(sigma->0) =     -523.31934274


--------------------------------------------------------------------------------------------------------




--------------------------------------- Iteration      1(  27)  ---------------------------------------


    POTLOK:  cpu time    1.6880: real time    1.6980
    SETDIJ:  cpu time    0.2170: real time    0.2177
    TRIAL :  cpu time   20.0663: real time   20.2217
    CORREC:  cpu time    8.9909: real time    9.0551
    EDDIAG:  cpu time    4.1805: real time    4.2129
    CHARGE:  cpu time    3.0034: real time    3.0254
    --------------------------------------------
      LOOP:  cpu time   38.1823: real time   38.5024

 eigenvalue-minimisations  :     0
 total energy-change (2. order) :-0.9022187E-07  (-0.8179085E-07)
 number of electron     216.0000000 magnetization 
 augmentation part       -0.5315950 magnetization 

 Free energy of the ion-electron system (eV)
  ---------------------------------------------------
  alpha Z        PSCENC =        47.94900195
  Ewald energy   TEWEN  =     44792.55775787
  -Hartree energ DENC   =    -51759.79158762
  -exchange      EXHF   =         0.00000000
  -V(xc)+E(xc)   XCENC  =       657.72473997
  PAW double counting   =    158677.83377644  -158536.30737619
  entropy T*S    EENTRO =        -0.00000000
  eigenvalues    EBANDS =     -2772.80924435
  atomic energy  EATOM  =      8369.52358910
  ---------------------------------------------------
  free energy    TOTEN  =      -523.31934283 eV

  energy without entropy =     -523.31934283  energy(sigma->0) =     -523.31934283


--------------------------------------------------------------------------------------------------------


  average scaling for gradient   0.8397


 average (electrostatic) potential at core
  the test charge radii are     0.5770  0.5955
  (the norm of the test charge is              1.0000)
       1 -87.9786       2 -87.9771       3 -87.9802       4 -87.9825       5 -87.9752
       6 -87.9742       7 -87.9798       8 -87.9766       9 -87.9767      10 -87.9795
      11 -87.9744      12 -87.9752      13 -87.9791      14 -87.9763      15 -87.9741
      16 -87.9748      17 -87.9761      18 -87.9774      19 -87.9782      20 -87.9762
      21 -87.9740      22 -87.9735      23 -87.9838      24 -87.9834      25 -87.9740
      26 -87.9749      27 -87.9771      28 -87.9795      29 -87.9742      30 -87.9740
      31 -87.9813      32 -87.9792      33 -87.9757      34 -87.9747      35 -87.9746
      36 -87.9754      37 -87.9768      38 -87.9779      39 -87.9780      40 -87.9776
      41 -87.9777      42 -87.9786      43 -87.9763      44 -87.9785      45 -87.9741
      46 -87.9745      47 -87.9752      48 -87.9744      49 -87.9776      50 -87.9765
      51 -91.8720      52-124.2548      53-124.2546
 
 
 
 E-fermi :  -4.4478     XC(G=0):  -1.8762     alpha+bet : -1.6890

 Fermi energy:        -4.4478185404

 k-point     1 :       0.0000    0.0000    0.0000
  band No.  band energies     occupation 
      1     -29.1512      2.00000
      2     -28.0427      2.00000
      3     -23.6835      2.00000
      4     -22.6916      2.00000
      5     -22.6910      2.00000
      6     -22.6905      2.00000
[...]
     31     -16.3916      2.00000
     32     -16.3907      2.00000
     33     -16.3906      2.00000
     34     -14.9855      2.00000
     35     -14.9854      2.00000
     36     -14.9848      2.00000
     37     -14.9846      2.00000
     38     -14.9845      2.00000
     39     -14.9841      2.00000
     40     -13.2118      2.00000
     41     -12.4935      2.00000
     42     -12.4933      2.00000
     43     -12.4928      2.00000
     44     -12.4928      2.00000
     45     -12.4919      2.00000
     46     -12.4916      2.00000
     47     -12.2863      2.00000
     48     -12.2862      2.00000
     49     -12.2856      2.00000
     50     -12.2855      2.00000
     51     -12.2845      2.00000
     52     -12.2843      2.00000
     53     -11.8667      2.00000
     54     -11.6715      2.00000
     55     -11.6711      2.00000
     56     -10.9769      2.00000
     57     -10.8234      2.00000
     58     -10.8233      2.00000
     59     -10.8219      2.00000
     60     -10.8215      2.00000
     61     -10.8213      2.00000
     62     -10.8212      2.00000
     63      -9.8031      2.00000
     64      -9.8015      2.00000
     65      -9.7991      2.00000
     66      -9.7983      2.00000
     67      -9.7965      2.00000
     68      -9.7964      2.00000
     69      -9.4919      2.00000
     70      -9.4910      2.00000
     71      -9.4907      2.00000
     72      -9.4902      2.00000
     73      -9.4896      2.00000
     74      -9.4895      2.00000
     75      -9.4850      2.00000
     76      -9.4849      2.00000
     77      -9.4847      2.00000
     78      -9.4847      2.00000
     79      -9.4840      2.00000
     80      -9.4832      2.00000
     81      -8.0340      2.00000
     82      -8.0338      2.00000
     83      -7.7468      2.00000
     84      -7.7457      2.00000
     85      -7.7453      2.00000
     86      -7.7448      2.00000
     87      -7.7432      2.00000
     88      -7.7431      2.00000
     89      -7.5523      2.00000
     90      -7.5522      2.00000
     91      -7.5518      2.00000
     92      -7.5512      2.00000
     93      -7.5509      2.00000
     94      -7.5507      2.00000
     95      -6.6079      2.00000
     96      -6.6066      2.00000
     97      -6.6063      2.00000
     98      -6.6059      2.00000
     99      -6.6055      2.00000
    100      -6.6049      2.00000
    101      -6.1748      2.00000
    102      -6.1725      2.00000
    103      -4.5078      2.00000
    104      -4.5074      2.00000
    105      -4.5073      2.00000
    106      -4.5067      2.00000
    107      -4.5045      2.00000
    108      -4.5043      2.00000
    109      -1.5144      0.00000
    110      -1.5142      0.00000
    111      -1.5123      0.00000
    112      -1.5120      0.00000
    113      -1.5118      0.00000
    114      -1.5117      0.00000
    115       0.4770      0.00000
    116       0.4779      0.00000
    117       0.4785      0.00000
    118       0.4795      0.00000
    119       0.4797      0.00000
    120       0.4823      0.00000
    121       0.5791      0.00000
    122       1.0914      0.00000
    123       1.1820      0.00000
    124       1.1855      0.00000
    125       1.4889      0.00000
    126       1.7159      0.00000
    127       1.9736      0.00000
    128       2.0383      0.00000
    129       2.0432      0.00000
    130       2.0528      0.00000
    131       2.0595      0.00000
    132       2.0802      0.00000
    133       2.2018      0.00000
    134       2.3449      0.00000
    135       2.3453      0.00000
    136       2.3468      0.00000
    137       2.3472      0.00000
    138       2.3485      0.00000
    139       2.3502      0.00000
    140       2.4526      0.00000
    141       2.6163      0.00000
    142       2.7259      0.00000
    143       2.7325      0.00000
    144       2.7386      0.00000
    145       2.7678      0.00000
    146       2.8074      0.00000
    147       2.8245      0.00000
    148       2.8255      0.00000
    149       2.8329      0.00000
    150       2.8344      0.00000
    151       2.9661      0.00000
    152       3.2776      0.00000
    153       3.3650      0.00000
    154       3.4026      0.00000
    155       3.4293      0.00000
    156       3.4784      0.00000
    157       3.6108      0.00000
    158       3.8162      0.00000
    159       3.9612      0.00000
    160       4.0654      0.00000
    161       4.2171      0.00000
    162       4.3184      0.00000
    163       4.8158      0.00000
    164       4.8664      0.00000
    165       4.8736      0.00000
    166       4.8807      0.00000
    167       4.8807      0.00000
    168       4.8957      0.00000


--------------------------------------------------------------------------------------------------------


 soft charge-density along one line, spin component           1
         0         1         2         3         4         5         6         7         8         9
 total charge-density along one line
 
 pseudopotential strength for first ion, spin component:           1
 12.639  21.267   0.000   0.000   0.000   0.000   0.000   0.000
 21.267  35.783   0.000   0.000   0.000   0.000   0.000   0.000
  0.000   0.000  -3.235  -0.000   0.000  -5.794   0.000   0.000
  0.000   0.000  -0.000  -3.235  -0.000   0.000  -5.793  -0.000
  0.000   0.000   0.000  -0.000  -3.235   0.000  -0.000  -5.794
  0.000   0.000  -5.794   0.000   0.000 -10.354   0.000   0.000
  0.000   0.000   0.000  -5.793  -0.000   0.000 -10.353  -0.000
  0.000   0.000   0.000  -0.000  -5.794   0.000  -0.000 -10.354
 total augmentation occupancy for first ion, spin component:           1
 10.263  -3.894  -0.000  -0.002   0.000   0.000   0.001  -0.000
 -3.894   1.507   0.000   0.001  -0.000  -0.000  -0.000   0.000
 -0.000   0.000   8.468  -0.009   0.000  -3.024   0.003  -0.000
 -0.002   0.001  -0.009   4.016  -0.000   0.003  -1.207   0.000
  0.000  -0.000   0.000  -0.000   8.468  -0.000   0.000  -3.024
  0.000  -0.000  -3.024   0.003  -0.000   1.093  -0.001   0.000
  0.001  -0.000   0.003  -1.207   0.000  -0.001   0.368  -0.000
 -0.000   0.000  -0.000   0.000  -3.024   0.000  -0.000   1.093


------------------------ aborting loop because EDIFF is reached ----------------------------------------


    FORLOC:  cpu time    0.1398: real time    0.1407
    FORNL :  cpu time    3.8245: real time    3.8571
    FORCOR:  cpu time    1.6187: real time    1.6285
    OFIELD:  cpu time    0.0029: real time    0.0030
 WARNING: Using user supplied parameters
     VDW_A1 = 0.495
     VDW_A2 = 5.731
     VDW_S8 = 0.79
     because the xc functional is not supported. Required parameters not
     defined in the INCAR file will be replaced with PBE defaults ones.


 ---------------------------------------------------------------------------------------------

         DFTD3 V3.0 Rev 1        
 IVDW         = 12
 DF unknown   
 parameters
 VDW_S6       =    1.0000
 VDW_S8       =    0.7898
 VDW_A1       =    0.4948
 VDW_A2       =    5.7308
 k1-k3        =   16.0000    1.3333   -4.0000
 VDW_RADIUS   =   50.2022 A
 VDW_CNRADIUS =   21.1671 A
 Edisp (eV)   -1.72117

 E6    (eV) :    -1.3309
 E8    (eV) :    -0.3902
 % E8        : 22.67
    FORVDW:  cpu time    0.1417: real time    0.1433

 VOLUME and BASIS-vectors are now :
 -----------------------------------------------------------------------------
  energy-cutoff  :     1000.00
  volume of cell :     3288.85
      direct lattice vectors                 reciprocal lattice vectors
    12.325000000  0.000000000  0.000000000     0.081135903  0.046843835  0.000000000
    -6.162500000 10.673763102  0.000000000     0.000000000  0.093687670  0.000000000
     0.000000000  0.000000000 25.000000000     0.000000000  0.000000000  0.040000000

  length of vectors
    12.325000000 12.325000000 25.000000000     0.093687670  0.093687670  0.040000000


 FORCES acting on ions:
    Electron-Ion                     Ewald-Force                    Non-Local-Force
 -----------------------------------------------------------------------------------------------
   0.443E+01 0.385E+01 0.240E+02   -.443E+01 -.385E+01 -.240E+02   0.874E-02 -.135E-02 0.803E-02
   0.652E+01 0.317E+01 0.275E+02   -.653E+01 -.317E+01 -.275E+02   0.100E-01 -.527E-02 -.628E-02
   0.283E+01 0.756E+01 0.302E+02   -.283E+01 -.757E+01 -.302E+02   -.105E-02 0.192E-01 0.672E-02
   0.380E+01 0.551E+01 0.380E+02   -.381E+01 -.551E+01 -.380E+02   0.182E-01 0.364E-02 0.139E-02
   0.473E+01 0.112E+01 0.242E+02   -.473E+01 -.112E+01 -.242E+02   0.288E-02 -.880E-02 -.481E-03
   0.486E+01 -.942E+00 0.245E+02   -.486E+01 0.946E+00 -.245E+02   -.704E-02 0.149E-02 -.885E-02
   0.714E+01 0.262E+01 0.357E+02   -.715E+01 -.261E+01 -.357E+02   0.217E-01 -.246E-01 -.136E-02
   0.691E+01 -.247E+01 0.370E+02   -.693E+01 0.248E+01 -.370E+02   0.224E-02 -.118E-01 -.940E-02
   -.336E+01 0.681E+01 0.304E+02   0.337E+01 -.682E+01 -.304E+02   -.684E-02 -.707E-02 -.865E-02
   -.516E+01 0.434E+01 0.372E+02   0.517E+01 -.435E+01 -.372E+02   -.368E-01 0.223E-01 0.712E-02
   0.122E+01 -.119E+01 0.216E+02   -.122E+01 0.119E+01 -.216E+02   0.166E-02 -.195E-02 -.343E-02
   0.105E+01 -.874E+00 0.208E+02   -.104E+01 0.872E+00 -.208E+02   -.101E-01 0.457E-02 0.353E-02
   0.276E+01 -.592E+01 0.397E+02   -.277E+01 0.593E+01 -.397E+02   0.375E-01 -.154E-01 0.214E-02
   0.153E+01 -.757E+01 0.313E+02   -.154E+01 0.757E+01 -.313E+02   0.103E-01 0.113E-02 -.199E-01
   -.426E+01 0.263E+01 0.236E+02   0.426E+01 -.263E+01 -.236E+02   0.760E-02 -.366E-02 0.139E-02
   -.587E+01 0.173E+01 0.253E+02   0.587E+01 -.174E+01 -.253E+02   -.509E-02 0.837E-02 -.114E-01
   -.743E+00 -.294E+00 0.202E+02   0.750E+00 0.291E+00 -.202E+02   -.371E-02 0.173E-02 0.142E-02
   0.352E+00 0.260E+01 0.209E+02   -.348E+00 -.260E+01 -.209E+02   -.548E-02 0.331E-02 0.956E-02
   -.114E+01 -.703E+01 0.271E+02   0.114E+01 0.703E+01 -.271E+02   0.106E-01 -.529E-02 0.123E-02
   -.593E+00 -.391E+01 0.222E+02   0.586E+00 0.392E+01 -.222E+02   0.335E-02 -.359E-02 -.152E-02
   0.652E+01 -.288E+01 0.288E+02   -.652E+01 0.288E+01 -.288E+02   0.194E-02 -.561E-02 -.262E-01
   0.430E+01 -.359E+01 0.255E+02   -.431E+01 0.359E+01 -.255E+02   -.674E-02 0.565E-02 -.993E-02
   -.132E+01 0.254E+01 0.429E+02   0.133E+01 -.255E+01 -.429E+02   -.152E-01 0.149E-01 0.239E-01
   -.182E+01 -.400E+01 0.421E+02   0.182E+01 0.400E+01 -.421E+02   0.152E-01 -.215E-01 0.995E-02
   0.224E+01 -.902E+00 0.217E+02   -.223E+01 0.899E+00 -.217E+02   0.101E-02 -.149E-02 -.736E-02
   0.494E+00 0.197E+01 0.217E+02   -.491E+00 -.197E+01 -.218E+02   -.842E-02 0.521E-02 0.232E-02
   -.763E+01 0.105E+01 0.319E+02   0.765E+01 -.105E+01 -.319E+02   0.353E-02 0.122E-01 -.500E-02
   -.731E+01 -.292E+01 0.305E+02   0.732E+01 0.291E+01 -.305E+02   -.167E-01 0.123E-01 0.425E-02
   0.256E+01 -.514E+01 0.261E+02   -.257E+01 0.514E+01 -.261E+02   0.865E-02 0.126E-02 -.137E-01
   0.226E+00 -.214E+01 0.226E+02   -.230E+00 0.214E+01 -.226E+02   -.301E-02 0.294E-02 -.659E-02
   -.544E+01 -.570E+01 0.342E+02   0.544E+01 0.570E+01 -.342E+02   -.184E-01 -.117E-01 -.140E-02
   -.364E+01 -.671E+01 0.279E+02   0.364E+01 0.672E+01 -.279E+02   0.906E-03 -.734E-02 0.721E-02
   0.291E+00 0.115E+01 0.207E+02   -.295E+00 -.115E+01 -.207E+02   0.810E-02 -.602E-02 0.532E-02
   0.759E+00 0.114E+01 0.215E+02   -.763E+00 -.113E+01 -.215E+02   -.106E-02 0.331E-02 -.405E-02
   -.299E+01 0.460E+00 0.225E+02   0.299E+01 -.462E+00 -.225E+02   0.404E-02 -.145E-02 0.208E-02
   -.263E+01 -.110E+01 0.222E+02   0.263E+01 0.110E+01 -.222E+02   -.738E-02 0.419E-02 0.108E-02
   -.514E+01 -.267E+01 0.241E+02   0.515E+01 0.267E+01 -.241E+02   -.676E-02 0.199E-02 0.316E-02
   -.323E+01 -.258E+01 0.219E+02   0.323E+01 0.258E+01 -.219E+02   -.727E-02 0.167E-02 0.101E-01
   -.296E+01 -.381E+01 0.228E+02   0.296E+01 0.382E+01 -.228E+02   -.579E-02 -.142E-02 0.716E-02
   -.448E+00 -.972E+00 0.210E+02   0.448E+00 0.973E+00 -.210E+02   0.268E-02 -.420E-03 0.860E-02
   0.111E+01 0.275E+01 0.214E+02   -.111E+01 -.275E+01 -.214E+02   -.465E-02 0.431E-02 0.846E-02
   0.346E+01 0.541E+01 0.246E+02   -.346E+01 -.542E+01 -.247E+02   0.269E-02 0.207E-02 0.113E-01
   0.305E+00 0.467E+01 0.225E+02   -.298E+00 -.468E+01 -.225E+02   -.383E-02 0.437E-02 0.978E-03
   -.795E-01 0.748E+01 0.278E+02   0.876E-01 -.749E+01 -.278E+02   -.138E-01 0.670E-02 0.608E-02
   -.881E+00 0.170E+01 0.224E+02   0.884E+00 -.171E+01 -.224E+02   0.289E-02 -.288E-02 -.300E-02
   -.346E+01 0.428E+01 0.249E+02   0.347E+01 -.428E+01 -.249E+02   -.982E-02 0.218E-02 -.778E-02
   -.741E+00 -.194E+01 0.215E+02   0.737E+00 0.194E+01 -.215E+02   0.944E-02 -.237E-02 0.338E-02
   -.176E+01 0.673E+00 0.209E+02   0.176E+01 -.671E+00 -.209E+02   -.114E-02 0.268E-02 -.630E-02
   0.177E+00 -.121E+01 0.208E+02   -.180E+00 0.121E+01 -.208E+02   0.636E-02 -.395E-02 0.624E-02
   0.192E+01 0.138E+01 0.209E+02   -.192E+01 -.138E+01 -.209E+02   0.349E-02 0.103E-02 0.320E-02
   0.272E-01 -.591E-02 -.329E+03   -.295E-01 0.851E-02 0.329E+03   -.317E-02 0.204E-02 -.488E-02
   -.228E+03 0.155E+03 -.507E+03   0.279E+03 -.190E+03 0.510E+03   -.523E+02 0.356E+02 -.351E+01
   0.228E+03 -.155E+03 -.485E+03   -.279E+03 0.190E+03 0.482E+03   0.523E+02 -.356E+02 0.316E+01
 -----------------------------------------------------------------------------------------------
   -.492E-02 0.122E-01 0.356E+00   0.171E-12 -.142E-12 0.000E+00   0.489E-02 -.130E-01 -.350E+00
 
 
 POSITION                                       TOTAL-FORCE (eV/Angst)
 -----------------------------------------------------------------------------------
     11.98348      0.00342      0.01417         0.003200     -0.001281     -0.001343
     -0.34154      1.42665      0.01100        -0.001960     -0.000072     -0.003071
      2.12355      0.00315      0.01249        -0.001698      0.008695     -0.006162
      2.12326      1.42653      0.00641         0.011528      0.000220     -0.005650
     10.75099      2.13819      0.01213         0.000766     -0.005197      0.000067
     -1.57382      3.56123      0.01110        -0.008231      0.004836     -0.001353
      0.89078      2.13854      0.00548         0.007857     -0.017475      0.004552
      0.89099      3.56147      0.00181        -0.013342     -0.001703      0.015083
      4.58864      0.00346      0.01135         0.004262     -0.016971     -0.002972
      4.58894      1.42623      0.00646        -0.020541      0.011540      0.017379
      9.51854      4.27281      0.01369         0.007327     -0.003269      0.000222
     -2.80632      5.69591      0.01434        -0.006726      0.003262      0.000803
      2.12300      4.27302      0.00000         0.022008     -0.003500      0.025097
      2.12335      5.69594      0.00581        -0.001379      0.010004     -0.001234
      7.05344      0.00333      0.01399         0.008710     -0.005189     -0.000417
      7.05353      1.42635      0.01368        -0.001637      0.004629     -0.003830
      8.28610      6.40752      0.01601         0.003583     -0.001327     -0.000978
     -4.03885      7.83070      0.01636        -0.002227      0.001149     -0.000406
      3.35586      6.40753      0.01007         0.004318      0.000536     -0.001079
      3.35599      7.83072      0.01320        -0.003333      0.000672     -0.000537
     -0.34146      4.27290      0.00723        -0.001778     -0.000974     -0.003718
     -0.34138      5.69591      0.00946        -0.008810      0.005662     -0.000800
      3.35624      2.13791      0.00222        -0.012620      0.010535      0.022178
      3.35573      3.56155      0.00139         0.012968     -0.014352      0.013865
     -1.57395      6.40758      0.01311         0.006336     -0.004131     -0.000580
     -1.57385      7.83068      0.01438        -0.004928      0.004009     -0.000044
      5.82093      2.13784      0.01033         0.017036      0.004428     -0.002108
      5.82114      3.56097      0.01156        -0.005118      0.007302     -0.003393
      0.89092      6.40755      0.00907         0.004222      0.001844     -0.001884
      0.89106      7.83068      0.01235        -0.007100      0.003569      0.000396
      4.58871      4.27293      0.00850        -0.011271     -0.005237     -0.009590
      4.58852      5.69606      0.01149         0.002207     -0.000012     -0.003763
      9.51845      0.00337      0.01490         0.004815     -0.004812      0.000083
      9.51855      1.42644      0.01438        -0.005278      0.005874     -0.000424
      8.28593      2.13803      0.01453         0.006293     -0.003802      0.000469
      8.28613      3.56115      0.01464        -0.004452      0.001876     -0.000103
      7.05356      4.27269      0.01457         0.003554     -0.000878     -0.000641
      7.05362      5.69588      0.01553        -0.002460      0.001225     -0.000313
      5.82112      6.40755      0.01489        -0.002671      0.002182     -0.000164
      5.82102      7.83073      0.01579         0.002887      0.000491     -0.000522
      7.05363      8.54227      0.01631        -0.004624      0.001060      0.000919
     -5.27149      9.96549      0.01495        -0.000351     -0.002418     -0.002472
     -2.80638      8.54234      0.01558         0.003576     -0.001889     -0.001369
     -2.80627      9.96553      0.01362        -0.005699      0.000002     -0.004092
     -0.34149      8.54239      0.01378         0.005872     -0.004625      0.000190
     -0.34138      9.96550      0.01354        -0.005677      0.000577     -0.001174
      2.12343      8.54232      0.01336         0.005707     -0.001777      0.000898
      2.12354      9.96544      0.01469        -0.005796      0.004435     -0.002065
      4.58846      8.54235      0.01505         0.003622     -0.002904      0.000807
      4.58853      9.96550      0.01517        -0.003194      0.003573      0.000057
      3.04930      2.68154      5.00000        -0.005482      0.004631      0.022185
      4.02070      2.02068      5.06442        -1.424671      0.968898     -0.118834
      2.07767      3.34267      4.94055         1.430403     -0.973922      0.061834
 -----------------------------------------------------------------------------------
    total drift:                               -0.000027     -0.000768      0.005641


--------------------------------------------------------------------------------------------------------



  FREE ENERGIE OF THE ION-ELECTRON SYSTEM (eV)
  ---------------------------------------------------
  free  energy   TOTEN  =      -525.04051733 eV

  energy  without entropy=     -525.04051733  energy(sigma->0) =     -525.04051733
 


--------------------------------------------------------------------------------------------------------


    POTLOK:  cpu time    1.8846: real time    1.8953


--------------------------------------------------------------------------------------------------------


 writing wavefunctions
     LOOP+:  cpu time  990.4834: real time  998.8898
    4ORBIT:  cpu time    0.0000: real time    0.0000

 total amount of memory used by VASP MPI-rank0   698619. kBytes
=======================================================================

   base      :      30000. kBytes
   nonl-proj :     230539. kBytes
   fftplans  :      40716. kBytes
   grid      :     363125. kBytes
   one-center:        162. kBytes
   wavefun   :      34077. kBytes
 
  
  
 General timing and accounting informations for this job:
 ========================================================
  
                  Total CPU time used (sec):     1036.570
                            User time (sec):     1008.639
                          System time (sec):       27.932
                         Elapsed time (sec):     1046.182
  
                   Maximum memory used (kb):     1241924.
                   Average memory used (kb):          N/A
  
                          Minor page faults:       159286
                          Major page faults:          105
                 Voluntary context switches:         3845
