 vasp.6.2.1 16May21 (build Nov 06 2021 14:46:37) complex                        
  
 executed on             LinuxIFC date 2025.04.06  13:12:34
 running on  112 total cores
 distrk:  each k-point on   56 cores,    2 groups
 distr:  one band on NCORE=   1 cores,   56 groups


--------------------------------------------------------------------------------------------------------


 INCAR:
   ALGO = Conjugate
   KPAR = 2
   NCORE = 32
   ISMEAR = 0
   SIGMA = 0.01
   PREC = Accurate
   EDIFF = 1E-7
   ENCUT = 1000
   ISIF = 0
   METAGGA = R2SCAN
   LASPH = .TRUE.
   IVDW = 12
   VDW_S8 = 0.7898
   VDW_A1 = 0.4948
   VDW_A2 = 5.7308
   SYMPREC = 1E-7

 POTCAR:    PAW_PBE C_h 06Feb2004                 
 POTCAR:    PAW_PBE O_h 06Feb2004                 
 -----------------------------------------------------------------------------
|                                                                             |
|           W    W    AA    RRRRR   N    N  II  N    N   GGGG   !!!           |
|           W    W   A  A   R    R  NN   N  II  NN   N  G    G  !!!           |
|           W    W  A    A  R    R  N N  N  II  N N  N  G       !!!           |
|           W WW W  AAAAAA  RRRRR   N  N N  II  N  N N  G  GGG   !            |
|           WW  WW  A    A  R   R   N   NN  II  N   NN  G    G                |
|           W    W  A    A  R    R  N    N  II  N    N   GGGG   !!!           |
|                                                                             |
|     The value NCORE = 32 specified in the INCAR file was overwritten,       |
|     because it was not compatible with the 56 processes available:          |
|     NCORE = 1                                                               |
|     was used instead, please check that this makes sense for your           |
|     machine.                                                                |
|                                                                             |
 -----------------------------------------------------------------------------

 -----------------------------------------------------------------------------
|                                                                             |
|           W    W    AA    RRRRR   N    N  II  N    N   GGGG   !!!           |
|           W    W   A  A   R    R  NN   N  II  NN   N  G    G  !!!           |
|           W    W  A    A  R    R  N N  N  II  N N  N  G       !!!           |
|           W WW W  AAAAAA  RRRRR   N  N N  II  N  N N  G  GGG   !            |
|           WW  WW  A    A  R   R   N   NN  II  N   NN  G    G                |
|           W    W  A    A  R    R  N    N  II  N    N   GGGG   !!!           |
|                                                                             |
|     For optimal performance we recommend to set                             |
|       NCORE = 2 up to number-of-cores-per-socket                            |
|     NCORE specifies how many cores store one orbital (NPAR=cpu/NCORE).      |
|     This setting can greatly improve the performance of VASP for DFT.       |
|     The default, NCORE=1 might be grossly inefficient on modern             |
|     multi-core architectures or massively parallel machines. Do your        |
|     own testing! More info at https://www.vasp.at/wiki/index.php/NCORE      |
|     Unfortunately you need to use the default for GW and RPA                |
|     calculations (for HF NCORE is supported but not extensively tested      |
|     yet).                                                                   |
|                                                                             |
 -----------------------------------------------------------------------------

 POTCAR:    PAW_PBE C_h 06Feb2004                 
   VRHFIN =C: s2p2                                                                                  
   LEXCH  = PE                                                                                      
   EATOM  =   147.1560 eV,   10.8157 Ry                                                             
                                                                                                    
   TITEL  = PAW_PBE C_h 06Feb2004                                                                   
   LULTRA =        F    use ultrasoft PP ?                                                          
   IUNSCR =        1    unscreen: 0-lin 1-nonlin 2-no                                               
   RPACOR =    0.800    partial core radius                                                         
   POMASS =   12.011; ZVAL   =    4.000    mass and valenz                                          
   RCORE  =    1.100    outmost cutoff radius                                                       
   RWIGS  =    1.630; RWIGS  =    0.863    wigner-seitz radius (au A)                               
   ENMAX  =  700.000; ENMIN  =  500.000 eV                                                          
   ICORE  =        2    local potential                                                             
   LCOR   =        T    correct aug charges                                                         
   LPAW   =        T    paw PP                                                                      
   EAUG   =  946.768                                                                                
   DEXC   =    0.000                                                                                
   RMAX   =    1.128    core radius for proj-oper                                                   
   RAUG   =    1.300    factor for augmentation sphere                                              
   RDEP   =    1.162    radius for radial grids                                                     
   RDEPT  =    1.088    core radius for aug-charge                                                  
                                                                                                    
   Atomic configuration                                                                             
    4 entries                                                                                       
     n  l   j            E        occ.                                                              
     1  0  0.50      -273.3789   2.0000                                                             
     2  0  0.50       -13.7508   2.0000                                                             
     2  1  0.50        -5.2854   2.0000                                                             
     3  2  1.50        -5.4423   0.0000                                                             
   Description                                                                                      
     l       E           TYP  RCUT    TYP  RCUT                                                     
     0    -13.7508458     23  1.100                                                                 
     0     -8.2022199     23  1.100                                                                 
     1     -5.2854383     23  1.100                                                                 
     1      1.1560700     23  1.100                                                                 
     2     -5.4423304      7  1.100                                                                 
  local pseudopotential read in
  partial core-charges read in
  partial kinetic energy density read in
  atomic valenz-charges read in
  non local Contribution for L=           0  read in
    real space projection operators read in
  non local Contribution for L=           0  read in
    real space projection operators read in
  non local Contribution for L=           1  read in
    real space projection operators read in
  non local Contribution for L=           1  read in
    real space projection operators read in
    PAW grid and wavefunctions read in
 
   number of l-projection  operators is LMAX  =           4
   number of lm-projection operators is LMMAX =           8
 
 POTCAR:    PAW_PBE O_h 06Feb2004                 
   VRHFIN =O: s2p4                                                                                  
   LEXCH  = PE                                                                                      
   EATOM  =   432.3788 eV,   31.7789 Ry                                                             
                                                                                                    
   TITEL  = PAW_PBE O_h 06Feb2004                                                                   
   LULTRA =        F    use ultrasoft PP ?                                                          
   IUNSCR =        1    unscreen: 0-lin 1-nonlin 2-no                                               
   RPACOR =    0.800    partial core radius                                                         
   POMASS =   16.000; ZVAL   =    6.000    mass and valenz                                          
   RCORE  =    1.100    outmost cutoff radius                                                       
   RWIGS  =    1.400; RWIGS  =    0.741    wigner-seitz radius (au A)                               
   ENMAX  =  700.000; ENMIN  =  500.000 eV                                                          
   ICORE  =        2    local potential                                                             
   LCOR   =        T    correct aug charges                                                         
   LPAW   =        T    paw PP                                                                      
   EAUG   =  888.804                                                                                
   DEXC   =    0.000                                                                                
   RMAX   =    1.128    core radius for proj-oper                                                   
   RAUG   =    1.300    factor for augmentation sphere                                              
   RDEP   =    1.125    radius for radial grids                                                     
   RDEPT  =    1.088    core radius for aug-charge                                                  
                                                                                                    
   Atomic configuration                                                                             
    4 entries                                                                                       
     n  l   j            E        occ.                                                              
     1  0  0.50      -514.6923   2.0000                                                             
     2  0  0.50       -23.9615   2.0000                                                             
     2  1  0.50        -9.0305   4.0000                                                             
     3  2  1.50        -9.5241   0.0000                                                             
   Description                                                                                      
     l       E           TYP  RCUT    TYP  RCUT                                                     
     0    -23.9615319     23  1.100                                                                 
     0    -25.3221145     23  1.100                                                                 
     1     -9.0304911     23  1.100                                                                 
     1     -5.4802209     23  1.100                                                                 
     2     -9.5240782      7  1.100                                                                 
  local pseudopotential read in
  partial core-charges read in
  partial kinetic energy density read in
  atomic valenz-charges read in
  non local Contribution for L=           0  read in
    real space projection operators read in
  non local Contribution for L=           0  read in
    real space projection operators read in
  non local Contribution for L=           1  read in
    real space projection operators read in
  non local Contribution for L=           1  read in
    real space projection operators read in
    PAW grid and wavefunctions read in
 
   number of l-projection  operators is LMAX  =           4
   number of lm-projection operators is LMMAX =           8
 
 -----------------------------------------------------------------------------
|                                                                             |
|               ----> ADVICE to this user running VASP <----                  |
|                                                                             |
|     You have a (more or less) 'large supercell' and for larger cells it     |
|     might be more efficient to use real-space projection operators.         |
|     Therefore, try LREAL= Auto in the INCAR file.                           |
|     Mind: For very accurate calculation, you might also keep the            |
|     reciprocal projection scheme (i.e. LREAL=.FALSE.).                      |
|                                                                             |
 -----------------------------------------------------------------------------

  PAW_PBE C_h 06Feb2004                 :
 energy of atom  1       EATOM= -147.1560
 kinetic energy error for atom=    0.0031 (will be added to EATOM!!)
  PAW_PBE O_h 06Feb2004                 :
 energy of atom  2       EATOM= -432.3788
 kinetic energy error for atom=    0.0171 (will be added to EATOM!!)
 
 
 POSCAR:  C  O
  positions in cartesian coordinates
  No initial velocities read in

 METAGGA = R2SCA    LMAXTAU =  6    LMIXTAU =  F

 exchange correlation table for  LEXCH =        8
   RHO(1)=    0.500       N(1)  =     2000
   RHO(2)=  100.500       N(2)  =     4000
 


--------------------------------------------------------------------------------------------------------


 ion  position               nearest neighbor table
   1  0.972  0.000  0.001-  50 1.42   2 1.42  42 1.42
   2  0.039  0.134  0.001-   5 1.42   7 1.42   1 1.42
   3  0.172  0.000  0.001-  42 1.42  44 1.42   4 1.42
   4  0.239  0.134  0.000-   7 1.42   3 1.42  23 1.42
   5  0.972  0.200  0.001-   6 1.42   2 1.42  34 1.42
   6  0.039  0.334  0.001-   5 1.42  21 1.42  11 1.42
   7  0.172  0.200  0.000-   8 1.42   2 1.42   4 1.42
   8  0.239  0.334  0.000-  13 1.42   7 1.42  21 1.42
   9  0.372  0.000  0.001-  10 1.42  44 1.42  46 1.42
  10  0.439  0.134  0.000-  27 1.42   9 1.42  23 1.42
  11  0.972  0.400  0.001-  12 1.42  36 1.42   6 1.42
  12  0.039  0.534  0.001-  25 1.42  11 1.42  17 1.42
  13  0.372  0.400  0.000-   8 1.42  14 1.42  24 1.42
  14  0.439  0.534  0.000-  13 1.42  29 1.42  19 1.42
  15  0.572  0.000  0.001-  46 1.42  16 1.42  48 1.42
  16  0.639  0.134  0.001-  15 1.42  35 1.42  27 1.42
  17  0.972  0.600  0.001-  38 1.42  18 1.42  12 1.42
  18  0.039  0.734  0.001-  43 1.42  41 1.42  17 1.42
  19  0.572  0.600  0.001-  14 1.42  20 1.42  32 1.42
  20  0.639  0.734  0.001-  49 1.42  19 1.42  47 1.42
  21  0.172  0.400  0.000-  22 1.42   8 1.42   6 1.42
  22  0.239  0.534  0.000-  21 1.42  29 1.42  25 1.42
  23  0.372  0.200  0.000-  10 1.42   4 1.42  24 1.42
  24  0.439  0.334  0.000-  13 1.42  31 1.42  23 1.42
  25  0.172  0.600  0.001-  26 1.42  12 1.42  22 1.42
  26  0.239  0.734  0.001-  25 1.42  45 1.42  43 1.42
  27  0.572  0.200  0.001-  10 1.42  28 1.42  16 1.42
  28  0.639  0.334  0.001-  27 1.42  37 1.42  31 1.42
  29  0.372  0.600  0.000-  22 1.42  14 1.42  30 1.42
  30  0.439  0.734  0.001-  47 1.42  29 1.42  45 1.42
  31  0.572  0.400  0.000-  32 1.42  28 1.42  24 1.42
  32  0.639  0.534  0.001-  31 1.42  39 1.42  19 1.42
  33  0.772  0.000  0.001-  34 1.42  48 1.42  50 1.42
  34  0.839  0.134  0.001-  33 1.42   5 1.42  35 1.42
  35  0.772  0.200  0.001-  36 1.42  16 1.42  34 1.42
  36  0.839  0.334  0.001-  35 1.42  11 1.42  37 1.42
  37  0.772  0.400  0.001-  28 1.42  38 1.42  36 1.42
  38  0.839  0.534  0.001-  17 1.42  37 1.42  39 1.42
  39  0.772  0.600  0.001-  40 1.42  38 1.42  32 1.42
  40  0.839  0.734  0.001-  39 1.42  49 1.42  41 1.42
  41  0.972  0.800  0.001-  18 1.42  42 1.42  40 1.42
  42  0.039  0.934  0.001-   3 1.42  41 1.42   1 1.42
  43  0.172  0.800  0.001-  18 1.42  44 1.42  26 1.42
  44  0.239  0.934  0.001-   9 1.42  43 1.42   3 1.42
  45  0.372  0.800  0.001-  26 1.42  46 1.42  30 1.42
  46  0.439  0.934  0.001-  15 1.42  45 1.42   9 1.42
  47  0.572  0.800  0.001-  30 1.42  48 1.42  20 1.42
  48  0.639  0.934  0.001-  47 1.42  33 1.42  15 1.42
  49  0.772  0.800  0.001-  50 1.42  20 1.42  40 1.42
  50  0.839  0.934  0.001-  49 1.42   1 1.42  33 1.42
  51  0.373  0.251  0.315-  52 1.18  53 1.18
  52  0.421  0.189  0.318-  51 1.18
  53  0.325  0.313  0.312-  51 1.18
 
  LATTYP: Found a hexagonal cell.
 ALAT       =    12.3250000000
 C/A-ratio  =     1.6227180527
  
  Lattice vectors:
  
 A1 = (  12.3250000000,   0.0000000000,   0.0000000000)
 A2 = (  -6.1625000000,  10.6737631016,   0.0000000000)
 A3 = (   0.0000000000,   0.0000000000,  20.0000000000)


Analysis of symmetry for initial positions (statically):
=====================================================================
 Subroutine PRICEL returns:
 Original cell was already a primitive cell.
 

 Routine SETGRP: Setting up the symmetry group for a 
 hexagonal supercell.


 Subroutine GETGRP returns: Found  1 space group operations
 (whereof  1 operations were pure point group operations)
 out of a pool of 24 trial point group operations.


The static configuration has the point symmetry C_1 .


Analysis of symmetry for dynamics (positions and initial velocities):
=====================================================================
 Subroutine PRICEL returns:
 Original cell was already a primitive cell.
 

 Routine SETGRP: Setting up the symmetry group for a 
 hexagonal supercell.


 Subroutine GETGRP returns: Found  1 space group operations
 (whereof  1 operations were pure point group operations)
 out of a pool of 24 trial point group operations.


The dynamic configuration has the point symmetry C_1 .


 Subroutine INISYM returns: Found  1 space group operations
 (whereof  1 operations are pure point group operations),
 and found     1 'primitive' translations


----------------------------------------------------------------------------------------

                                     Primitive cell                                     

  volume of cell :    2631.0826

  direct lattice vectors                    reciprocal lattice vectors
    12.325000000  0.000000000  0.000000000     0.081135903  0.046843835  0.000000000
    -6.162500000 10.673763102  0.000000000     0.000000000  0.093687670  0.000000000
     0.000000000  0.000000000 20.000000000     0.000000000  0.000000000  0.050000000

  length of vectors
    12.325000000 12.325000000 20.000000000     0.093687670  0.093687670  0.050000000

  position of ions in fractional coordinates (direct lattice)
     0.972450841  0.000320818  0.000708389
     0.039118382  0.133659505  0.000550216
     0.172443627  0.000295449  0.000624535
     0.239096278  0.133647917  0.000320585
     0.972452058  0.200322012  0.000606523
     0.039128360  0.333643771  0.000555187
     0.172451764  0.200354552  0.000273959
     0.239124359  0.333665720  0.000090325
     0.372465565  0.000324403  0.000567391
     0.439137473  0.133619939  0.000322923
     0.972449824  0.400309362  0.000684513
     0.039124981  0.533636789  0.000716763
     0.372416176  0.400329481  0.000000000
     0.439099602  0.533638981  0.000290518
     0.572443676  0.000312125  0.000699475
     0.639110207  0.133631751  0.000684093
     0.972452703  0.600305653  0.000800361
     0.039124495  0.733640359  0.000818141
     0.572433471  0.600306242  0.000503618
     0.639111888  0.733641879  0.000659881
     0.172454630  0.400318228  0.000361306
     0.239120185  0.533636548  0.000473136
     0.372459750  0.200295993  0.000111246
     0.439107096  0.333673419  0.000069702
     0.172452155  0.600311506  0.000655425
     0.239123371  0.733638574  0.000718912
     0.572431082  0.200289171  0.000516621
     0.639112773  0.333618630  0.000577970
     0.372439808  0.600308022  0.000453556
     0.439116090  0.733637858  0.000617737
     0.572469358  0.400320504  0.000424897
     0.639119408  0.533650873  0.000574513
     0.772445723  0.000315427  0.000745201
     0.839116277  0.133640203  0.000719132
     0.772440513  0.200307432  0.000726291
     0.839120241  0.333635728  0.000731834
     0.772446320  0.400298367  0.000728722
     0.839118980  0.533633964  0.000776376
     0.772456143  0.600308173  0.000744639
     0.839115033  0.733643180  0.000789390
     0.972455313  0.800305582  0.000815291
     0.039114714  0.933643289  0.000747563
     0.172457971  0.800312211  0.000779216
     0.239134551  0.933647193  0.000681063
     0.372451396  0.800316674  0.000689249
     0.439124489  0.933644769  0.000676788
     0.572441101  0.800310054  0.000668168
     0.639115067  0.933638985  0.000734556
     0.772445098  0.800313187  0.000752577
     0.839116614  0.933644338  0.000758538
     0.373021009  0.251226878  0.314980263
     0.420879805  0.189313152  0.318201356
     0.325156981  0.313167186  0.312007519

  ion indices of the primitive-cell ions
   primitive index   ion index
                 1           1
                 2           2
                 3           3
                 4           4
                 5           5
                 6           6
                 7           7
                 8           8
                 9           9
                10          10
                11          11
                12          12
                13          13
                14          14
                15          15
                16          16
                17          17
                18          18
                19          19
                20          20
                21          21
                22          22
                23          23
                24          24
                25          25
                26          26
                27          27
                28          28
                29          29
                30          30
                31          31
                32          32
                33          33
                34          34
                35          35
                36          36
                37          37
                38          38
                39          39
                40          40
                41          41
                42          42
                43          43
                44          44
                45          45
                46          46
                47          47
                48          48
                49          49
                50          50
                51          51
                52          52
                53          53

----------------------------------------------------------------------------------------

 
 
 KPOINTS: auto                                    

Automatic generation of k-mesh.
 Grid dimensions read from file:
 generate k-points for:    1    1    1

 Generating k-lattice:

  Cartesian coordinates                     Fractional coordinates (reciprocal lattice)
     0.081135903  0.046843835  0.000000000     1.000000000 -0.000000000  0.000000000
     0.000000000  0.093687670  0.000000000     0.000000000  1.000000000  0.000000000
     0.000000000  0.000000000  0.050000000     0.000000000  0.000000000  1.000000000

  Length of vectors
     0.093687670  0.093687670  0.050000000

  Shift w.r.t. Gamma in fractional coordinates (k-lattice)
     0.000000000  0.000000000  0.000000000

 
 Subroutine IBZKPT returns following result:
 ===========================================
 
 Found      1 irreducible k-points:
 
 Following reciprocal coordinates:
            Coordinates               Weight
  0.000000  0.000000  0.000000      1.000000
 
 Following cartesian coordinates:
            Coordinates               Weight
  0.000000  0.000000  0.000000      1.000000
 


--------------------------------------------------------------------------------------------------------




 Dimension of arrays:
   k-points           NKPTS =      1   k-points in BZ     NKDIM =      1   number of bands    NBANDS=    168
   number of dos      NEDOS =    301   number of ions     NIONS =     53
   non local maximal  LDIM  =      4   non local SUM 2l+1 LMDIM =      8
   total plane-waves  NPLWV = ******
   max r-space proj   IRMAX =      1   max aug-charges    IRDMAX=   9736
   dimension x,y,z NGX =   128 NGY =  128 NGZ =  210
   dimension x,y,z NGXF=   256 NGYF=  256 NGZF=  420
   support grid    NGXF=   256 NGYF=  256 NGZF=  420
   ions per type =              51   2
   NGX,Y,Z   is equivalent  to a cutoff of  17.27, 17.27, 17.46 a.u.
   NGXF,Y,Z  is equivalent  to a cutoff of  34.53, 34.53, 34.91 a.u.

 SYSTEM =  unknown system                          
 POSCAR =   C  O                                   

 Startparameter for this run:
   NWRITE =      2    write-flag & timer
   PREC   = accura    normal or accurate (medium, high low for compatibility)
   ISTART =      0    job   : 0-new  1-cont  2-samecut
   ICHARG =      2    charge: 1-file 2-atom 10-const
   ISPIN  =      1    spin polarized calculation?
   LNONCOLLINEAR =      F non collinear calculations
   LSORBIT =      F    spin-orbit coupling
   INIWAV =      1    electr: 0-lowe 1-rand  2-diag
   LASPH  =      T    aspherical Exc in radial PAW
 Electronic Relaxation 1
   ENCUT  = 1000.0 eV  73.50 Ry    8.57 a.u.  31.78 31.78 51.57*2*pi/ulx,y,z
   ENINI  = 1000.0     initial cutoff
   ENAUG  =  946.8 eV  augmentation charge cutoff
   NELM   =     60;   NELMIN=  2; NELMDL= -5     # of ELM steps 
   EDIFF  = 0.1E-06   stopping-criterion for ELM
   LREAL  =      F    real-space projection
   NLSPLINE    = F    spline interpolate recip. space projectors
   LCOMPAT=      F    compatible to vasp.4.4
   GGA_COMPAT  = T    GGA compatible to vasp.4.4-vasp.4.6
   LMAXPAW     = -100 max onsite density
   LMAXMIX     =    2 max onsite mixed and CHGCAR
   VOSKOWN=      0    Vosko Wilk Nusair interpolation
   ROPT   =    0.00000   0.00000
 Ionic relaxation
   EDIFFG = 0.1E-05   stopping-criterion for IOM
   NSW    =      0    number of steps for IOM
   NBLOCK =      1;   KBLOCK =      1    inner block; outer block 
   IBRION =     -1    ionic relax: 0-MD 1-quasi-New 2-CG
   NFREE  =      0    steps in history (QN), initial steepest desc. (CG)
   ISIF   =      0    stress and relaxation
   IWAVPR =     10    prediction:  0-non 1-charg 2-wave 3-comb
   ISYM   =      2    0-nonsym 1-usesym 2-fastsym
   LCORR  =      T    Harris-Foulkes like correction to forces

   POTIM  = 0.5000    time-step for ionic-motion
   TEIN   =    0.0    initial temperature
   TEBEG  =    0.0;   TEEND  =   0.0 temperature during run
   SMASS  =  -3.00    Nose mass-parameter (am)
   estimated Nose-frequenzy (Omega)   =  0.10E-29 period in steps = 0.13E+47 mass=  -0.347E-26a.u.
   SCALEE = 1.0000    scale energy and forces
   NPACO  =    256;   APACO  = 16.0  distance and # of slots for P.C.
   PSTRESS=    0.0 pullay stress

  Mass of Ions in am
   POMASS =  12.01 16.00
  Ionic Valenz
   ZVAL   =   4.00  6.00
  Atomic Wigner-Seitz radii
   RWIGS  =  -1.00 -1.00
  virtual crystal weights 
   VCA    =   1.00  1.00
   NELECT =     216.0000    total number of electrons
   NUPDOWN=      -1.0000    fix difference up-down

 DOS related values:
   EMIN   =  10.00;   EMAX   =-10.00  energy-range for DOS
   EFERMI =   0.00
   ISMEAR =     0;   SIGMA  =   0.01  broadening in eV -4-tet -1-fermi 0-gaus

 Electronic relaxation 2 (details)
   IALGO  =     58    algorithm
   LDIAG  =      T    sub-space diagonalisation (order eigenvalues)
   LSUBROT=      F    optimize rotation matrix (better conditioning)
   TURBO    =      0    0=normal 1=particle mesh
   IRESTART =      0    0=no restart 2=restart with 2 vectors
   NREBOOT  =      0    no. of reboots
   NMIN     =      0    reboot dimension
   EREF     =   0.00    reference energy to select bands
   IMIX   =      4    mixing-type and parameters
     AMIX     =   0.40;   BMIX     =  1.00
     AMIX_MAG =   1.60;   BMIX_MAG =  1.00
     AMIN     =   0.10
     WC   =   100.;   INIMIX=   1;  MIXPRE=   1;  MAXMIX= -45

 Intra band minimization:
   WEIMIN = 0.0000     energy-eigenvalue tresh-hold
   EBREAK =  0.15E-09  absolut break condition
   DEPER  =   0.30     relativ break condition  

   TIME   =   0.40     timestep for ELM

  volume/ion in A,a.u.               =      49.64       335.01
  Fermi-wavevector in a.u.,A,eV,Ry     =   0.711510  1.344560  6.887909  0.506247
  Thomas-Fermi vector in A             =   1.798641
 
 Write flags
   LWAVE        =      T    write WAVECAR
   LDOWNSAMPLE  =      F    k-point downsampling of WAVECAR
   LCHARG       =      T    write CHGCAR
   LVTOT        =      F    write LOCPOT, total local potential
   LVHAR        =      F    write LOCPOT, Hartree potential only
   LELF         =      F    write electronic localiz. function (ELF)
   LORBIT       =      0    0 simple, 1 ext, 2 COOP (PROOUT), +10 PAW based schemes


 Dipole corrections
   LMONO  =      F    monopole corrections only (constant potential shift)
   LDIPOL =      F    correct potential (dipole corrections)
   IDIPOL =      0    1-x, 2-y, 3-z, 4-all directions 
   EPSILON=  1.0000000 bulk dielectric constant

 Exchange correlation treatment:
   GGA     =    --    GGA type
   LEXCH   =     8    internal setting for exchange type
   VOSKOWN=      0    Vosko Wilk Nusair interpolation
   LHFCALC =     F    Hartree Fock is set to
   LHFONE  =     F    Hartree Fock one center treatment
   AEXX    =    0.0000 exact exchange contribution

 Linear response parameters
   LEPSILON=     F    determine dielectric tensor
   LRPA    =     F    only Hartree local field effects (RPA)
   LNABLA  =     F    use nabla operator in PAW spheres
   LVEL    =     F    velocity operator in full k-point grid
   LINTERFAST=   F  fast interpolation
   KINTER  =     0    interpolate to denser k-point grid
   CSHIFT  =0.1000    complex shift for real part using Kramers Kronig
   OMEGAMAX=  -1.0    maximum frequency
   DEG_THRESHOLD= 0.2000000E-02 threshold for treating states as degnerate
   RTIME   =   -0.100 relaxation time in fs
  (WPLASMAI=    0.000 imaginary part of plasma frequency in eV, 0.658/RTIME)
   DFIELD  = 0.0000000 0.0000000 0.0000000 field for delta impulse in time
 
 Orbital magnetization related:
   ORBITALMAG=     F  switch on orbital magnetization
   LCHIMAG   =     F  perturbation theory with respect to B field
   DQ        =  0.001000  dq finite difference perturbation B field
   LLRAUG    =     F  two centre corrections for induced B field



--------------------------------------------------------------------------------------------------------


 Static calculation
 charge density and potential will be updated during run
 non-spin polarized calculation
 Conjugate gradient for all bands (Freysoldt, et al. PRB 79, 241103 (2009))
 preconditioned conjugated gradient                                        
 perform sub-space diagonalisation
    before iterative eigenvector-optimisation
 modified Broyden-mixing scheme, WC =      100.0
 initial mixing is a Kerker type mixing with AMIX =  0.4000 and BMIX =      1.0000
 Hartree-type preconditioning will be used
 using additional bands           60
 reciprocal scheme for non local part
 use partial core corrections
 no Harris-corrections to forces 
 use gradient corrections 
 use of overlap-Matrix (Vanderbilt PP)
 Gauss-broadening in eV      SIGMA  =   0.01


--------------------------------------------------------------------------------------------------------


  energy-cutoff  :     1000.00
  volume of cell :     2631.08
      direct lattice vectors                 reciprocal lattice vectors
    12.325000000  0.000000000  0.000000000     0.081135903  0.046843835  0.000000000
    -6.162500000 10.673763102  0.000000000     0.000000000  0.093687670  0.000000000
     0.000000000  0.000000000 20.000000000     0.000000000  0.000000000  0.050000000

  length of vectors
    12.325000000 12.325000000 20.000000000     0.093687670  0.093687670  0.050000000


 
 k-points in units of 2pi/SCALE and weight: auto                                    
   0.00000000  0.00000000  0.00000000       1.000
 
 k-points in reciprocal lattice and weights: auto                                    
   0.00000000  0.00000000  0.00000000       1.000
 
 position of ions in fractional coordinates (direct lattice) 
   0.97245084  0.00032082  0.00070839
   0.03911838  0.13365950  0.00055022
   0.17244363  0.00029545  0.00062454
   0.23909628  0.13364792  0.00032058
   0.97245206  0.20032201  0.00060652
   0.03912836  0.33364377  0.00055519
   0.17245176  0.20035455  0.00027396
   0.23912436  0.33366572  0.00009033
   0.37246557  0.00032440  0.00056739
   0.43913747  0.13361994  0.00032292
   0.97244982  0.40030936  0.00068451
   0.03912498  0.53363679  0.00071676
   0.37241618  0.40032948  0.00000000
   0.43909960  0.53363898  0.00029052
   0.57244368  0.00031213  0.00069947
   0.63911021  0.13363175  0.00068409
   0.97245270  0.60030565  0.00080036
   0.03912449  0.73364036  0.00081814
   0.57243347  0.60030624  0.00050362
   0.63911189  0.73364188  0.00065988
   0.17245463  0.40031823  0.00036131
   0.23912018  0.53363655  0.00047314
   0.37245975  0.20029599  0.00011125
   0.43910710  0.33367342  0.00006970
   0.17245216  0.60031151  0.00065542
   0.23912337  0.73363857  0.00071891
   0.57243108  0.20028917  0.00051662
   0.63911277  0.33361863  0.00057797
   0.37243981  0.60030802  0.00045356
   0.43911609  0.73363786  0.00061774
   0.57246936  0.40032050  0.00042490
   0.63911941  0.53365087  0.00057451
   0.77244572  0.00031543  0.00074520
   0.83911628  0.13364020  0.00071913
   0.77244051  0.20030743  0.00072629
   0.83912024  0.33363573  0.00073183
   0.77244632  0.40029837  0.00072872
   0.83911898  0.53363396  0.00077638
   0.77245614  0.60030817  0.00074464
   0.83911503  0.73364318  0.00078939
   0.97245531  0.80030558  0.00081529
   0.03911471  0.93364329  0.00074756
   0.17245797  0.80031221  0.00077922
   0.23913455  0.93364719  0.00068106
   0.37245140  0.80031667  0.00068925
   0.43912449  0.93364477  0.00067679
   0.57244110  0.80031005  0.00066817
   0.63911507  0.93363899  0.00073456
   0.77244510  0.80031319  0.00075258
   0.83911661  0.93364434  0.00075854
   0.37302101  0.25122688  0.31498026
   0.42087980  0.18931315  0.31820136
   0.32515698  0.31316719  0.31200752
 
 position of ions in cartesian coordinates  (Angst):
  11.98347958  0.00342433  0.01416777
  -0.34154264  1.42664989  0.01100432
   2.12354700  0.00315355  0.01249070
   2.12325634  1.42652621  0.00641170
  10.75098721  2.13818970  0.01213047
  -1.57382270  3.56123457  0.01110375
   0.89078307  2.13853702  0.00547917
   0.89099273  3.56146885  0.00180651
   4.58863896  0.00346260  0.01134782
   4.58893648  1.42622757  0.00645846
   9.51853763  4.27280730  0.01369027
  -2.80632132  5.69591267  0.01433526
   2.12299894  4.27302204  0.00000000
   2.12335237  5.69593607  0.00581036
   7.05344483  0.00333155  0.01398950
   7.05352764  1.42635365  0.01368187
   8.28609598  6.40752033  0.01600723
  -4.03884931  7.83070339  0.01636283
   3.35585531  6.40752662  0.01007237
   3.35598594  7.83071962  0.01319763
  -0.34145776  4.27290193  0.00722612
  -0.34137895  5.69591010  0.00946273
   3.35624236  2.13791198  0.00222492
   3.35573251  3.56155103  0.00139405
  -1.57394684  6.40758280  0.01310850
  -1.57385216  7.83068434  0.01437823
   5.82093107  2.13783916  0.01033241
   5.82114012  3.56096622  0.01155939
   0.89092245  6.40754561  0.00907111
   0.89106251  7.83067670  0.01235474
   4.58870974  4.27292622  0.00849795
   4.58852320  5.69606300  0.01149026
   9.51844972  0.00336679  0.01490402
   9.51855036  1.42644387  0.01438264
   8.28593477  2.13803408  0.01452582
   8.28612680  3.56114872  0.01463668
   7.05356221  4.27268994  0.01457444
   7.05362213  5.69588251  0.01552751
   5.82112285  6.40754723  0.01489279
   5.82101669  7.83073350  0.01578780
   7.05362858  8.54227219  0.01630582
  -5.27148792  9.96548729  0.01495127
  -2.80637951  8.54234295  0.01558431
  -2.80626749  9.96552896  0.01362126
  -0.34148805  8.54239058  0.01378498
  -0.34137657  9.96550309  0.01353576
   2.12342586  8.54231992  0.01336337
   2.12354296  9.96544135  0.01469111
   4.58845581  8.54235337  0.01505154
   4.58852904  9.96549848  0.01517076
   3.04929830  2.68153618  6.29960525
   4.02070129  2.02068374  6.36402711
   2.07766701  3.34267235  6.24015038
 


--------------------------------------------------------------------------------------------------------


 k-point   1 :   0.0000 0.0000 0.0000  plane waves:  189031

 maximum and minimum number of plane-waves per node :    189031   189031

 maximum number of plane-waves:    189031
 maximum index in each direction: 
   IXMAX=   31   IYMAX=   31   IZMAX=   51
   IXMIN=  -31   IYMIN=  -31   IZMIN=  -51


 serial   3D FFT for wavefunctions
 parallel 3D FFT for charge:
    minimum data exchange during FFTs selected (reduces bandwidth)


 total amount of memory used by VASP MPI-rank0   556209. kBytes
=======================================================================

   base      :      30000. kBytes
   nonl-proj :     184518. kBytes
   fftplans  :      31725. kBytes
   grid      :     282516. kBytes
   one-center:        162. kBytes
   wavefun   :      27288. kBytes
 
     INWAV:  cpu time    0.0000: real time    0.0000
 Broyden mixing: mesh for mixing (old mesh)
   NGX = 63   NGY = 63   NGZ =103
  (NGX  =256   NGY  =256   NGZ  =420)
  gives a total of 408807 points

 initial charge density was supplied:
 charge density of overlapping atoms calculated
 number of electron     216.0000000 magnetization 
 keeping initial charge density in first step


--------------------------------------------------------------------------------------------------------


 Maximum index for augmentation-charges          459 (set IRDMAX)


--------------------------------------------------------------------------------------------------------


 First call to EWALD:  gamma=   0.128
 Maximum number of real-space cells 3x 3x 2
 Maximum number of reciprocal cells 3x 3x 4

    FEWALD:  cpu time    0.0024: real time    0.0024


--------------------------------------- Iteration      1(   1)  ---------------------------------------


    POTLOK:  cpu time    1.2834: real time    1.2978
    SETDIJ:  cpu time    0.1992: real time    0.2004
    TRIAL :  cpu time   21.8712: real time   22.0642
    CORREC:  cpu time    0.0006: real time    0.0006
    --------------------------------------------
      LOOP:  cpu time   23.3680: real time   23.5778

 eigenvalue-minimisations  :   336
 total energy-change (2. order) : 0.2412798E+04  (-0.1180658E+05)
 number of electron     216.0000000 magnetization 
 augmentation part      216.0000000 magnetization 

 Free energy of the ion-electron system (eV)
  ---------------------------------------------------
  alpha Z        PSCENC =        59.93625244
  Ewald energy   TEWEN  =     30724.26977768
  -Hartree energ DENC   =    -36899.72034120
  -exchange      EXHF   =         0.00000000
  -V(xc)+E(xc)   XCENC  =       605.05892248
  PAW double counting   =      6340.10990386    -6200.63067283
  entropy T*S    EENTRO =        -0.00000035
  eigenvalues    EBANDS =      -585.74965699
  atomic energy  EATOM  =      8369.52358910
  ---------------------------------------------------
  free energy    TOTEN  =      2412.79777419 eV

  energy without entropy =     2412.79777454  energy(sigma->0) =     2412.79777436


--------------------------------------------------------------------------------------------------------




--------------------------------------- Iteration      1(   2)  ---------------------------------------


    TRIAL :  cpu time   31.0992: real time   31.3322
    CORREC:  cpu time    0.0001: real time    0.0001
    --------------------------------------------
      LOOP:  cpu time   31.1254: real time   31.3616

 eigenvalue-minimisations  :   560
 total energy-change (2. order) :-0.2435116E+04  (-0.2307594E+04)
 number of electron     216.0000000 magnetization 
 augmentation part      216.0000000 magnetization 

 Free energy of the ion-electron system (eV)
  ---------------------------------------------------
  alpha Z        PSCENC =        59.93625244
  Ewald energy   TEWEN  =     30724.26977768
  -Hartree energ DENC   =    -36899.72034120
  -exchange      EXHF   =         0.00000000
  -V(xc)+E(xc)   XCENC  =       605.05892248
  PAW double counting   =      6340.10990386    -6200.63067283
  entropy T*S    EENTRO =        -0.00000000
  eigenvalues    EBANDS =     -3020.86535449
  atomic energy  EATOM  =      8369.52358910
  ---------------------------------------------------
  free energy    TOTEN  =       -22.31792296 eV

  energy without entropy =      -22.31792296  energy(sigma->0) =      -22.31792296


--------------------------------------------------------------------------------------------------------




--------------------------------------- Iteration      1(   3)  ---------------------------------------


    TRIAL :  cpu time   24.1507: real time   24.3406
    CORREC:  cpu time    0.0001: real time    0.0001
    --------------------------------------------
      LOOP:  cpu time   24.1876: real time   24.4001

 eigenvalue-minimisations  :   392
 total energy-change (2. order) :-0.5585249E+03  (-0.5556463E+03)
 number of electron     216.0000000 magnetization 
 augmentation part      216.0000000 magnetization 

 Free energy of the ion-electron system (eV)
  ---------------------------------------------------
  alpha Z        PSCENC =        59.93625244
  Ewald energy   TEWEN  =     30724.26977768
  -Hartree energ DENC   =    -36899.72034120
  -exchange      EXHF   =         0.00000000
  -V(xc)+E(xc)   XCENC  =       605.05892248
  PAW double counting   =      6340.10990386    -6200.63067283
  entropy T*S    EENTRO =        -0.00000000
  eigenvalues    EBANDS =     -3579.39028586
  atomic energy  EATOM  =      8369.52358910
  ---------------------------------------------------
  free energy    TOTEN  =      -580.84285434 eV

  energy without entropy =     -580.84285434  energy(sigma->0) =     -580.84285434


--------------------------------------------------------------------------------------------------------




--------------------------------------- Iteration      1(   4)  ---------------------------------------


    TRIAL :  cpu time   26.4834: real time   26.6873
    CORREC:  cpu time    0.0001: real time    0.0003
    --------------------------------------------
      LOOP:  cpu time   26.5019: real time   26.7063

 eigenvalue-minimisations  :   448
 total energy-change (2. order) :-0.2599669E+02  (-0.2584354E+02)
 number of electron     216.0000000 magnetization 
 augmentation part      216.0000000 magnetization 

 Free energy of the ion-electron system (eV)
  ---------------------------------------------------
  alpha Z        PSCENC =        59.93625244
  Ewald energy   TEWEN  =     30724.26977768
  -Hartree energ DENC   =    -36899.72034120
  -exchange      EXHF   =         0.00000000
  -V(xc)+E(xc)   XCENC  =       605.05892248
  PAW double counting   =      6340.10990386    -6200.63067283
  entropy T*S    EENTRO =        -0.00000000
  eigenvalues    EBANDS =     -3605.38697690
  atomic energy  EATOM  =      8369.52358910
  ---------------------------------------------------
  free energy    TOTEN  =      -606.83954537 eV

  energy without entropy =     -606.83954537  energy(sigma->0) =     -606.83954537


--------------------------------------------------------------------------------------------------------




--------------------------------------- Iteration      1(   5)  ---------------------------------------


    TRIAL :  cpu time   26.4854: real time   26.6900
    CORREC:  cpu time    0.0001: real time    0.0001
    CHARGE:  cpu time    2.2954: real time    2.3121
    --------------------------------------------
      LOOP:  cpu time   28.7946: real time   29.0583

 eigenvalue-minimisations  :   448
 total energy-change (2. order) :-0.9033812E+00  (-0.8993154E+00)
 number of electron     216.0000000 magnetization 
 augmentation part       -0.4471434 magnetization 

 Free energy of the ion-electron system (eV)
  ---------------------------------------------------
  alpha Z        PSCENC =        59.93625244
  Ewald energy   TEWEN  =     30724.26977768
  -Hartree energ DENC   =    -36899.72034120
  -exchange      EXHF   =         0.00000000
  -V(xc)+E(xc)   XCENC  =       605.05892248
  PAW double counting   =      6340.10990386    -6200.63067283
  entropy T*S    EENTRO =        -0.00000000
  eigenvalues    EBANDS =     -3606.29035812
  atomic energy  EATOM  =      8369.52358910
  ---------------------------------------------------
  free energy    TOTEN  =      -607.74292659 eV

  energy without entropy =     -607.74292659  energy(sigma->0) =     -607.74292659


--------------------------------------------------------------------------------------------------------




--------------------------------------- Iteration      1(   6)  ---------------------------------------


    POTLOK:  cpu time    1.2615: real time    1.2687
    SETDIJ:  cpu time    0.1797: real time    0.1804
    TRIAL :  cpu time   15.6125: real time   15.7214
    CORREC:  cpu time    6.8843: real time    6.9351
    CHARGE:  cpu time    2.2846: real time    2.3026
    --------------------------------------------
      LOOP:  cpu time   26.2638: real time   26.4693

 eigenvalue-minimisations  :     0
 total energy-change (2. order) : 0.9800444E+02  (-0.1134367E+02)
 number of electron     216.0000000 magnetization 
 augmentation part       -0.5045508 magnetization 

 Free energy of the ion-electron system (eV)
  ---------------------------------------------------
  alpha Z        PSCENC =        59.93625244
  Ewald energy   TEWEN  =     30724.26977768
  -Hartree energ DENC   =    -38214.17341903
  -exchange      EXHF   =         0.00000000
  -V(xc)+E(xc)   XCENC  =       676.78007243
  PAW double counting   =    119366.97270204  -119227.38725265
  entropy T*S    EENTRO =        -0.00000000
  eigenvalues    EBANDS =     -2265.66020544
  atomic energy  EATOM  =      8369.52358910
  ---------------------------------------------------
  free energy    TOTEN  =      -509.73848342 eV

  energy without entropy =     -509.73848342  energy(sigma->0) =     -509.73848342


--------------------------------------------------------------------------------------------------------




--------------------------------------- Iteration      1(   7)  ---------------------------------------


    POTLOK:  cpu time    1.2572: real time    1.2647
    SETDIJ:  cpu time    0.1769: real time    0.1776
    TRIAL :  cpu time   15.5803: real time   15.6981
    CORREC:  cpu time    6.8818: real time    6.9327
    CHARGE:  cpu time    2.2898: real time    2.3061
    --------------------------------------------
      LOOP:  cpu time   26.2605: real time   26.4560

 eigenvalue-minimisations  :     0
 total energy-change (2. order) :-0.1135979E+02  (-0.1470488E+01)
 number of electron     216.0000000 magnetization 
 augmentation part       -0.5381041 magnetization 

 Free energy of the ion-electron system (eV)
  ---------------------------------------------------
  alpha Z        PSCENC =        59.93625244
  Ewald energy   TEWEN  =     30724.26977768
  -Hartree energ DENC   =    -37810.61176964
  -exchange      EXHF   =         0.00000000
  -V(xc)+E(xc)   XCENC  =       659.05575568
  PAW double counting   =    138548.54754529  -138407.21350783
  entropy T*S    EENTRO =        -0.00000000
  eigenvalues    EBANDS =     -2664.60592054
  atomic energy  EATOM  =      8369.52358910
  ---------------------------------------------------
  free energy    TOTEN  =      -521.09827783 eV

  energy without entropy =     -521.09827783  energy(sigma->0) =     -521.09827783


--------------------------------------------------------------------------------------------------------




--------------------------------------- Iteration      1(   8)  ---------------------------------------


    POTLOK:  cpu time    1.2577: real time    1.2652
    SETDIJ:  cpu time    0.1774: real time    0.1780
    TRIAL :  cpu time   15.5925: real time   15.7081
    CORREC:  cpu time    6.8835: real time    6.9331
    CHARGE:  cpu time    2.2857: real time    2.3024
    --------------------------------------------
      LOOP:  cpu time   26.2171: real time   26.4265

 eigenvalue-minimisations  :     0
 total energy-change (2. order) :-0.1470139E+01  (-0.4543341E+00)
 number of electron     216.0000000 magnetization 
 augmentation part       -0.5406260 magnetization 

 Free energy of the ion-electron system (eV)
  ---------------------------------------------------
  alpha Z        PSCENC =        59.93625244
  Ewald energy   TEWEN  =     30724.26977768
  -Hartree energ DENC   =    -37781.51649911
  -exchange      EXHF   =         0.00000000
  -V(xc)+E(xc)   XCENC  =       657.99872001
  PAW double counting   =    148123.07924141  -147981.62084347
  entropy T*S    EENTRO =        -0.00000000
  eigenvalues    EBANDS =     -2694.23865465
  atomic energy  EATOM  =      8369.52358910
  ---------------------------------------------------
  free energy    TOTEN  =      -522.56841658 eV

  energy without entropy =     -522.56841658  energy(sigma->0) =     -522.56841658


--------------------------------------------------------------------------------------------------------




--------------------------------------- Iteration      1(   9)  ---------------------------------------


    POTLOK:  cpu time    1.2555: real time    1.2626
    SETDIJ:  cpu time    0.1809: real time    0.1815
    TRIAL :  cpu time   15.6147: real time   15.7314
    CORREC:  cpu time    6.8864: real time    6.9357
    CHARGE:  cpu time    2.2867: real time    2.3025
    --------------------------------------------
      LOOP:  cpu time   26.2585: real time   26.4505

 eigenvalue-minimisations  :     0
 total energy-change (2. order) :-0.4543098E+00  (-0.1736610E+00)
 number of electron     216.0000000 magnetization 
 augmentation part       -0.5387364 magnetization 

 Free energy of the ion-electron system (eV)
  ---------------------------------------------------
  alpha Z        PSCENC =        59.93625244
  Ewald energy   TEWEN  =     30724.26977768
  -Hartree energ DENC   =    -37789.14887091
  -exchange      EXHF   =         0.00000000
  -V(xc)+E(xc)   XCENC  =       657.99455966
  PAW double counting   =    155922.45875449  -155780.93358735
  entropy T*S    EENTRO =        -0.00000000
  eigenvalues    EBANDS =     -2687.12320146
  atomic energy  EATOM  =      8369.52358910
  ---------------------------------------------------
  free energy    TOTEN  =      -523.02272636 eV

  energy without entropy =     -523.02272636  energy(sigma->0) =     -523.02272636


--------------------------------------------------------------------------------------------------------




--------------------------------------- Iteration      1(  10)  ---------------------------------------


    POTLOK:  cpu time    1.2584: real time    1.2790
    SETDIJ:  cpu time    0.1626: real time    0.1632
    TRIAL :  cpu time   15.5962: real time   15.7174
    CORREC:  cpu time    6.8933: real time    6.9645
    CHARGE:  cpu time    2.2902: real time    2.3092
    --------------------------------------------
      LOOP:  cpu time   26.2251: real time   26.5046

 eigenvalue-minimisations  :     0
 total energy-change (2. order) :-0.1735150E+00  (-0.7481426E-01)
 number of electron     216.0000000 magnetization 
 augmentation part       -0.5341218 magnetization 

 Free energy of the ion-electron system (eV)
  ---------------------------------------------------
  alpha Z        PSCENC =        59.93625244
  Ewald energy   TEWEN  =     30724.26977768
  -Hartree energ DENC   =    -37788.87101105
  -exchange      EXHF   =         0.00000000
  -V(xc)+E(xc)   XCENC  =       657.92189915
  PAW double counting   =    159739.84095614  -159598.27058448
  entropy T*S    EENTRO =        -0.00000000
  eigenvalues    EBANDS =     -2687.54712033
  atomic energy  EATOM  =      8369.52358910
  ---------------------------------------------------
  free energy    TOTEN  =      -523.19624135 eV

  energy without entropy =     -523.19624135  energy(sigma->0) =     -523.19624135


--------------------------------------------------------------------------------------------------------




--------------------------------------- Iteration      1(  11)  ---------------------------------------


    POTLOK:  cpu time    1.2568: real time    1.2652
    SETDIJ:  cpu time    0.1741: real time    0.1747
    TRIAL :  cpu time   15.5970: real time   15.7343
    CORREC:  cpu time    6.8831: real time    6.9367
    CHARGE:  cpu time    2.2849: real time    2.3034
    --------------------------------------------
      LOOP:  cpu time   26.2611: real time   26.4811

 eigenvalue-minimisations  :     0
 total energy-change (2. order) :-0.7464269E-01  (-0.2941903E-01)
 number of electron     216.0000000 magnetization 
 augmentation part       -0.5308167 magnetization 

 Free energy of the ion-electron system (eV)
  ---------------------------------------------------
  alpha Z        PSCENC =        59.93625244
  Ewald energy   TEWEN  =     30724.26977768
  -Hartree energ DENC   =    -37783.51121789
  -exchange      EXHF   =         0.00000000
  -V(xc)+E(xc)   XCENC  =       657.85709567
  PAW double counting   =    160543.02638249  -160401.47439018
  entropy T*S    EENTRO =        -0.00000000
  eigenvalues    EBANDS =     -2692.89837335
  atomic energy  EATOM  =      8369.52358910
  ---------------------------------------------------
  free energy    TOTEN  =      -523.27088405 eV

  energy without entropy =     -523.27088405  energy(sigma->0) =     -523.27088405


--------------------------------------------------------------------------------------------------------




--------------------------------------- Iteration      1(  12)  ---------------------------------------


    POTLOK:  cpu time    1.2593: real time    1.2667
    SETDIJ:  cpu time    0.1748: real time    0.1755
    TRIAL :  cpu time   15.5506: real time   15.7015
    CORREC:  cpu time    6.8867: real time    6.9371
    CHARGE:  cpu time    2.2801: real time    2.2963
    --------------------------------------------
      LOOP:  cpu time   26.1631: real time   26.4016

 eigenvalue-minimisations  :     0
 total energy-change (2. order) :-0.2937815E-01  (-0.9439500E-02)
 number of electron     216.0000000 magnetization 
 augmentation part       -0.5305412 magnetization 

 Free energy of the ion-electron system (eV)
  ---------------------------------------------------
  alpha Z        PSCENC =        59.93625244
  Ewald energy   TEWEN  =     30724.26977768
  -Hartree energ DENC   =    -37779.31773111
  -exchange      EXHF   =         0.00000000
  -V(xc)+E(xc)   XCENC  =       657.79055621
  PAW double counting   =    160103.70163448  -159962.17453339
  entropy T*S    EENTRO =        -0.00000000
  eigenvalues    EBANDS =     -2697.02980759
  atomic energy  EATOM  =      8369.52358910
  ---------------------------------------------------
  free energy    TOTEN  =      -523.30026220 eV

  energy without entropy =     -523.30026220  energy(sigma->0) =     -523.30026220


--------------------------------------------------------------------------------------------------------




--------------------------------------- Iteration      1(  13)  ---------------------------------------


    POTLOK:  cpu time    1.2545: real time    1.2615
    SETDIJ:  cpu time    0.1843: real time    0.1849
    TRIAL :  cpu time   15.5986: real time   15.7208
    CORREC:  cpu time    6.8889: real time    6.9389
    CHARGE:  cpu time    2.2802: real time    2.2986
    --------------------------------------------
      LOOP:  cpu time   26.2270: real time   26.4258

 eigenvalue-minimisations  :     0
 total energy-change (2. order) :-0.9421012E-02  (-0.2636539E-02)
 number of electron     216.0000000 magnetization 
 augmentation part       -0.5309913 magnetization 

 Free energy of the ion-electron system (eV)
  ---------------------------------------------------
  alpha Z        PSCENC =        59.93625244
  Ewald energy   TEWEN  =     30724.26977768
  -Hartree energ DENC   =    -37777.99655405
  -exchange      EXHF   =         0.00000000
  -V(xc)+E(xc)   XCENC  =       657.74328802
  PAW double counting   =    159464.08973615  -159322.56747330
  entropy T*S    EENTRO =        -0.00000000
  eigenvalues    EBANDS =     -2698.30829924
  atomic energy  EATOM  =      8369.52358910
  ---------------------------------------------------
  free energy    TOTEN  =      -523.30968321 eV

  energy without entropy =     -523.30968321  energy(sigma->0) =     -523.30968321


--------------------------------------------------------------------------------------------------------




--------------------------------------- Iteration      1(  14)  ---------------------------------------


    POTLOK:  cpu time    1.2589: real time    1.2679
    SETDIJ:  cpu time    0.1795: real time    0.1802
    TRIAL :  cpu time   15.5773: real time   15.7154
    CORREC:  cpu time    6.8788: real time    6.9285
    CHARGE:  cpu time    2.2828: real time    2.2992
    --------------------------------------------
      LOOP:  cpu time   26.1811: real time   26.4185

 eigenvalue-minimisations  :     0
 total energy-change (2. order) :-0.2625321E-02  (-0.7011575E-03)
 number of electron     216.0000000 magnetization 
 augmentation part       -0.5312580 magnetization 

 Free energy of the ion-electron system (eV)
  ---------------------------------------------------
  alpha Z        PSCENC =        59.93625244
  Ewald energy   TEWEN  =     30724.26977768
  -Hartree energ DENC   =    -37778.05300339
  -exchange      EXHF   =         0.00000000
  -V(xc)+E(xc)   XCENC  =       657.73258003
  PAW double counting   =    159060.94638442  -158919.42334080
  entropy T*S    EENTRO =        -0.00000000
  eigenvalues    EBANDS =     -2698.24454800
  atomic energy  EATOM  =      8369.52358910
  ---------------------------------------------------
  free energy    TOTEN  =      -523.31230853 eV

  energy without entropy =     -523.31230853  energy(sigma->0) =     -523.31230853


--------------------------------------------------------------------------------------------------------




--------------------------------------- Iteration      1(  15)  ---------------------------------------


    POTLOK:  cpu time    1.2581: real time    1.2655
    SETDIJ:  cpu time    0.1778: real time    0.1784
    TRIAL :  cpu time   15.6130: real time   15.7282
    CORREC:  cpu time    6.8811: real time    6.9333
    CHARGE:  cpu time    2.2878: real time    2.3040
    --------------------------------------------
      LOOP:  cpu time   26.2494: real time   26.4432

 eigenvalue-minimisations  :     0
 total energy-change (2. order) :-0.6964470E-03  (-0.1977315E-03)
 number of electron     216.0000000 magnetization 
 augmentation part       -0.5314470 magnetization 

 Free energy of the ion-electron system (eV)
  ---------------------------------------------------
  alpha Z        PSCENC =        59.93625244
  Ewald energy   TEWEN  =     30724.26977768
  -Hartree energ DENC   =    -37777.95575939
  -exchange      EXHF   =         0.00000000
  -V(xc)+E(xc)   XCENC  =       657.72617420
  PAW double counting   =    158865.55750802  -158724.03335544
  entropy T*S    EENTRO =        -0.00000000
  eigenvalues    EBANDS =     -2698.33719158
  atomic energy  EATOM  =      8369.52358910
  ---------------------------------------------------
  free energy    TOTEN  =      -523.31300497 eV

  energy without entropy =     -523.31300497  energy(sigma->0) =     -523.31300497


--------------------------------------------------------------------------------------------------------




--------------------------------------- Iteration      1(  16)  ---------------------------------------


    POTLOK:  cpu time    1.2533: real time    1.2604
    SETDIJ:  cpu time    0.1817: real time    0.1823
    TRIAL :  cpu time   15.5857: real time   15.6985
    CORREC:  cpu time    6.8958: real time    6.9414
    CHARGE:  cpu time    2.2874: real time    2.3094
    --------------------------------------------
      LOOP:  cpu time   26.2371: real time   26.4697

 eigenvalue-minimisations  :     0
 total energy-change (2. order) :-0.1957500E-03  (-0.6151775E-04)
 number of electron     216.0000000 magnetization 
 augmentation part       -0.5315267 magnetization 

 Free energy of the ion-electron system (eV)
  ---------------------------------------------------
  alpha Z        PSCENC =        59.93625244
  Ewald energy   TEWEN  =     30724.26977768
  -Hartree energ DENC   =    -37777.86615841
  -exchange      EXHF   =         0.00000000
  -V(xc)+E(xc)   XCENC  =       657.72076356
  PAW double counting   =    158756.46344001  -158614.93778970
  entropy T*S    EENTRO =        -0.00000000
  eigenvalues    EBANDS =     -2698.42307540
  atomic energy  EATOM  =      8369.52358910
  ---------------------------------------------------
  free energy    TOTEN  =      -523.31320072 eV

  energy without entropy =     -523.31320072  energy(sigma->0) =     -523.31320072


--------------------------------------------------------------------------------------------------------




--------------------------------------- Iteration      1(  17)  ---------------------------------------


    POTLOK:  cpu time    1.2552: real time    1.2623
    SETDIJ:  cpu time    0.1804: real time    0.1810
    TRIAL :  cpu time   15.6006: real time   15.7111
    CORREC:  cpu time    6.8810: real time    6.9278
    CHARGE:  cpu time    2.2695: real time    2.2965
    --------------------------------------------
      LOOP:  cpu time   26.2747: real time   26.4686

 eigenvalue-minimisations  :     0
 total energy-change (2. order) :-0.6046283E-04  (-0.2107016E-04)
 number of electron     216.0000000 magnetization 
 augmentation part       -0.5315561 magnetization 

 Free energy of the ion-electron system (eV)
  ---------------------------------------------------
  alpha Z        PSCENC =        59.93625244
  Ewald energy   TEWEN  =     30724.26977768
  -Hartree energ DENC   =    -37777.99592133
  -exchange      EXHF   =         0.00000000
  -V(xc)+E(xc)   XCENC  =       657.72604738
  PAW double counting   =    158690.15513302  -158548.62929382
  entropy T*S    EENTRO =        -0.00000000
  eigenvalues    EBANDS =     -2698.29884565
  atomic energy  EATOM  =      8369.52358910
  ---------------------------------------------------
  free energy    TOTEN  =      -523.31326119 eV

  energy without entropy =     -523.31326119  energy(sigma->0) =     -523.31326119


--------------------------------------------------------------------------------------------------------




--------------------------------------- Iteration      1(  18)  ---------------------------------------


    POTLOK:  cpu time    1.2643: real time    1.2714
    SETDIJ:  cpu time    0.1730: real time    0.1735
    TRIAL :  cpu time   15.6040: real time   15.7151
    CORREC:  cpu time    6.8847: real time    6.9314
    CHARGE:  cpu time    2.2886: real time    2.3044
    --------------------------------------------
      LOOP:  cpu time   26.2405: real time   26.4232

 eigenvalue-minimisations  :     0
 total energy-change (2. order) :-0.2114597E-04  (-0.6630148E-05)
 number of electron     216.0000000 magnetization 
 augmentation part       -0.5315695 magnetization 

 Free energy of the ion-electron system (eV)
  ---------------------------------------------------
  alpha Z        PSCENC =        59.93625244
  Ewald energy   TEWEN  =     30724.26977768
  -Hartree energ DENC   =    -37778.04644441
  -exchange      EXHF   =         0.00000000
  -V(xc)+E(xc)   XCENC  =       657.72775614
  PAW double counting   =    158663.89515825  -158522.36901613
  entropy T*S    EENTRO =        -0.00000000
  eigenvalues    EBANDS =     -2698.25035541
  atomic energy  EATOM  =      8369.52358910
  ---------------------------------------------------
  free energy    TOTEN  =      -523.31328233 eV

  energy without entropy =     -523.31328233  energy(sigma->0) =     -523.31328233


--------------------------------------------------------------------------------------------------------




--------------------------------------- Iteration      1(  19)  ---------------------------------------


    POTLOK:  cpu time    1.2581: real time    1.2654
    SETDIJ:  cpu time    0.1805: real time    0.1811
    TRIAL :  cpu time   15.5836: real time   15.7000
    CORREC:  cpu time    6.8927: real time    6.9436
    CHARGE:  cpu time    2.2827: real time    2.3016
    --------------------------------------------
      LOOP:  cpu time   26.2191: real time   26.4267

 eigenvalue-minimisations  :     0
 total energy-change (2. order) :-0.6873743E-05  (-0.2241745E-05)
 number of electron     216.0000000 magnetization 
 augmentation part       -0.5315719 magnetization 

 Free energy of the ion-electron system (eV)
  ---------------------------------------------------
  alpha Z        PSCENC =        59.93625244
  Ewald energy   TEWEN  =     30724.26977768
  -Hartree energ DENC   =    -37778.04821334
  -exchange      EXHF   =         0.00000000
  -V(xc)+E(xc)   XCENC  =       657.72765356
  PAW double counting   =    158663.87042726  -158522.34406680
  entropy T*S    EENTRO =        -0.00000000
  eigenvalues    EBANDS =     -2698.24870910
  atomic energy  EATOM  =      8369.52358910
  ---------------------------------------------------
  free energy    TOTEN  =      -523.31328921 eV

  energy without entropy =     -523.31328921  energy(sigma->0) =     -523.31328921


--------------------------------------------------------------------------------------------------------




--------------------------------------- Iteration      1(  20)  ---------------------------------------


    POTLOK:  cpu time    1.2536: real time    1.2608
    SETDIJ:  cpu time    0.1794: real time    0.1801
    TRIAL :  cpu time   15.6032: real time   15.7196
    CORREC:  cpu time    6.9017: real time    6.9487
    CHARGE:  cpu time    2.2878: real time    2.3042
    --------------------------------------------
      LOOP:  cpu time   26.2601: real time   26.4669

 eigenvalue-minimisations  :     0
 total energy-change (2. order) :-0.2322835E-05  (-0.7152974E-06)
 number of electron     216.0000000 magnetization 
 augmentation part       -0.5315708 magnetization 

 Free energy of the ion-electron system (eV)
  ---------------------------------------------------
  alpha Z        PSCENC =        59.93625244
  Ewald energy   TEWEN  =     30724.26977768
  -Hartree energ DENC   =    -37778.06529795
  -exchange      EXHF   =         0.00000000
  -V(xc)+E(xc)   XCENC  =       657.72831194
  PAW double counting   =    158670.51328866  -158528.98692566
  entropy T*S    EENTRO =        -0.00000000
  eigenvalues    EBANDS =     -2698.23228774
  atomic energy  EATOM  =      8369.52358910
  ---------------------------------------------------
  free energy    TOTEN  =      -523.31329153 eV

  energy without entropy =     -523.31329153  energy(sigma->0) =     -523.31329153


--------------------------------------------------------------------------------------------------------




--------------------------------------- Iteration      1(  21)  ---------------------------------------


    POTLOK:  cpu time    1.2572: real time    1.2645
    SETDIJ:  cpu time    0.1780: real time    0.1786
    TRIAL :  cpu time   15.5831: real time   15.6978
    CORREC:  cpu time    6.8866: real time    6.9407
    CHARGE:  cpu time    2.2799: real time    2.2987
    --------------------------------------------
      LOOP:  cpu time   26.2085: real time   26.4078

 eigenvalue-minimisations  :     0
 total energy-change (2. order) :-0.7280614E-06  (-0.2365532E-06)
 number of electron     216.0000000 magnetization 
 augmentation part       -0.5315660 magnetization 

 Free energy of the ion-electron system (eV)
  ---------------------------------------------------
  alpha Z        PSCENC =        59.93625244
  Ewald energy   TEWEN  =     30724.26977768
  -Hartree energ DENC   =    -37778.07440974
  -exchange      EXHF   =         0.00000000
  -V(xc)+E(xc)   XCENC  =       657.72850725
  PAW double counting   =    158676.32025225  -158534.79389239
  entropy T*S    EENTRO =        -0.00000000
  eigenvalues    EBANDS =     -2698.22336884
  atomic energy  EATOM  =      8369.52358910
  ---------------------------------------------------
  free energy    TOTEN  =      -523.31329226 eV

  energy without entropy =     -523.31329226  energy(sigma->0) =     -523.31329226


--------------------------------------------------------------------------------------------------------




--------------------------------------- Iteration      1(  22)  ---------------------------------------


    POTLOK:  cpu time    1.2559: real time    1.2646
    SETDIJ:  cpu time    0.1794: real time    0.1800
    TRIAL :  cpu time   15.5932: real time   15.7277
    CORREC:  cpu time    6.8848: real time    6.9394
    CHARGE:  cpu time    2.2838: real time    2.3027
    --------------------------------------------
      LOOP:  cpu time   26.2101: real time   26.4463

 eigenvalue-minimisations  :     0
 total energy-change (2. order) :-0.2264860E-06  (-0.1032552E-06)
 number of electron     216.0000000 magnetization 
 augmentation part       -0.5315611 magnetization 

 Free energy of the ion-electron system (eV)
  ---------------------------------------------------
  alpha Z        PSCENC =        59.93625244
  Ewald energy   TEWEN  =     30724.26977768
  -Hartree energ DENC   =    -37778.07563325
  -exchange      EXHF   =         0.00000000
  -V(xc)+E(xc)   XCENC  =       657.72850077
  PAW double counting   =    158679.73446566  -158538.20813253
  entropy T*S    EENTRO =        -0.00000000
  eigenvalues    EBANDS =     -2698.22211235
  atomic energy  EATOM  =      8369.52358910
  ---------------------------------------------------
  free energy    TOTEN  =      -523.31329248 eV

  energy without entropy =     -523.31329248  energy(sigma->0) =     -523.31329248


--------------------------------------------------------------------------------------------------------




--------------------------------------- Iteration      1(  23)  ---------------------------------------


    POTLOK:  cpu time    1.2553: real time    1.2639
    SETDIJ:  cpu time    0.1785: real time    0.1792
    TRIAL :  cpu time   15.6115: real time   15.7240
    CORREC:  cpu time    6.8940: real time    6.9416
    EDDIAG:  cpu time    3.2146: real time    3.2405
    CHARGE:  cpu time    2.2778: real time    2.2936
    --------------------------------------------
      LOOP:  cpu time   29.4641: real time   29.6842

 eigenvalue-minimisations  :     0
 total energy-change (2. order) :-0.8594361E-07  (-0.8216574E-07)
 number of electron     216.0000000 magnetization 
 augmentation part       -0.5315571 magnetization 

 Free energy of the ion-electron system (eV)
  ---------------------------------------------------
  alpha Z        PSCENC =        59.93625244
  Ewald energy   TEWEN  =     30724.26977768
  -Hartree energ DENC   =    -37778.07514965
  -exchange      EXHF   =         0.00000000
  -V(xc)+E(xc)   XCENC  =       657.72848672
  PAW double counting   =    158681.74216640  -158540.21586524
  entropy T*S    EENTRO =        -0.00000000
  eigenvalues    EBANDS =     -2698.22255002
  atomic energy  EATOM  =      8369.52358910
  ---------------------------------------------------
  free energy    TOTEN  =      -523.31329257 eV

  energy without entropy =     -523.31329257  energy(sigma->0) =     -523.31329257


--------------------------------------------------------------------------------------------------------


  average scaling for gradient   0.9920


 average (electrostatic) potential at core
  the test charge radii are     0.5770  0.5955
  (the norm of the test charge is              1.0000)
       1 -87.6325       2 -87.6317       3 -87.6330       4 -87.6339       5 -87.6306
       6 -87.6302       7 -87.6328       8 -87.6312       9 -87.6314      10 -87.6324
      11 -87.6301      12 -87.6304      13 -87.6322      14 -87.6312      15 -87.6301
      16 -87.6305      17 -87.6311      18 -87.6318      19 -87.6323      20 -87.6312
      21 -87.6301      22 -87.6298      23 -87.6344      24 -87.6343      25 -87.6299
      26 -87.6303      27 -87.6315      28 -87.6328      29 -87.6301      30 -87.6299
      31 -87.6334      32 -87.6325      33 -87.6307      34 -87.6303      35 -87.6303
      36 -87.6307      37 -87.6315      38 -87.6321      39 -87.6321      40 -87.6320
      41 -87.6320      42 -87.6324      43 -87.6313      44 -87.6325      45 -87.6300
      46 -87.6303      47 -87.6304      48 -87.6301      49 -87.6320      50 -87.6314
      51 -91.5275      52-123.9108      53-123.9099
 
 
 
 E-fermi :  -4.0729     XC(G=0):  -2.3533     alpha+bet : -2.1113

 Fermi energy:        -4.0729079133

 k-point     1 :       0.0000    0.0000    0.0000
  band No.  band energies     occupation 
      1     -28.8074      2.00000
      2     -27.6988      2.00000
      3     -23.3381      2.00000
      4     -22.3457      2.00000
      5     -22.3447      2.00000
      6     -22.3446      2.00000
      7     -22.3437      2.00000
      8     -22.3436      2.00000
      9     -22.3435      2.00000
     10     -20.3986      2.00000
     11     -20.3985      2.00000
     12     -20.3983      2.00000
     13     -20.3976      2.00000
     14     -20.3973      2.00000
     15     -20.3971      2.00000
     16     -19.4559      2.00000
     17     -19.4557      2.00000
     18     -19.4554      2.00000
     19     -19.4549      2.00000
     20     -19.4543      2.00000
     21     -19.4541      2.00000
     22     -17.2154      2.00000
     23     -17.2150      2.00000
     24     -17.2141      2.00000
     25     -17.2139      2.00000
     26     -17.2135      2.00000
     27     -17.2134      2.00000
     28     -16.0469      2.00000
     29     -16.0469      2.00000
     30     -16.0460      2.00000
     31     -16.0458      2.00000
     32     -16.0453      2.00000
     33     -16.0452      2.00000
     34     -14.6401      2.00000
     35     -14.6399      2.00000
     36     -14.6393      2.00000
     37     -14.6391      2.00000
     38     -14.6390      2.00000
     39     -14.6388      2.00000
     40     -12.8679      2.00000
     41     -12.1482      2.00000
     42     -12.1479      2.00000
     43     -12.1474      2.00000
     44     -12.1474      2.00000
     45     -12.1463      2.00000
     46     -12.1460      2.00000
     47     -11.9406      2.00000
     48     -11.9406      2.00000
     49     -11.9399      2.00000
     50     -11.9399      2.00000
     51     -11.9395      2.00000
     52     -11.9393      2.00000
     53     -11.5227      2.00000
     54     -11.3276      2.00000
     55     -11.3275      2.00000
     56     -10.6315      2.00000
     57     -10.4781      2.00000
     58     -10.4779      2.00000
     59     -10.4763      2.00000
     60     -10.4760      2.00000
     61     -10.4758      2.00000
     62     -10.4757      2.00000
     63      -9.4549      2.00000
     64      -9.4546      2.00000
     65      -9.4546      2.00000
     66      -9.4533      2.00000
     67      -9.4525      2.00000
     68      -9.4525      2.00000
     69      -9.1460      2.00000
     70      -9.1457      2.00000
     71      -9.1451      2.00000
     72      -9.1449      2.00000
     73      -9.1444      2.00000
     74      -9.1443      2.00000
     75      -9.1398      2.00000
     76      -9.1396      2.00000
     77      -9.1390      2.00000
     78      -9.1388      2.00000
     79      -9.1387      2.00000
     80      -9.1378      2.00000
     81      -7.6900      2.00000
     82      -7.6899      2.00000
     83      -7.4015      2.00000
     84      -7.3999      2.00000
     85      -7.3997      2.00000
     86      -7.3992      2.00000
     87      -7.3981      2.00000
     88      -7.3980      2.00000
     89      -7.2068      2.00000
     90      -7.2063      2.00000
     91      -7.2062      2.00000
     92      -7.2059      2.00000
     93      -7.2058      2.00000
     94      -7.2056      2.00000
     95      -6.2617      2.00000
     96      -6.2612      2.00000
     97      -6.2608      2.00000
     98      -6.2604      2.00000
     99      -6.2603      2.00000
    100      -6.2601      2.00000
    101      -5.8294      2.00000
    102      -5.8271      2.00000
    103      -4.1619      2.00000
    104      -4.1616      2.00000
    105      -4.1612      2.00000
    106      -4.1611      2.00000
    107      -4.1600      2.00000
    108      -4.1598      2.00000
    109      -1.1683      0.00000
    110      -1.1680      0.00000
    111      -1.1673      0.00000
    112      -1.1670      0.00000
    113      -1.1666      0.00000
    114      -1.1663      0.00000
    115       0.8235      0.00000
    116       0.8239      0.00000
    117       0.8245      0.00000
    118       0.8247      0.00000
    119       0.8248      0.00000
    120       0.8268      0.00000
    121       0.9909      0.00000
    122       1.4064      0.00000
    123       1.5306      0.00000
    124       1.5310      0.00000
    125       1.8680      0.00000
    126       2.1931      0.00000
    127       2.3460      0.00000
    128       2.3769      0.00000
    129       2.3883      0.00000
    130       2.3949      0.00000
    131       2.3984      0.00000
    132       2.5382      0.00000
    133       2.6909      0.00000
    134       2.6912      0.00000
    135       2.6917      0.00000
    136       2.6921      0.00000
    137       2.6922      0.00000
    138       2.6927      0.00000
    139       2.9694      0.00000
    140       2.9977      0.00000
    141       3.1013      0.00000
    142       3.1120      0.00000
    143       3.1255      0.00000
    144       3.1386      0.00000
    145       3.1407      0.00000
    146       3.1698      0.00000
    147       3.2351      0.00000
    148       3.2797      0.00000
    149       3.2936      0.00000
    150       3.3131      0.00000
    151       3.3178      0.00000
    152       4.4918      0.00000
    153       4.5430      0.00000
    154       4.7241      0.00000
    155       4.8772      0.00000
    156       5.1572      0.00000
    157       5.1947      0.00000
    158       5.2198      0.00000
    159       5.2210      0.00000
    160       5.2216      0.00000
    161       5.2222      0.00000
    162       5.2229      0.00000
    163       5.3828      0.00000
    164       5.4551      0.00000
    165       5.5095      0.00000
    166       5.6023      0.00000
    167       5.7526      0.00000
    168       5.7937      0.00000


--------------------------------------------------------------------------------------------------------


 soft charge-density along one line, spin component           1
         0         1         2         3         4         5         6         7         8         9
 total charge-density along one line
 
 pseudopotential strength for first ion, spin component:           1
 12.626  21.244   0.000   0.000   0.000   0.000   0.000   0.000
 21.244  35.745   0.000   0.000   0.000   0.000   0.000   0.000
  0.000   0.000  -3.230  -0.000   0.000  -5.784   0.000   0.000
  0.000   0.000  -0.000  -3.230  -0.000   0.000  -5.784  -0.000
  0.000   0.000   0.000  -0.000  -3.230   0.000  -0.000  -5.784
  0.000   0.000  -5.784   0.000   0.000 -10.336   0.000   0.000
  0.000   0.000   0.000  -5.784  -0.000   0.000 -10.335  -0.000
  0.000   0.000   0.000  -0.000  -5.784   0.000  -0.000 -10.336
 total augmentation occupancy for first ion, spin component:           1
 10.264  -3.894  -0.000  -0.002  -0.000   0.000   0.001   0.000
 -3.894   1.507   0.000   0.001  -0.000  -0.000  -0.000  -0.000
 -0.000   0.000   8.468  -0.009   0.000  -3.024   0.003  -0.000
 -0.002   0.001  -0.009   4.016  -0.000   0.003  -1.207   0.000
 -0.000  -0.000   0.000  -0.000   8.468  -0.000   0.000  -3.024
  0.000  -0.000  -3.024   0.003  -0.000   1.093  -0.001   0.000
  0.001  -0.000   0.003  -1.207   0.000  -0.001   0.368  -0.000
  0.000  -0.000  -0.000   0.000  -3.024   0.000  -0.000   1.093


------------------------ aborting loop because EDIFF is reached ----------------------------------------


    FORLOC:  cpu time    0.1088: real time    0.1095
    FORNL :  cpu time    2.9693: real time    2.9937
    FORCOR:  cpu time    1.2697: real time    1.2775
    OFIELD:  cpu time    0.0023: real time    0.0023
 WARNING: Using user supplied parameters
     VDW_A1 = 0.495
     VDW_A2 = 5.731
     VDW_S8 = 0.79
     because the xc functional is not supported. Required parameters not
     defined in the INCAR file will be replaced with PBE defaults ones.


 ---------------------------------------------------------------------------------------------

         DFTD3 V3.0 Rev 1        
 IVDW         = 12
 DF unknown   
 parameters
 VDW_S6       =    1.0000
 VDW_S8       =    0.7898
 VDW_A1       =    0.4948
 VDW_A2       =    5.7308
 k1-k3        =   16.0000    1.3333   -4.0000
 VDW_RADIUS   =   50.2022 A
 VDW_CNRADIUS =   21.1671 A
 Edisp (eV)   -1.70311

 E6    (eV) :    -1.3163
 E8    (eV) :    -0.3868
 % E8        : 22.71
    FORVDW:  cpu time    0.1507: real time    0.1520

 VOLUME and BASIS-vectors are now :
 -----------------------------------------------------------------------------
  energy-cutoff  :     1000.00
  volume of cell :     2631.08
      direct lattice vectors                 reciprocal lattice vectors
    12.325000000  0.000000000  0.000000000     0.081135903  0.046843835  0.000000000
    -6.162500000 10.673763102  0.000000000     0.000000000  0.093687670  0.000000000
     0.000000000  0.000000000 20.000000000     0.000000000  0.000000000  0.050000000

  length of vectors
    12.325000000 12.325000000 20.000000000     0.093687670  0.093687670  0.050000000


 FORCES acting on ions:
    Electron-Ion                     Ewald-Force                    Non-Local-Force
 -----------------------------------------------------------------------------------------------
   0.218E+01 0.189E+01 0.150E+02   -.218E+01 -.189E+01 -.150E+02   0.625E-02 -.945E-03 0.708E-02
   0.308E+01 0.153E+01 0.170E+02   -.309E+01 -.152E+01 -.170E+02   0.554E-02 -.397E-02 -.568E-02
   0.127E+01 0.345E+01 0.180E+02   -.128E+01 -.346E+01 -.180E+02   -.586E-03 0.137E-01 0.141E-02
   0.163E+01 0.236E+01 0.221E+02   -.163E+01 -.236E+01 -.221E+02   0.134E-01 0.122E-02 -.117E-01
   0.233E+01 0.564E+00 0.153E+02   -.233E+01 -.563E+00 -.153E+02   0.949E-03 -.653E-02 0.240E-02
   0.238E+01 -.495E+00 0.155E+02   -.239E+01 0.498E+00 -.155E+02   -.622E-02 0.263E-02 -.460E-02
   0.314E+01 0.117E+01 0.213E+02   -.315E+01 -.116E+01 -.213E+02   0.148E-01 -.207E-01 -.486E-02
   0.307E+01 -.109E+01 0.224E+02   -.308E+01 0.109E+01 -.224E+02   -.403E-02 -.746E-02 -.619E-02
   -.155E+01 0.316E+01 0.182E+02   0.155E+01 -.316E+01 -.182E+02   -.247E-02 -.109E-01 -.547E-02
   -.221E+01 0.187E+01 0.219E+02   0.222E+01 -.187E+01 -.219E+02   -.289E-01 0.169E-01 0.457E-02
   0.614E+00 -.629E+00 0.138E+02   -.610E+00 0.629E+00 -.138E+02   0.316E-02 -.256E-02 -.102E-02
   0.552E+00 -.465E+00 0.134E+02   -.550E+00 0.465E+00 -.134E+02   -.810E-02 0.380E-02 0.541E-02
   0.116E+01 -.255E+01 0.239E+02   -.117E+01 0.255E+01 -.238E+02   0.296E-01 -.997E-02 -.622E-03
   0.691E+00 -.351E+01 0.193E+02   -.698E+00 0.351E+01 -.193E+02   0.594E-02 0.476E-02 -.173E-01
   -.213E+01 0.130E+01 0.148E+02   0.213E+01 -.130E+01 -.148E+02   0.712E-02 -.368E-02 0.591E-02
   -.283E+01 0.838E+00 0.156E+02   0.283E+01 -.840E+00 -.156E+02   -.309E-02 0.635E-02 -.633E-02
   -.392E+00 -.154E+00 0.129E+02   0.397E+00 0.151E+00 -.129E+02   -.161E-02 0.110E-02 0.199E-02
   0.173E+00 0.134E+01 0.132E+02   -.172E+00 -.134E+01 -.132E+02   -.401E-02 0.238E-02 0.977E-02
   -.548E+00 -.336E+01 0.169E+02   0.546E+00 0.337E+01 -.169E+02   0.750E-02 -.298E-02 0.924E-03
   -.308E+00 -.199E+01 0.142E+02   0.303E+00 0.199E+01 -.142E+02   0.142E-02 -.196E-02 -.858E-03
   0.309E+01 -.136E+01 0.179E+02   -.309E+01 0.136E+01 -.179E+02   -.186E-03 -.352E-02 -.193E-01
   0.213E+01 -.174E+01 0.162E+02   -.213E+01 0.174E+01 -.162E+02   -.648E-02 0.507E-02 -.451E-02
   -.572E+00 0.106E+01 0.248E+02   0.570E+00 -.106E+01 -.248E+02   -.116E-01 0.114E-01 0.602E-02
   -.768E+00 -.166E+01 0.246E+02   0.769E+00 0.166E+01 -.245E+02   0.130E-01 -.166E-01 -.647E-02
   0.115E+01 -.439E+00 0.139E+02   -.115E+01 0.437E+00 -.139E+02   0.291E-02 -.225E-02 -.448E-02
   0.286E+00 0.100E+01 0.139E+02   -.284E+00 -.100E+01 -.139E+02   -.641E-02 0.420E-02 0.471E-02
   -.349E+01 0.466E+00 0.190E+02   0.350E+01 -.471E+00 -.190E+02   0.906E-02 0.919E-02 -.259E-02
   -.334E+01 -.133E+01 0.182E+02   0.335E+01 0.132E+01 -.182E+02   -.111E-01 0.989E-02 0.227E-02
   0.124E+01 -.248E+01 0.165E+02   -.124E+01 0.248E+01 -.165E+02   0.590E-02 0.161E-02 -.869E-02
   0.105E+00 -.108E+01 0.144E+02   -.108E+00 0.108E+01 -.144E+02   -.418E-02 0.245E-02 -.369E-02
   -.241E+01 -.249E+01 0.201E+02   0.241E+01 0.249E+01 -.201E+02   -.136E-01 -.885E-02 -.104E-01
   -.171E+01 -.319E+01 0.171E+02   0.171E+01 0.319E+01 -.171E+02   0.893E-03 -.284E-02 0.379E-02
   0.150E+00 0.622E+00 0.132E+02   -.151E+00 -.622E+00 -.133E+02   0.624E-02 -.518E-02 0.678E-02
   0.389E+00 0.595E+00 0.137E+02   -.393E+00 -.594E+00 -.137E+02   -.184E-02 0.426E-02 -.190E-02
   -.148E+01 0.253E+00 0.142E+02   0.148E+01 -.255E+00 -.142E+02   0.387E-02 -.218E-02 0.504E-02
   -.131E+01 -.574E+00 0.141E+02   0.131E+01 0.573E+00 -.141E+02   -.528E-02 0.289E-02 0.331E-02
   -.252E+01 -.132E+01 0.150E+02   0.252E+01 0.132E+01 -.150E+02   -.301E-02 0.140E-02 0.366E-02
   -.164E+01 -.131E+01 0.139E+02   0.164E+01 0.131E+01 -.139E+02   -.521E-02 0.143E-02 0.984E-02
   -.149E+01 -.190E+01 0.143E+02   0.149E+01 0.190E+01 -.144E+02   -.389E-02 -.344E-04 0.595E-02
   -.225E+00 -.505E+00 0.134E+02   0.226E+00 0.505E+00 -.134E+02   0.229E-02 0.304E-03 0.815E-02
   0.559E+00 0.140E+01 0.135E+02   -.560E+00 -.140E+01 -.135E+02   -.428E-02 0.264E-02 0.788E-02
   0.170E+01 0.264E+01 0.152E+02   -.170E+01 -.264E+01 -.152E+02   0.339E-03 -.611E-04 0.917E-02
   0.166E+00 0.234E+01 0.141E+02   -.161E+00 -.234E+01 -.141E+02   -.161E-02 0.215E-02 0.220E-02
   -.410E-01 0.352E+01 0.168E+02   0.440E-01 -.352E+01 -.168E+02   -.987E-02 0.354E-02 0.596E-02
   -.443E+00 0.839E+00 0.142E+02   0.445E+00 -.842E+00 -.142E+02   0.358E-02 -.274E-02 0.262E-03
   -.168E+01 0.206E+01 0.155E+02   0.168E+01 -.206E+01 -.155E+02   -.751E-02 0.121E-02 -.286E-02
   -.411E+00 -.101E+01 0.139E+02   0.409E+00 0.101E+01 -.139E+02   0.738E-02 -.175E-02 0.538E-02
   -.910E+00 0.333E+00 0.133E+02   0.907E+00 -.332E+00 -.133E+02   -.288E-02 0.322E-02 -.402E-02
   0.982E-01 -.628E+00 0.133E+02   -.995E-01 0.629E+00 -.133E+02   0.514E-02 -.348E-02 0.626E-02
   0.995E+00 0.709E+00 0.133E+02   -.999E+00 -.707E+00 -.133E+02   0.134E-02 0.141E-02 0.347E-02
   0.765E-02 0.159E-01 -.203E+03   -.118E-01 -.120E-01 0.203E+03   -.296E-02 0.188E-02 -.115E-02
   -.228E+03 0.155E+03 -.316E+03   0.279E+03 -.190E+03 0.320E+03   -.523E+02 0.356E+02 -.351E+01
   0.228E+03 -.155E+03 -.297E+03   -.279E+03 0.190E+03 0.293E+03   0.523E+02 -.356E+02 0.316E+01
 -----------------------------------------------------------------------------------------------
   -.760E-02 0.139E-01 0.357E+00   0.000E+00 0.284E-13 0.114E-12   0.706E-02 -.144E-01 -.347E+00
 
 
 POSITION                                       TOTAL-FORCE (eV/Angst)
 -----------------------------------------------------------------------------------
     11.98348      0.00342      0.01417         0.003339     -0.001756     -0.001391
     -0.34154      1.42665      0.01100        -0.001248     -0.000036     -0.003464
      2.12355      0.00315      0.01249        -0.002111      0.010441     -0.006916
      2.12326      1.42653      0.00641         0.013552      0.000882     -0.008076
     10.75099      2.13819      0.01213         0.000755     -0.005635     -0.000073
     -1.57382      3.56123      0.01110        -0.009162      0.004579     -0.001422
      0.89078      2.13854      0.00548         0.009379     -0.019238      0.003328
      0.89099      3.56147      0.00181        -0.012475     -0.002373      0.013911
      4.58864      0.00346      0.01135         0.003856     -0.016621     -0.003604
      4.58894      1.42623      0.00646        -0.023255      0.013136      0.015764
      9.51854      4.27281      0.01369         0.007166     -0.002972      0.000115
     -2.80632      5.69591      0.01434        -0.006885      0.003315      0.000685
      2.12300      4.27302      0.00000         0.024781     -0.004763      0.023376
      2.12335      5.69594      0.00581        -0.000930      0.009594     -0.002089
      7.05344      0.00333      0.01399         0.009338     -0.005616     -0.000575
      7.05353      1.42635      0.01368        -0.001562      0.004940     -0.004016
      8.28610      6.40752      0.01601         0.003395     -0.001269     -0.001067
     -4.03885      7.83070      0.01636        -0.002434      0.001017     -0.000399
      3.35586      6.40753      0.01007         0.005244      0.000717     -0.001129
      3.35599      7.83072      0.01320        -0.003177      0.000390     -0.000743
     -0.34146      4.27290      0.00723        -0.001875     -0.001190     -0.004144
     -0.34138      5.69591      0.00946        -0.009264      0.006391     -0.001052
      3.35624      2.13791      0.00222        -0.014152      0.011974      0.018575
      3.35573      3.56155      0.00139         0.014017     -0.016262      0.010590
     -1.57395      6.40758      0.01311         0.005792     -0.003973     -0.000562
     -1.57385      7.83068      0.01438        -0.005057      0.003994     -0.000173
      5.82093      2.13784      0.01033         0.016551      0.004894     -0.002962
      5.82114      3.56097      0.01156        -0.005969      0.008530     -0.003875
      0.89092      6.40755      0.00907         0.004469      0.002230     -0.001960
      0.89106      7.83068      0.01235        -0.006971      0.004150      0.000313
      4.58871      4.27293      0.00850        -0.013211     -0.006020     -0.011061
      4.58852      5.69606      0.01149         0.002402     -0.001095     -0.004225
      9.51845      0.00337      0.01490         0.004954     -0.004906     -0.000039
      9.51855      1.42644      0.01438        -0.005413      0.005585     -0.000403
      8.28593      2.13803      0.01453         0.007005     -0.003580      0.000338
      8.28613      3.56115      0.01464        -0.004513      0.002048     -0.000103
      7.05356      4.27269      0.01457         0.003109     -0.000936     -0.001010
      7.05362      5.69588      0.01553        -0.002513      0.001472     -0.000298
      5.82112      6.40755      0.01489        -0.003071      0.002111     -0.000296
      5.82102      7.83073      0.01579         0.003033      0.000328     -0.000526
      7.05363      8.54227      0.01631        -0.004756      0.001367      0.000867
     -5.27149      9.96549      0.01495         0.000122     -0.002211     -0.002651
     -2.80638      8.54234      0.01558         0.003433     -0.001701     -0.001524
     -2.80627      9.96553      0.01362        -0.006810     -0.000038     -0.004292
     -0.34149      8.54239      0.01378         0.005881     -0.005186      0.000221
     -0.34138      9.96550      0.01354        -0.005778      0.000246     -0.001405
      2.12343      8.54232      0.01336         0.005859     -0.001799      0.000833
      2.12354      9.96544      0.01469        -0.005340      0.004289     -0.002110
      4.58846      8.54235      0.01505         0.003745     -0.002859      0.000873
      4.58853      9.96550      0.01517        -0.002900      0.003608     -0.000032
      3.04930      2.68154      6.29961        -0.007184      0.005716      0.035410
      4.02070      2.02068      6.36403        -1.425148      0.969203     -0.113651
      2.07767      3.34267      6.24015         1.431984     -0.975110      0.068119
 -----------------------------------------------------------------------------------
    total drift:                               -0.000537     -0.000502      0.010349


--------------------------------------------------------------------------------------------------------



  FREE ENERGIE OF THE ION-ELECTRON SYSTEM (eV)
  ---------------------------------------------------
  free  energy   TOTEN  =      -525.01640700 eV

  energy  without entropy=     -525.01640700  energy(sigma->0) =     -525.01640700
 


--------------------------------------------------------------------------------------------------------


    POTLOK:  cpu time    1.4439: real time    1.4516


--------------------------------------------------------------------------------------------------------


 writing wavefunctions
     LOOP+:  cpu time  639.3060: real time  644.7521
    4ORBIT:  cpu time    0.0000: real time    0.0000

 total amount of memory used by VASP MPI-rank0   556209. kBytes
=======================================================================

   base      :      30000. kBytes
   nonl-proj :     184518. kBytes
   fftplans  :      31725. kBytes
   grid      :     282516. kBytes
   one-center:        162. kBytes
   wavefun   :      27288. kBytes
 
  
  
 General timing and accounting informations for this job:
 ========================================================
  
                  Total CPU time used (sec):      676.731
                            User time (sec):      654.218
                          System time (sec):       22.513
                         Elapsed time (sec):      683.426
  
                   Maximum memory used (kb):     1032584.
                   Average memory used (kb):          N/A
  
                          Minor page faults:       182759
                          Major page faults:           89
                 Voluntary context switches:         3712
