 vasp.6.2.1 16May21 (build Nov 06 2021 14:46:37) complex                        
  
 executed on             LinuxIFC date 2025.04.06  11:32:08
 running on  112 total cores
 distrk:  each k-point on   56 cores,    2 groups
 distr:  one band on NCORE=   1 cores,   56 groups


--------------------------------------------------------------------------------------------------------


 INCAR:
   ALGO = Conjugate
   KPAR = 2
   NCORE = 32
   ISMEAR = 0
   SIGMA = 0.01
   PREC = Accurate
   EDIFF = 1E-7
   ENCUT = 1000
   ISIF = 0
   METAGGA = R2SCAN
   LASPH = .TRUE.
   IVDW = 12
   VDW_S8 = 0.7898
   VDW_A1 = 0.4948
   VDW_A2 = 5.7308
   SYMPREC = 1E-7

 POTCAR:    PAW_PBE C_h 06Feb2004                 
 POTCAR:    PAW_PBE O_h 06Feb2004                 
 -----------------------------------------------------------------------------
|                                                                             |
|           W    W    AA    RRRRR   N    N  II  N    N   GGGG   !!!           |
|           W    W   A  A   R    R  NN   N  II  NN   N  G    G  !!!           |
|           W    W  A    A  R    R  N N  N  II  N N  N  G       !!!           |
|           W WW W  AAAAAA  RRRRR   N  N N  II  N  N N  G  GGG   !            |
|           WW  WW  A    A  R   R   N   NN  II  N   NN  G    G                |
|           W    W  A    A  R    R  N    N  II  N    N   GGGG   !!!           |
|                                                                             |
|     The value NCORE = 32 specified in the INCAR file was overwritten,       |
|     because it was not compatible with the 56 processes available:          |
|     NCORE = 1                                                               |
|     was used instead, please check that this makes sense for your           |
|     machine.                                                                |
|                                                                             |
 -----------------------------------------------------------------------------

 -----------------------------------------------------------------------------
|                                                                             |
|           W    W    AA    RRRRR   N    N  II  N    N   GGGG   !!!           |
|           W    W   A  A   R    R  NN   N  II  NN   N  G    G  !!!           |
|           W    W  A    A  R    R  N N  N  II  N N  N  G       !!!           |
|           W WW W  AAAAAA  RRRRR   N  N N  II  N  N N  G  GGG   !            |
|           WW  WW  A    A  R   R   N   NN  II  N   NN  G    G                |
|           W    W  A    A  R    R  N    N  II  N    N   GGGG   !!!           |
|                                                                             |
|     For optimal performance we recommend to set                             |
|       NCORE = 2 up to number-of-cores-per-socket                            |
|     NCORE specifies how many cores store one orbital (NPAR=cpu/NCORE).      |
|     This setting can greatly improve the performance of VASP for DFT.       |
|     The default, NCORE=1 might be grossly inefficient on modern             |
|     multi-core architectures or massively parallel machines. Do your        |
|     own testing! More info at https://www.vasp.at/wiki/index.php/NCORE      |
|     Unfortunately you need to use the default for GW and RPA                |
|     calculations (for HF NCORE is supported but not extensively tested      |
|     yet).                                                                   |
|                                                                             |
 -----------------------------------------------------------------------------

 POTCAR:    PAW_PBE C_h 06Feb2004                 
   VRHFIN =C: s2p2                                                                                  
   LEXCH  = PE                                                                                      
   EATOM  =   147.1560 eV,   10.8157 Ry                                                             
                                                                                                    
   TITEL  = PAW_PBE C_h 06Feb2004                                                                   
   LULTRA =        F    use ultrasoft PP ?                                                          
   IUNSCR =        1    unscreen: 0-lin 1-nonlin 2-no                                               
   RPACOR =    0.800    partial core radius                                                         
   POMASS =   12.011; ZVAL   =    4.000    mass and valenz                                          
   RCORE  =    1.100    outmost cutoff radius                                                       
   RWIGS  =    1.630; RWIGS  =    0.863    wigner-seitz radius (au A)                               
   ENMAX  =  700.000; ENMIN  =  500.000 eV                                                          
   ICORE  =        2    local potential                                                             
   LCOR   =        T    correct aug charges                                                         
   LPAW   =        T    paw PP                                                                      
   EAUG   =  946.768                                                                                
   DEXC   =    0.000                                                                                
   RMAX   =    1.128    core radius for proj-oper                                                   
   RAUG   =    1.300    factor for augmentation sphere                                              
   RDEP   =    1.162    radius for radial grids                                                     
   RDEPT  =    1.088    core radius for aug-charge                                                  
                                                                                                    
   Atomic configuration                                                                             
    4 entries                                                                                       
     n  l   j            E        occ.                                                              
     1  0  0.50      -273.3789   2.0000                                                             
     2  0  0.50       -13.7508   2.0000                                                             
     2  1  0.50        -5.2854   2.0000                                                             
     3  2  1.50        -5.4423   0.0000                                                             
   Description                                                                                      
     l       E           TYP  RCUT    TYP  RCUT                                                     
     0    -13.7508458     23  1.100                                                                 
     0     -8.2022199     23  1.100                                                                 
     1     -5.2854383     23  1.100                                                                 
     1      1.1560700     23  1.100                                                                 
     2     -5.4423304      7  1.100                                                                 
  local pseudopotential read in
  partial core-charges read in
  partial kinetic energy density read in
  atomic valenz-charges read in
  non local Contribution for L=           0  read in
    real space projection operators read in
  non local Contribution for L=           0  read in
    real space projection operators read in
  non local Contribution for L=           1  read in
    real space projection operators read in
  non local Contribution for L=           1  read in
    real space projection operators read in
    PAW grid and wavefunctions read in
 
   number of l-projection  operators is LMAX  =           4
   number of lm-projection operators is LMMAX =           8
 
 POTCAR:    PAW_PBE O_h 06Feb2004                 
   VRHFIN =O: s2p4                                                                                  
   LEXCH  = PE                                                                                      
   EATOM  =   432.3788 eV,   31.7789 Ry                                                             
                                                                                                    
   TITEL  = PAW_PBE O_h 06Feb2004                                                                   
   LULTRA =        F    use ultrasoft PP ?                                                          
   IUNSCR =        1    unscreen: 0-lin 1-nonlin 2-no                                               
   RPACOR =    0.800    partial core radius                                                         
   POMASS =   16.000; ZVAL   =    6.000    mass and valenz                                          
   RCORE  =    1.100    outmost cutoff radius                                                       
   RWIGS  =    1.400; RWIGS  =    0.741    wigner-seitz radius (au A)                               
   ENMAX  =  700.000; ENMIN  =  500.000 eV                                                          
   ICORE  =        2    local potential                                                             
   LCOR   =        T    correct aug charges                                                         
   LPAW   =        T    paw PP                                                                      
   EAUG   =  888.804                                                                                
   DEXC   =    0.000                                                                                
   RMAX   =    1.128    core radius for proj-oper                                                   
   RAUG   =    1.300    factor for augmentation sphere                                              
   RDEP   =    1.125    radius for radial grids                                                     
   RDEPT  =    1.088    core radius for aug-charge                                                  
                                                                                                    
   Atomic configuration                                                                             
    4 entries                                                                                       
     n  l   j            E        occ.                                                              
     1  0  0.50      -514.6923   2.0000                                                             
     2  0  0.50       -23.9615   2.0000                                                             
     2  1  0.50        -9.0305   4.0000                                                             
     3  2  1.50        -9.5241   0.0000                                                             
   Description                                                                                      
     l       E           TYP  RCUT    TYP  RCUT                                                     
     0    -23.9615319     23  1.100                                                                 
     0    -25.3221145     23  1.100                                                                 
     1     -9.0304911     23  1.100                                                                 
     1     -5.4802209     23  1.100                                                                 
     2     -9.5240782      7  1.100                                                                 
  local pseudopotential read in
  partial core-charges read in
  partial kinetic energy density read in
  atomic valenz-charges read in
  non local Contribution for L=           0  read in
    real space projection operators read in
  non local Contribution for L=           0  read in
    real space projection operators read in
  non local Contribution for L=           1  read in
    real space projection operators read in
  non local Contribution for L=           1  read in
    real space projection operators read in
    PAW grid and wavefunctions read in
 
   number of l-projection  operators is LMAX  =           4
   number of lm-projection operators is LMMAX =           8
 
 -----------------------------------------------------------------------------
|                                                                             |
|               ----> ADVICE to this user running VASP <----                  |
|                                                                             |
|     You have a (more or less) 'large supercell' and for larger cells it     |
|     might be more efficient to use real-space projection operators.         |
|     Therefore, try LREAL= Auto in the INCAR file.                           |
|     Mind: For very accurate calculation, you might also keep the            |
|     reciprocal projection scheme (i.e. LREAL=.FALSE.).                      |
|                                                                             |
 -----------------------------------------------------------------------------

  PAW_PBE C_h 06Feb2004                 :
 energy of atom  1       EATOM= -147.1560
 kinetic energy error for atom=    0.0031 (will be added to EATOM!!)
  PAW_PBE O_h 06Feb2004                 :
 energy of atom  2       EATOM= -432.3788
 kinetic energy error for atom=    0.0171 (will be added to EATOM!!)
 
 
 POSCAR:  C  O
  positions in cartesian coordinates
  No initial velocities read in

 METAGGA = R2SCA    LMAXTAU =  6    LMIXTAU =  F

 exchange correlation table for  LEXCH =        8
   RHO(1)=    0.500       N(1)  =     2000
   RHO(2)=  100.500       N(2)  =     4000
 


--------------------------------------------------------------------------------------------------------


 ion  position               nearest neighbor table
   1  0.972  0.000  0.001-  50 1.42   2 1.42  42 1.42
   2  0.039  0.134  0.001-   5 1.42   7 1.42   1 1.42
   3  0.172  0.000  0.001-  42 1.42  44 1.42   4 1.42
   4  0.239  0.134  0.000-   7 1.42   3 1.42  23 1.42
   5  0.972  0.200  0.001-   6 1.42   2 1.42  34 1.42
   6  0.039  0.334  0.001-   5 1.42  21 1.42  11 1.42
   7  0.172  0.200  0.000-   8 1.42   2 1.42   4 1.42
   8  0.239  0.334  0.000-  13 1.42   7 1.42  21 1.42
   9  0.372  0.000  0.001-  10 1.42  44 1.42  46 1.42
  10  0.439  0.134  0.000-  27 1.42   9 1.42  23 1.42
  11  0.972  0.400  0.001-  12 1.42  36 1.42   6 1.42
  12  0.039  0.534  0.001-  25 1.42  11 1.42  17 1.42
  13  0.372  0.400  0.000-   8 1.42  14 1.42  24 1.42
  14  0.439  0.534  0.000-  13 1.42  29 1.42  19 1.42
  15  0.572  0.000  0.001-  46 1.42  16 1.42  48 1.42
  16  0.639  0.134  0.001-  15 1.42  35 1.42  27 1.42
  17  0.972  0.600  0.001-  38 1.42  18 1.42  12 1.42
  18  0.039  0.734  0.001-  43 1.42  41 1.42  17 1.42
  19  0.572  0.600  0.001-  14 1.42  20 1.42  32 1.42
  20  0.639  0.734  0.001-  49 1.42  19 1.42  47 1.42
  21  0.172  0.400  0.000-  22 1.42   8 1.42   6 1.42
  22  0.239  0.534  0.000-  21 1.42  29 1.42  25 1.42
  23  0.372  0.200  0.000-  10 1.42   4 1.42  24 1.42
  24  0.439  0.334  0.000-  13 1.42  31 1.42  23 1.42
  25  0.172  0.600  0.001-  26 1.42  12 1.42  22 1.42
  26  0.239  0.734  0.001-  25 1.42  45 1.42  43 1.42
  27  0.572  0.200  0.001-  10 1.42  28 1.42  16 1.42
  28  0.639  0.334  0.001-  27 1.42  37 1.42  31 1.42
  29  0.372  0.600  0.000-  22 1.42  14 1.42  30 1.42
  30  0.439  0.734  0.001-  47 1.42  29 1.42  45 1.42
  31  0.572  0.400  0.000-  32 1.42  28 1.42  24 1.42
  32  0.639  0.534  0.001-  31 1.42  39 1.42  19 1.42
  33  0.772  0.000  0.001-  34 1.42  48 1.42  50 1.42
  34  0.839  0.134  0.001-  33 1.42   5 1.42  35 1.42
  35  0.772  0.200  0.001-  36 1.42  16 1.42  34 1.42
  36  0.839  0.334  0.001-  35 1.42  11 1.42  37 1.42
  37  0.772  0.400  0.001-  28 1.42  38 1.42  36 1.42
  38  0.839  0.534  0.001-  17 1.42  37 1.42  39 1.42
  39  0.772  0.600  0.001-  40 1.42  38 1.42  32 1.42
  40  0.839  0.734  0.001-  39 1.42  49 1.42  41 1.42
  41  0.972  0.800  0.001-  18 1.42  42 1.42  40 1.42
  42  0.039  0.934  0.001-   3 1.42  41 1.42   1 1.42
  43  0.172  0.800  0.001-  18 1.42  44 1.42  26 1.42
  44  0.239  0.934  0.001-   9 1.42  43 1.42   3 1.42
  45  0.372  0.800  0.001-  26 1.42  46 1.42  30 1.42
  46  0.439  0.934  0.001-  15 1.42  45 1.42   9 1.42
  47  0.572  0.800  0.001-  30 1.42  48 1.42  20 1.42
  48  0.639  0.934  0.001-  47 1.42  33 1.42  15 1.42
  49  0.772  0.800  0.001-  50 1.42  20 1.42  40 1.42
  50  0.839  0.934  0.001-  49 1.42   1 1.42  33 1.42
  51  0.373  0.251  0.198-  52 1.18  53 1.18
  52  0.421  0.189  0.202-  51 1.18
  53  0.325  0.313  0.195-  51 1.18
 
  LATTYP: Found a hexagonal cell.
 ALAT       =    12.3250000000
 C/A-ratio  =     1.6227180527
  
  Lattice vectors:
  
 A1 = (  12.3250000000,   0.0000000000,   0.0000000000)
 A2 = (  -6.1625000000,  10.6737631016,   0.0000000000)
 A3 = (   0.0000000000,   0.0000000000,  20.0000000000)


Analysis of symmetry for initial positions (statically):
=====================================================================
 Subroutine PRICEL returns:
 Original cell was already a primitive cell.
 

 Routine SETGRP: Setting up the symmetry group for a 
 hexagonal supercell.


 Subroutine GETGRP returns: Found  1 space group operations
 (whereof  1 operations were pure point group operations)
 out of a pool of 24 trial point group operations.


The static configuration has the point symmetry C_1 .


Analysis of symmetry for dynamics (positions and initial velocities):
=====================================================================
 Subroutine PRICEL returns:
 Original cell was already a primitive cell.
 

 Routine SETGRP: Setting up the symmetry group for a 
 hexagonal supercell.


 Subroutine GETGRP returns: Found  1 space group operations
 (whereof  1 operations were pure point group operations)
 out of a pool of 24 trial point group operations.


The dynamic configuration has the point symmetry C_1 .


 Subroutine INISYM returns: Found  1 space group operations
 (whereof  1 operations are pure point group operations),
 and found     1 'primitive' translations


----------------------------------------------------------------------------------------

                                     Primitive cell                                     

  volume of cell :    2631.0826

  direct lattice vectors                    reciprocal lattice vectors
    12.325000000  0.000000000  0.000000000     0.081135903  0.046843835  0.000000000
    -6.162500000 10.673763102  0.000000000     0.000000000  0.093687670  0.000000000
     0.000000000  0.000000000 20.000000000     0.000000000  0.000000000  0.050000000

  length of vectors
    12.325000000 12.325000000 20.000000000     0.093687670  0.093687670  0.050000000

  position of ions in fractional coordinates (direct lattice)
     0.972450841  0.000320818  0.000708389
     0.039118382  0.133659505  0.000550216
     0.172443627  0.000295449  0.000624535
     0.239096278  0.133647917  0.000320585
     0.972452058  0.200322012  0.000606523
     0.039128360  0.333643771  0.000555187
     0.172451764  0.200354552  0.000273959
     0.239124359  0.333665720  0.000090325
     0.372465565  0.000324403  0.000567391
     0.439137473  0.133619939  0.000322923
     0.972449824  0.400309362  0.000684513
     0.039124981  0.533636789  0.000716763
     0.372416176  0.400329481  0.000000000
     0.439099602  0.533638981  0.000290518
     0.572443676  0.000312125  0.000699475
     0.639110207  0.133631751  0.000684093
     0.972452703  0.600305653  0.000800361
     0.039124495  0.733640359  0.000818141
     0.572433471  0.600306242  0.000503618
     0.639111888  0.733641879  0.000659881
     0.172454630  0.400318228  0.000361306
     0.239120185  0.533636548  0.000473136
     0.372459750  0.200295993  0.000111246
     0.439107096  0.333673419  0.000069702
     0.172452155  0.600311506  0.000655425
     0.239123371  0.733638574  0.000718912
     0.572431082  0.200289171  0.000516621
     0.639112773  0.333618630  0.000577970
     0.372439808  0.600308022  0.000453556
     0.439116090  0.733637858  0.000617737
     0.572469358  0.400320504  0.000424897
     0.639119408  0.533650873  0.000574513
     0.772445723  0.000315427  0.000745201
     0.839116277  0.133640203  0.000719132
     0.772440513  0.200307432  0.000726291
     0.839120241  0.333635728  0.000731834
     0.772446320  0.400298367  0.000728722
     0.839118980  0.533633964  0.000776376
     0.772456143  0.600308173  0.000744639
     0.839115033  0.733643180  0.000789390
     0.972455313  0.800305582  0.000815291
     0.039114714  0.933643289  0.000747563
     0.172457971  0.800312211  0.000779216
     0.239134551  0.933647193  0.000681063
     0.372451396  0.800316674  0.000689249
     0.439124489  0.933644769  0.000676788
     0.572441101  0.800310054  0.000668168
     0.639115067  0.933638985  0.000734556
     0.772445098  0.800313187  0.000752577
     0.839116614  0.933644338  0.000758538
     0.373021009  0.251226878  0.198425132
     0.420879805  0.189313152  0.201646225
     0.325156981  0.313167186  0.195452388

  ion indices of the primitive-cell ions
   primitive index   ion index
                 1           1
                 2           2
                 3           3
                 4           4
                 5           5
                 6           6
                 7           7
                 8           8
                 9           9
                10          10
                11          11
                12          12
                13          13
                14          14
                15          15
                16          16
                17          17
                18          18
                19          19
                20          20
                21          21
                22          22
                23          23
                24          24
                25          25
                26          26
                27          27
                28          28
                29          29
                30          30
                31          31
                32          32
                33          33
                34          34
                35          35
                36          36
                37          37
                38          38
                39          39
                40          40
                41          41
                42          42
                43          43
                44          44
                45          45
                46          46
                47          47
                48          48
                49          49
                50          50
                51          51
                52          52
                53          53

----------------------------------------------------------------------------------------

 
 
 KPOINTS: auto                                    

Automatic generation of k-mesh.
 Grid dimensions read from file:
 generate k-points for:    1    1    1

 Generating k-lattice:

  Cartesian coordinates                     Fractional coordinates (reciprocal lattice)
     0.081135903  0.046843835  0.000000000     1.000000000 -0.000000000  0.000000000
     0.000000000  0.093687670  0.000000000     0.000000000  1.000000000  0.000000000
     0.000000000  0.000000000  0.050000000     0.000000000  0.000000000  1.000000000

  Length of vectors
     0.093687670  0.093687670  0.050000000

  Shift w.r.t. Gamma in fractional coordinates (k-lattice)
     0.000000000  0.000000000  0.000000000

 
 Subroutine IBZKPT returns following result:
 ===========================================
 
 Found      1 irreducible k-points:
 
 Following reciprocal coordinates:
            Coordinates               Weight
  0.000000  0.000000  0.000000      1.000000
 
 Following cartesian coordinates:
            Coordinates               Weight
  0.000000  0.000000  0.000000      1.000000
 


--------------------------------------------------------------------------------------------------------




 Dimension of arrays:
   k-points           NKPTS =      1   k-points in BZ     NKDIM =      1   number of bands    NBANDS=    168
   number of dos      NEDOS =    301   number of ions     NIONS =     53
   non local maximal  LDIM  =      4   non local SUM 2l+1 LMDIM =      8
   total plane-waves  NPLWV = ******
   max r-space proj   IRMAX =      1   max aug-charges    IRDMAX=   9736
   dimension x,y,z NGX =   128 NGY =  128 NGZ =  210
   dimension x,y,z NGXF=   256 NGYF=  256 NGZF=  420
   support grid    NGXF=   256 NGYF=  256 NGZF=  420
   ions per type =              51   2
   NGX,Y,Z   is equivalent  to a cutoff of  17.27, 17.27, 17.46 a.u.
   NGXF,Y,Z  is equivalent  to a cutoff of  34.53, 34.53, 34.91 a.u.

 SYSTEM =  unknown system                          
 POSCAR =   C  O                                   

 Startparameter for this run:
   NWRITE =      2    write-flag & timer
   PREC   = accura    normal or accurate (medium, high low for compatibility)
   ISTART =      0    job   : 0-new  1-cont  2-samecut
   ICHARG =      2    charge: 1-file 2-atom 10-const
   ISPIN  =      1    spin polarized calculation?
   LNONCOLLINEAR =      F non collinear calculations
   LSORBIT =      F    spin-orbit coupling
   INIWAV =      1    electr: 0-lowe 1-rand  2-diag
   LASPH  =      T    aspherical Exc in radial PAW
 Electronic Relaxation 1
   ENCUT  = 1000.0 eV  73.50 Ry    8.57 a.u.  31.78 31.78 51.57*2*pi/ulx,y,z
   ENINI  = 1000.0     initial cutoff
   ENAUG  =  946.8 eV  augmentation charge cutoff
   NELM   =     60;   NELMIN=  2; NELMDL= -5     # of ELM steps 
   EDIFF  = 0.1E-06   stopping-criterion for ELM
   LREAL  =      F    real-space projection
   NLSPLINE    = F    spline interpolate recip. space projectors
   LCOMPAT=      F    compatible to vasp.4.4
   GGA_COMPAT  = T    GGA compatible to vasp.4.4-vasp.4.6
   LMAXPAW     = -100 max onsite density
   LMAXMIX     =    2 max onsite mixed and CHGCAR
   VOSKOWN=      0    Vosko Wilk Nusair interpolation
   ROPT   =    0.00000   0.00000
 Ionic relaxation
   EDIFFG = 0.1E-05   stopping-criterion for IOM
   NSW    =      0    number of steps for IOM
   NBLOCK =      1;   KBLOCK =      1    inner block; outer block 
   IBRION =     -1    ionic relax: 0-MD 1-quasi-New 2-CG
   NFREE  =      0    steps in history (QN), initial steepest desc. (CG)
   ISIF   =      0    stress and relaxation
   IWAVPR =     10    prediction:  0-non 1-charg 2-wave 3-comb
   ISYM   =      2    0-nonsym 1-usesym 2-fastsym
   LCORR  =      T    Harris-Foulkes like correction to forces

   POTIM  = 0.5000    time-step for ionic-motion
   TEIN   =    0.0    initial temperature
   TEBEG  =    0.0;   TEEND  =   0.0 temperature during run
   SMASS  =  -3.00    Nose mass-parameter (am)
   estimated Nose-frequenzy (Omega)   =  0.10E-29 period in steps = 0.13E+47 mass=  -0.347E-26a.u.
   SCALEE = 1.0000    scale energy and forces
   NPACO  =    256;   APACO  = 16.0  distance and # of slots for P.C.
   PSTRESS=    0.0 pullay stress

  Mass of Ions in am
   POMASS =  12.01 16.00
  Ionic Valenz
   ZVAL   =   4.00  6.00
  Atomic Wigner-Seitz radii
   RWIGS  =  -1.00 -1.00
  virtual crystal weights 
   VCA    =   1.00  1.00
   NELECT =     216.0000    total number of electrons
   NUPDOWN=      -1.0000    fix difference up-down

 DOS related values:
   EMIN   =  10.00;   EMAX   =-10.00  energy-range for DOS
   EFERMI =   0.00
   ISMEAR =     0;   SIGMA  =   0.01  broadening in eV -4-tet -1-fermi 0-gaus

 Electronic relaxation 2 (details)
   IALGO  =     58    algorithm
   LDIAG  =      T    sub-space diagonalisation (order eigenvalues)
   LSUBROT=      F    optimize rotation matrix (better conditioning)
   TURBO    =      0    0=normal 1=particle mesh
   IRESTART =      0    0=no restart 2=restart with 2 vectors
   NREBOOT  =      0    no. of reboots
   NMIN     =      0    reboot dimension
   EREF     =   0.00    reference energy to select bands
   IMIX   =      4    mixing-type and parameters
     AMIX     =   0.40;   BMIX     =  1.00
     AMIX_MAG =   1.60;   BMIX_MAG =  1.00
     AMIN     =   0.10
     WC   =   100.;   INIMIX=   1;  MIXPRE=   1;  MAXMIX= -45

 Intra band minimization:
   WEIMIN = 0.0000     energy-eigenvalue tresh-hold
   EBREAK =  0.15E-09  absolut break condition
   DEPER  =   0.30     relativ break condition  

   TIME   =   0.40     timestep for ELM

  volume/ion in A,a.u.               =      49.64       335.01
  Fermi-wavevector in a.u.,A,eV,Ry     =   0.711510  1.344560  6.887909  0.506247
  Thomas-Fermi vector in A             =   1.798641
 
 Write flags
   LWAVE        =      T    write WAVECAR
   LDOWNSAMPLE  =      F    k-point downsampling of WAVECAR
   LCHARG       =      T    write CHGCAR
   LVTOT        =      F    write LOCPOT, total local potential
   LVHAR        =      F    write LOCPOT, Hartree potential only
   LELF         =      F    write electronic localiz. function (ELF)
   LORBIT       =      0    0 simple, 1 ext, 2 COOP (PROOUT), +10 PAW based schemes


 Dipole corrections
   LMONO  =      F    monopole corrections only (constant potential shift)
   LDIPOL =      F    correct potential (dipole corrections)
   IDIPOL =      0    1-x, 2-y, 3-z, 4-all directions 
   EPSILON=  1.0000000 bulk dielectric constant

 Exchange correlation treatment:
   GGA     =    --    GGA type
   LEXCH   =     8    internal setting for exchange type
   VOSKOWN=      0    Vosko Wilk Nusair interpolation
   LHFCALC =     F    Hartree Fock is set to
   LHFONE  =     F    Hartree Fock one center treatment
   AEXX    =    0.0000 exact exchange contribution

 Linear response parameters
   LEPSILON=     F    determine dielectric tensor
   LRPA    =     F    only Hartree local field effects (RPA)
   LNABLA  =     F    use nabla operator in PAW spheres
   LVEL    =     F    velocity operator in full k-point grid
   LINTERFAST=   F  fast interpolation
   KINTER  =     0    interpolate to denser k-point grid
   CSHIFT  =0.1000    complex shift for real part using Kramers Kronig
   OMEGAMAX=  -1.0    maximum frequency
   DEG_THRESHOLD= 0.2000000E-02 threshold for treating states as degnerate
   RTIME   =   -0.100 relaxation time in fs
  (WPLASMAI=    0.000 imaginary part of plasma frequency in eV, 0.658/RTIME)
   DFIELD  = 0.0000000 0.0000000 0.0000000 field for delta impulse in time
 
 Orbital magnetization related:
   ORBITALMAG=     F  switch on orbital magnetization
   LCHIMAG   =     F  perturbation theory with respect to B field
   DQ        =  0.001000  dq finite difference perturbation B field
   LLRAUG    =     F  two centre corrections for induced B field



--------------------------------------------------------------------------------------------------------


 Static calculation
 charge density and potential will be updated during run
 non-spin polarized calculation
 Conjugate gradient for all bands (Freysoldt, et al. PRB 79, 241103 (2009))
 preconditioned conjugated gradient                                        
 perform sub-space diagonalisation
    before iterative eigenvector-optimisation
 modified Broyden-mixing scheme, WC =      100.0
 initial mixing is a Kerker type mixing with AMIX =  0.4000 and BMIX =      1.0000
 Hartree-type preconditioning will be used
 using additional bands           60
 reciprocal scheme for non local part
 use partial core corrections
 no Harris-corrections to forces 
 use gradient corrections 
 use of overlap-Matrix (Vanderbilt PP)
 Gauss-broadening in eV      SIGMA  =   0.01


--------------------------------------------------------------------------------------------------------


  energy-cutoff  :     1000.00
  volume of cell :     2631.08
      direct lattice vectors                 reciprocal lattice vectors
    12.325000000  0.000000000  0.000000000     0.081135903  0.046843835  0.000000000
    -6.162500000 10.673763102  0.000000000     0.000000000  0.093687670  0.000000000
     0.000000000  0.000000000 20.000000000     0.000000000  0.000000000  0.050000000

  length of vectors
    12.325000000 12.325000000 20.000000000     0.093687670  0.093687670  0.050000000


 
 k-points in units of 2pi/SCALE and weight: auto                                    
   0.00000000  0.00000000  0.00000000       1.000
 
 k-points in reciprocal lattice and weights: auto                                    
   0.00000000  0.00000000  0.00000000       1.000
 
 position of ions in fractional coordinates (direct lattice) 
   0.97245084  0.00032082  0.00070839
   0.03911838  0.13365950  0.00055022
   0.17244363  0.00029545  0.00062454
   0.23909628  0.13364792  0.00032058
   0.97245206  0.20032201  0.00060652
   0.03912836  0.33364377  0.00055519
   0.17245176  0.20035455  0.00027396
   0.23912436  0.33366572  0.00009033
   0.37246557  0.00032440  0.00056739
   0.43913747  0.13361994  0.00032292
   0.97244982  0.40030936  0.00068451
   0.03912498  0.53363679  0.00071676
   0.37241618  0.40032948  0.00000000
   0.43909960  0.53363898  0.00029052
   0.57244368  0.00031213  0.00069947
   0.63911021  0.13363175  0.00068409
   0.97245270  0.60030565  0.00080036
   0.03912449  0.73364036  0.00081814
   0.57243347  0.60030624  0.00050362
   0.63911189  0.73364188  0.00065988
   0.17245463  0.40031823  0.00036131
   0.23912018  0.53363655  0.00047314
   0.37245975  0.20029599  0.00011125
   0.43910710  0.33367342  0.00006970
   0.17245216  0.60031151  0.00065542
   0.23912337  0.73363857  0.00071891
   0.57243108  0.20028917  0.00051662
   0.63911277  0.33361863  0.00057797
   0.37243981  0.60030802  0.00045356
   0.43911609  0.73363786  0.00061774
   0.57246936  0.40032050  0.00042490
   0.63911941  0.53365087  0.00057451
   0.77244572  0.00031543  0.00074520
   0.83911628  0.13364020  0.00071913
   0.77244051  0.20030743  0.00072629
   0.83912024  0.33363573  0.00073183
   0.77244632  0.40029837  0.00072872
   0.83911898  0.53363396  0.00077638
   0.77245614  0.60030817  0.00074464
   0.83911503  0.73364318  0.00078939
   0.97245531  0.80030558  0.00081529
   0.03911471  0.93364329  0.00074756
   0.17245797  0.80031221  0.00077922
   0.23913455  0.93364719  0.00068106
   0.37245140  0.80031667  0.00068925
   0.43912449  0.93364477  0.00067679
   0.57244110  0.80031005  0.00066817
   0.63911507  0.93363899  0.00073456
   0.77244510  0.80031319  0.00075258
   0.83911661  0.93364434  0.00075854
   0.37302101  0.25122688  0.19842513
   0.42087980  0.18931315  0.20164622
   0.32515698  0.31316719  0.19545239
 
 position of ions in cartesian coordinates  (Angst):
  11.98347958  0.00342433  0.01416777
  -0.34154264  1.42664989  0.01100432
   2.12354700  0.00315355  0.01249070
   2.12325634  1.42652621  0.00641170
  10.75098721  2.13818970  0.01213047
  -1.57382270  3.56123457  0.01110375
   0.89078307  2.13853702  0.00547917
   0.89099273  3.56146885  0.00180651
   4.58863896  0.00346260  0.01134782
   4.58893648  1.42622757  0.00645846
   9.51853763  4.27280730  0.01369027
  -2.80632132  5.69591267  0.01433526
   2.12299894  4.27302204  0.00000000
   2.12335237  5.69593607  0.00581036
   7.05344483  0.00333155  0.01398950
   7.05352764  1.42635365  0.01368187
   8.28609598  6.40752033  0.01600723
  -4.03884931  7.83070339  0.01636283
   3.35585531  6.40752662  0.01007237
   3.35598594  7.83071962  0.01319763
  -0.34145776  4.27290193  0.00722612
  -0.34137895  5.69591010  0.00946273
   3.35624236  2.13791198  0.00222492
   3.35573251  3.56155103  0.00139405
  -1.57394684  6.40758280  0.01310850
  -1.57385216  7.83068434  0.01437823
   5.82093107  2.13783916  0.01033241
   5.82114012  3.56096622  0.01155939
   0.89092245  6.40754561  0.00907111
   0.89106251  7.83067670  0.01235474
   4.58870974  4.27292622  0.00849795
   4.58852320  5.69606300  0.01149026
   9.51844972  0.00336679  0.01490402
   9.51855036  1.42644387  0.01438264
   8.28593477  2.13803408  0.01452582
   8.28612680  3.56114872  0.01463668
   7.05356221  4.27268994  0.01457444
   7.05362213  5.69588251  0.01552751
   5.82112285  6.40754723  0.01489279
   5.82101669  7.83073350  0.01578780
   7.05362858  8.54227219  0.01630582
  -5.27148792  9.96548729  0.01495127
  -2.80637951  8.54234295  0.01558431
  -2.80626749  9.96552896  0.01362126
  -0.34148805  8.54239058  0.01378498
  -0.34137657  9.96550309  0.01353576
   2.12342586  8.54231992  0.01336337
   2.12354296  9.96544135  0.01469111
   4.58845581  8.54235337  0.01505154
   4.58852904  9.96549848  0.01517076
   3.04929830  2.68153618  3.96850263
   4.02070129  2.02068374  4.03292449
   2.07766701  3.34267235  3.90904776
 


--------------------------------------------------------------------------------------------------------


 k-point   1 :   0.0000 0.0000 0.0000  plane waves:  189031

 maximum and minimum number of plane-waves per node :    189031   189031

 maximum number of plane-waves:    189031
 maximum index in each direction: 
   IXMAX=   31   IYMAX=   31   IZMAX=   51
   IXMIN=  -31   IYMIN=  -31   IZMIN=  -51


 serial   3D FFT for wavefunctions
 parallel 3D FFT for charge:
    minimum data exchange during FFTs selected (reduces bandwidth)


 total amount of memory used by VASP MPI-rank0   556209. kBytes
=======================================================================

   base      :      30000. kBytes
   nonl-proj :     184518. kBytes
   fftplans  :      31725. kBytes
   grid      :     282516. kBytes
   one-center:        162. kBytes
   wavefun   :      27288. kBytes
 
     INWAV:  cpu time    0.0000: real time    0.0000
 Broyden mixing: mesh for mixing (old mesh)
   NGX = 63   NGY = 63   NGZ =103
  (NGX  =256   NGY  =256   NGZ  =420)
  gives a total of 408807 points

 initial charge density was supplied:
 charge density of overlapping atoms calculated
 number of electron     216.0000000 magnetization 
 keeping initial charge density in first step


--------------------------------------------------------------------------------------------------------


 Maximum index for augmentation-charges          459 (set IRDMAX)


--------------------------------------------------------------------------------------------------------


 First call to EWALD:  gamma=   0.128
 Maximum number of real-space cells 3x 3x 2
 Maximum number of reciprocal cells 3x 3x 4

    FEWALD:  cpu time    0.0024: real time    0.0024


--------------------------------------- Iteration      1(   1)  ---------------------------------------


    POTLOK:  cpu time    1.2797: real time    1.3011
    SETDIJ:  cpu time    0.1702: real time    0.1708
    TRIAL :  cpu time   21.8956: real time   22.0666
    CORREC:  cpu time    0.0004: real time    0.0005
    --------------------------------------------
      LOOP:  cpu time   23.3586: real time   23.5620

 eigenvalue-minimisations  :   336
 total energy-change (2. order) : 0.2417834E+04  (-0.1181221E+05)
 number of electron     216.0000000 magnetization 
 augmentation part      216.0000000 magnetization 

 Free energy of the ion-electron system (eV)
  ---------------------------------------------------
  alpha Z        PSCENC =        59.93625244
  Ewald energy   TEWEN  =     33224.32714901
  -Hartree energ DENC   =    -39399.68987886
  -exchange      EXHF   =         0.00000000
  -V(xc)+E(xc)   XCENC  =       605.11340756
  PAW double counting   =      6340.10990386    -6200.63067283
  entropy T*S    EENTRO =        -0.00000000
  eigenvalues    EBANDS =      -580.85534882
  atomic energy  EATOM  =      8369.52358910
  ---------------------------------------------------
  free energy    TOTEN  =      2417.83440146 eV

  energy without entropy =     2417.83440146  energy(sigma->0) =     2417.83440146


--------------------------------------------------------------------------------------------------------




--------------------------------------- Iteration      1(   2)  ---------------------------------------


    TRIAL :  cpu time   33.3833: real time   33.6734
    CORREC:  cpu time    0.0001: real time    0.0001
    --------------------------------------------
      LOOP:  cpu time   33.4380: real time   33.7355

 eigenvalue-minimisations  :   616
 total energy-change (2. order) :-0.2450408E+04  (-0.2329532E+04)
 number of electron     216.0000000 magnetization 
 augmentation part      216.0000000 magnetization 

 Free energy of the ion-electron system (eV)
  ---------------------------------------------------
  alpha Z        PSCENC =        59.93625244
  Ewald energy   TEWEN  =     33224.32714901
  -Hartree energ DENC   =    -39399.68987886
  -exchange      EXHF   =         0.00000000
  -V(xc)+E(xc)   XCENC  =       605.11340756
  PAW double counting   =      6340.10990386    -6200.63067283
  entropy T*S    EENTRO =        -0.00000000
  eigenvalues    EBANDS =     -3031.26322950
  atomic energy  EATOM  =      8369.52358910
  ---------------------------------------------------
  free energy    TOTEN  =       -32.57347922 eV

  energy without entropy =      -32.57347922  energy(sigma->0) =      -32.57347922


--------------------------------------------------------------------------------------------------------




--------------------------------------- Iteration      1(   3)  ---------------------------------------


    TRIAL :  cpu time   24.1766: real time   24.3708
    CORREC:  cpu time    0.0001: real time    0.0001
    --------------------------------------------
      LOOP:  cpu time   24.2401: real time   24.4350

 eigenvalue-minimisations  :   392
 total energy-change (2. order) :-0.5489038E+03  (-0.5461732E+03)
 number of electron     216.0000000 magnetization 
 augmentation part      216.0000000 magnetization 

 Free energy of the ion-electron system (eV)
  ---------------------------------------------------
  alpha Z        PSCENC =        59.93625244
  Ewald energy   TEWEN  =     33224.32714901
  -Hartree energ DENC   =    -39399.68987886
  -exchange      EXHF   =         0.00000000
  -V(xc)+E(xc)   XCENC  =       605.11340756
  PAW double counting   =      6340.10990386    -6200.63067283
  entropy T*S    EENTRO =        -0.00000000
  eigenvalues    EBANDS =     -3580.16706315
  atomic energy  EATOM  =      8369.52358910
  ---------------------------------------------------
  free energy    TOTEN  =      -581.47731287 eV

  energy without entropy =     -581.47731287  energy(sigma->0) =     -581.47731287


--------------------------------------------------------------------------------------------------------




--------------------------------------- Iteration      1(   4)  ---------------------------------------


    TRIAL :  cpu time   26.4671: real time   26.6952
    CORREC:  cpu time    0.0001: real time    0.0001
    --------------------------------------------
      LOOP:  cpu time   26.5517: real time   26.7805

 eigenvalue-minimisations  :   448
 total energy-change (2. order) :-0.2538252E+02  (-0.2523735E+02)
 number of electron     216.0000000 magnetization 
 augmentation part      216.0000000 magnetization 

 Free energy of the ion-electron system (eV)
  ---------------------------------------------------
  alpha Z        PSCENC =        59.93625244
  Ewald energy   TEWEN  =     33224.32714901
  -Hartree energ DENC   =    -39399.68987886
  -exchange      EXHF   =         0.00000000
  -V(xc)+E(xc)   XCENC  =       605.11340756
  PAW double counting   =      6340.10990386    -6200.63067283
  entropy T*S    EENTRO =        -0.00000000
  eigenvalues    EBANDS =     -3605.54958324
  atomic energy  EATOM  =      8369.52358910
  ---------------------------------------------------
  free energy    TOTEN  =      -606.85983296 eV

  energy without entropy =     -606.85983296  energy(sigma->0) =     -606.85983296


--------------------------------------------------------------------------------------------------------




--------------------------------------- Iteration      1(   5)  ---------------------------------------


    TRIAL :  cpu time   21.8737: real time   22.0546
    CORREC:  cpu time    0.0001: real time    0.0001
    CHARGE:  cpu time    2.2920: real time    2.3112
    --------------------------------------------
      LOOP:  cpu time   24.1898: real time   24.3920

 eigenvalue-minimisations  :   336
 total energy-change (2. order) :-0.8685839E+00  (-0.8681335E+00)
 number of electron     216.0000000 magnetization 
 augmentation part       -0.4472806 magnetization 

 Free energy of the ion-electron system (eV)
  ---------------------------------------------------
  alpha Z        PSCENC =        59.93625244
  Ewald energy   TEWEN  =     33224.32714901
  -Hartree energ DENC   =    -39399.68987886
  -exchange      EXHF   =         0.00000000
  -V(xc)+E(xc)   XCENC  =       605.11340756
  PAW double counting   =      6340.10990386    -6200.63067283
  entropy T*S    EENTRO =        -0.00000000
  eigenvalues    EBANDS =     -3606.41816711
  atomic energy  EATOM  =      8369.52358910
  ---------------------------------------------------
  free energy    TOTEN  =      -607.72841684 eV

  energy without entropy =     -607.72841684  energy(sigma->0) =     -607.72841684


--------------------------------------------------------------------------------------------------------




--------------------------------------- Iteration      1(   6)  ---------------------------------------


    POTLOK:  cpu time    1.2547: real time    1.2639
    SETDIJ:  cpu time    0.1858: real time    0.1866
    TRIAL :  cpu time   15.5592: real time   15.7087
    CORREC:  cpu time    6.8781: real time    6.9323
    CHARGE:  cpu time    2.3031: real time    2.3203
    --------------------------------------------
      LOOP:  cpu time   26.2025: real time   26.4699

 eigenvalue-minimisations  :     0
 total energy-change (2. order) : 0.9794904E+02  (-0.1128498E+02)
 number of electron     216.0000000 magnetization 
 augmentation part       -0.5088601 magnetization 

 Free energy of the ion-electron system (eV)
  ---------------------------------------------------
  alpha Z        PSCENC =        59.93625244
  Ewald energy   TEWEN  =     33224.32714901
  -Hartree energ DENC   =    -40714.32638377
  -exchange      EXHF   =         0.00000000
  -V(xc)+E(xc)   XCENC  =       676.74497893
  PAW double counting   =    119290.94240514  -119151.35414950
  entropy T*S    EENTRO =        -0.00000000
  eigenvalues    EBANDS =     -2265.57321368
  atomic energy  EATOM  =      8369.52358910
  ---------------------------------------------------
  free energy    TOTEN  =      -509.77937233 eV

  energy without entropy =     -509.77937233  energy(sigma->0) =     -509.77937233


--------------------------------------------------------------------------------------------------------




--------------------------------------- Iteration      1(   7)  ---------------------------------------


    POTLOK:  cpu time    1.2545: real time    1.2629
    SETDIJ:  cpu time    0.1791: real time    0.1799
    TRIAL :  cpu time   15.6193: real time   15.7316
    CORREC:  cpu time    6.8880: real time    6.9525
    CHARGE:  cpu time    2.2868: real time    2.3056
    --------------------------------------------
      LOOP:  cpu time   26.2307: real time   26.4635

 eigenvalue-minimisations  :     0
 total energy-change (2. order) :-0.1129733E+02  (-0.1478629E+01)
 number of electron     216.0000000 magnetization 
 augmentation part       -0.5424440 magnetization 

 Free energy of the ion-electron system (eV)
  ---------------------------------------------------
  alpha Z        PSCENC =        59.93625244
  Ewald energy   TEWEN  =     33224.32714901
  -Hartree energ DENC   =    -40312.32912115
  -exchange      EXHF   =         0.00000000
  -V(xc)+E(xc)   XCENC  =       659.15612344
  PAW double counting   =    138732.53534369  -138591.21094035
  entropy T*S    EENTRO =        -0.00000000
  eigenvalues    EBANDS =     -2663.01510180
  atomic energy  EATOM  =      8369.52358910
  ---------------------------------------------------
  free energy    TOTEN  =      -521.07670561 eV

  energy without entropy =     -521.07670561  energy(sigma->0) =     -521.07670561


--------------------------------------------------------------------------------------------------------




--------------------------------------- Iteration      1(   8)  ---------------------------------------


    POTLOK:  cpu time    1.2505: real time    1.2595
    SETDIJ:  cpu time    0.1805: real time    0.1813
    TRIAL :  cpu time   15.5853: real time   15.7041
    CORREC:  cpu time    6.8771: real time    6.9338
    CHARGE:  cpu time    2.2870: real time    2.3034
    --------------------------------------------
      LOOP:  cpu time   26.2803: real time   26.4849

 eigenvalue-minimisations  :     0
 total energy-change (2. order) :-0.1479034E+01  (-0.4740832E+00)
 number of electron     216.0000000 magnetization 
 augmentation part       -0.5434261 magnetization 

 Free energy of the ion-electron system (eV)
  ---------------------------------------------------
  alpha Z        PSCENC =        59.93625244
  Ewald energy   TEWEN  =     33224.32714901
  -Hartree energ DENC   =    -40283.89687581
  -exchange      EXHF   =         0.00000000
  -V(xc)+E(xc)   XCENC  =       658.06457970
  PAW double counting   =    148561.08234836  -148419.63058212
  entropy T*S    EENTRO =        -0.00000000
  eigenvalues    EBANDS =     -2691.96220022
  atomic energy  EATOM  =      8369.52358910
  ---------------------------------------------------
  free energy    TOTEN  =      -522.55573954 eV

  energy without entropy =     -522.55573954  energy(sigma->0) =     -522.55573954


--------------------------------------------------------------------------------------------------------




--------------------------------------- Iteration      1(   9)  ---------------------------------------


    POTLOK:  cpu time    1.2516: real time    1.2592
    SETDIJ:  cpu time    0.1800: real time    0.1807
    TRIAL :  cpu time   15.5923: real time   15.7107
    CORREC:  cpu time    6.8797: real time    6.9318
    CHARGE:  cpu time    2.3042: real time    2.3228
    --------------------------------------------
      LOOP:  cpu time   26.2875: real time   26.5038

 eigenvalue-minimisations  :     0
 total energy-change (2. order) :-0.4737550E+00  (-0.1890018E+00)
 number of electron     216.0000000 magnetization 
 augmentation part       -0.5400403 magnetization 

 Free energy of the ion-electron system (eV)
  ---------------------------------------------------
  alpha Z        PSCENC =        59.93625244
  Ewald energy   TEWEN  =     33224.32714901
  -Hartree energ DENC   =    -40290.33463592
  -exchange      EXHF   =         0.00000000
  -V(xc)+E(xc)   XCENC  =       658.02303386
  PAW double counting   =    156531.02757652  -156389.50338285
  entropy T*S    EENTRO =        -0.00000000
  eigenvalues    EBANDS =     -2686.02907671
  atomic energy  EATOM  =      8369.52358910
  ---------------------------------------------------
  free energy    TOTEN  =      -523.02949455 eV

  energy without entropy =     -523.02949455  energy(sigma->0) =     -523.02949455


--------------------------------------------------------------------------------------------------------




--------------------------------------- Iteration      1(  10)  ---------------------------------------


    POTLOK:  cpu time    1.2566: real time    1.2642
    SETDIJ:  cpu time    0.1784: real time    0.1791
    TRIAL :  cpu time   15.6054: real time   15.7212
    CORREC:  cpu time    6.8770: real time    6.9275
    CHARGE:  cpu time    2.2851: real time    2.3013
    --------------------------------------------
      LOOP:  cpu time   26.2317: real time   26.4253

 eigenvalue-minimisations  :     0
 total energy-change (2. order) :-0.1887619E+00  (-0.8492201E-01)
 number of electron     216.0000000 magnetization 
 augmentation part       -0.5344793 magnetization 

 Free energy of the ion-electron system (eV)
  ---------------------------------------------------
  alpha Z        PSCENC =        59.93625244
  Ewald energy   TEWEN  =     33224.32714901
  -Hartree energ DENC   =    -40289.37678241
  -exchange      EXHF   =         0.00000000
  -V(xc)+E(xc)   XCENC  =       657.92522660
  PAW double counting   =    160310.18423396  -160168.61186658
  entropy T*S    EENTRO =        -0.00000000
  eigenvalues    EBANDS =     -2687.12605860
  atomic energy  EATOM  =      8369.52358910
  ---------------------------------------------------
  free energy    TOTEN  =      -523.21825647 eV

  energy without entropy =     -523.21825647  energy(sigma->0) =     -523.21825647


--------------------------------------------------------------------------------------------------------




--------------------------------------- Iteration      1(  11)  ---------------------------------------


    POTLOK:  cpu time    1.2548: real time    1.2622
    SETDIJ:  cpu time    0.1777: real time    0.1784
    TRIAL :  cpu time   15.6229: real time   15.7389
    CORREC:  cpu time    6.9106: real time    6.9882
    CHARGE:  cpu time    2.2864: real time    2.3041
    --------------------------------------------
      LOOP:  cpu time   26.3330: real time   26.5554

 eigenvalue-minimisations  :     0
 total energy-change (2. order) :-0.8475509E-01  (-0.3237031E-01)
 number of electron     216.0000000 magnetization 
 augmentation part       -0.5308572 magnetization 

 Free energy of the ion-electron system (eV)
  ---------------------------------------------------
  alpha Z        PSCENC =        59.93625244
  Ewald energy   TEWEN  =     33224.32714901
  -Hartree energ DENC   =    -40283.34304195
  -exchange      EXHF   =         0.00000000
  -V(xc)+E(xc)   XCENC  =       657.84196091
  PAW double counting   =    160875.16846132  -160733.61542061
  entropy T*S    EENTRO =        -0.00000000
  eigenvalues    EBANDS =     -2693.14196178
  atomic energy  EATOM  =      8369.52358910
  ---------------------------------------------------
  free energy    TOTEN  =      -523.30301155 eV

  energy without entropy =     -523.30301155  energy(sigma->0) =     -523.30301155


--------------------------------------------------------------------------------------------------------




--------------------------------------- Iteration      1(  12)  ---------------------------------------


    POTLOK:  cpu time    1.2543: real time    1.2628
    SETDIJ:  cpu time    0.1786: real time    0.1792
    TRIAL :  cpu time   15.5914: real time   15.7105
    CORREC:  cpu time    6.8865: real time    6.9346
    CHARGE:  cpu time    2.2901: real time    2.3066
    --------------------------------------------
      LOOP:  cpu time   26.2671: real time   26.4612

 eigenvalue-minimisations  :     0
 total energy-change (2. order) :-0.3232456E-01  (-0.9940969E-02)
 number of electron     216.0000000 magnetization 
 augmentation part       -0.5306410 magnetization 

 Free energy of the ion-electron system (eV)
  ---------------------------------------------------
  alpha Z        PSCENC =        59.93625244
  Ewald energy   TEWEN  =     33224.32714901
  -Hartree energ DENC   =    -40278.97571740
  -exchange      EXHF   =         0.00000000
  -V(xc)+E(xc)   XCENC  =       657.77158983
  PAW double counting   =    160194.37967061  -160052.85352272
  entropy T*S    EENTRO =        -0.00000000
  eigenvalues    EBANDS =     -2697.44434698
  atomic energy  EATOM  =      8369.52358910
  ---------------------------------------------------
  free energy    TOTEN  =      -523.33533611 eV

  energy without entropy =     -523.33533611  energy(sigma->0) =     -523.33533611


--------------------------------------------------------------------------------------------------------




--------------------------------------- Iteration      1(  13)  ---------------------------------------


    POTLOK:  cpu time    1.2542: real time    1.2617
    SETDIJ:  cpu time    0.1809: real time    0.1814
    TRIAL :  cpu time   15.6041: real time   15.7157
    CORREC:  cpu time    6.8776: real time    6.9257
    CHARGE:  cpu time    2.2820: real time    2.2978
    --------------------------------------------
      LOOP:  cpu time   26.2260: real time   26.4298

 eigenvalue-minimisations  :     0
 total energy-change (2. order) :-0.9923444E-02  (-0.2845754E-02)
 number of electron     216.0000000 magnetization 
 augmentation part       -0.5311299 magnetization 

 Free energy of the ion-electron system (eV)
  ---------------------------------------------------
  alpha Z        PSCENC =        59.93625244
  Ewald energy   TEWEN  =     33224.32714901
  -Hartree energ DENC   =    -40277.74562508
  -exchange      EXHF   =         0.00000000
  -V(xc)+E(xc)   XCENC  =       657.72225128
  PAW double counting   =    159480.02830001  -159338.50598305
  entropy T*S    EENTRO =        -0.00000000
  eigenvalues    EBANDS =     -2698.63119328
  atomic energy  EATOM  =      8369.52358910
  ---------------------------------------------------
  free energy    TOTEN  =      -523.34525956 eV

  energy without entropy =     -523.34525956  energy(sigma->0) =     -523.34525956


--------------------------------------------------------------------------------------------------------




--------------------------------------- Iteration      1(  14)  ---------------------------------------


    POTLOK:  cpu time    1.2538: real time    1.2610
    SETDIJ:  cpu time    0.1804: real time    0.1810
    TRIAL :  cpu time   15.5956: real time   15.7078
    CORREC:  cpu time    6.8897: real time    6.9359
    CHARGE:  cpu time    2.2889: real time    2.3049
    --------------------------------------------
      LOOP:  cpu time   26.2701: real time   26.4561

 eigenvalue-minimisations  :     0
 total energy-change (2. order) :-0.2834320E-02  (-0.7701124E-03)
 number of electron     216.0000000 magnetization 
 augmentation part       -0.5313991 magnetization 

 Free energy of the ion-electron system (eV)
  ---------------------------------------------------
  alpha Z        PSCENC =        59.93625244
  Ewald energy   TEWEN  =     33224.32714901
  -Hartree energ DENC   =    -40277.86467985
  -exchange      EXHF   =         0.00000000
  -V(xc)+E(xc)   XCENC  =       657.71184754
  PAW double counting   =    159049.35625923  -158907.83264409
  entropy T*S    EENTRO =        -0.00000000
  eigenvalues    EBANDS =     -2698.50586725
  atomic energy  EATOM  =      8369.52358910
  ---------------------------------------------------
  free energy    TOTEN  =      -523.34809388 eV

  energy without entropy =     -523.34809388  energy(sigma->0) =     -523.34809388


--------------------------------------------------------------------------------------------------------




--------------------------------------- Iteration      1(  15)  ---------------------------------------


    POTLOK:  cpu time    1.2563: real time    1.2640
    SETDIJ:  cpu time    0.1775: real time    0.1781
    TRIAL :  cpu time   15.5953: real time   15.7153
    CORREC:  cpu time    6.8690: real time    6.9240
    CHARGE:  cpu time    2.2858: real time    2.3017
    --------------------------------------------
      LOOP:  cpu time   26.1905: real time   26.4312

 eigenvalue-minimisations  :     0
 total energy-change (2. order) :-0.7651448E-03  (-0.2352812E-03)
 number of electron     216.0000000 magnetization 
 augmentation part       -0.5316166 magnetization 

 Free energy of the ion-electron system (eV)
  ---------------------------------------------------
  alpha Z        PSCENC =        59.93625244
  Ewald energy   TEWEN  =     33224.32714901
  -Hartree energ DENC   =    -40277.81957557
  -exchange      EXHF   =         0.00000000
  -V(xc)+E(xc)   XCENC  =       657.70714116
  PAW double counting   =    158839.43112740  -158697.90647614
  entropy T*S    EENTRO =        -0.00000000
  eigenvalues    EBANDS =     -2698.54806643
  atomic energy  EATOM  =      8369.52358910
  ---------------------------------------------------
  free energy    TOTEN  =      -523.34885902 eV

  energy without entropy =     -523.34885902  energy(sigma->0) =     -523.34885902


--------------------------------------------------------------------------------------------------------




--------------------------------------- Iteration      1(  16)  ---------------------------------------


    POTLOK:  cpu time    1.2597: real time    1.2716
    SETDIJ:  cpu time    0.1711: real time    0.1717
    TRIAL :  cpu time   15.5994: real time   15.7076
    CORREC:  cpu time    6.8789: real time    6.9279
    CHARGE:  cpu time    2.2916: real time    2.3077
    --------------------------------------------
      LOOP:  cpu time   26.2419: real time   26.4448

 eigenvalue-minimisations  :     0
 total energy-change (2. order) :-0.2331349E-03  (-0.8868251E-04)
 number of electron     216.0000000 magnetization 
 augmentation part       -0.5317041 magnetization 

 Free energy of the ion-electron system (eV)
  ---------------------------------------------------
  alpha Z        PSCENC =        59.93625244
  Ewald energy   TEWEN  =     33224.32714901
  -Hartree energ DENC   =    -40277.73369331
  -exchange      EXHF   =         0.00000000
  -V(xc)+E(xc)   XCENC  =       657.70103747
  PAW double counting   =    158722.84259629  -158581.31616308
  entropy T*S    EENTRO =        -0.00000000
  eigenvalues    EBANDS =     -2698.62986008
  atomic energy  EATOM  =      8369.52358910
  ---------------------------------------------------
  free energy    TOTEN  =      -523.34909216 eV

  energy without entropy =     -523.34909216  energy(sigma->0) =     -523.34909216


--------------------------------------------------------------------------------------------------------




--------------------------------------- Iteration      1(  17)  ---------------------------------------


    POTLOK:  cpu time    1.2534: real time    1.2606
    SETDIJ:  cpu time    0.1789: real time    0.1795
    TRIAL :  cpu time   15.6218: real time   15.7325
    CORREC:  cpu time    6.8738: real time    6.9254
    CHARGE:  cpu time    2.2867: real time    2.3029
    --------------------------------------------
      LOOP:  cpu time   26.2501: real time   26.4700

 eigenvalue-minimisations  :     0
 total energy-change (2. order) :-0.8736411E-04  (-0.3716294E-04)
 number of electron     216.0000000 magnetization 
 augmentation part       -0.5317390 magnetization 

 Free energy of the ion-electron system (eV)
  ---------------------------------------------------
  alpha Z        PSCENC =        59.93625244
  Ewald energy   TEWEN  =     33224.32714901
  -Hartree energ DENC   =    -40277.90014131
  -exchange      EXHF   =         0.00000000
  -V(xc)+E(xc)   XCENC  =       657.70805583
  PAW double counting   =    158649.28055667  -158507.75400729
  entropy T*S    EENTRO =        -0.00000000
  eigenvalues    EBANDS =     -2698.47063397
  atomic energy  EATOM  =      8369.52358910
  ---------------------------------------------------
  free energy    TOTEN  =      -523.34917952 eV

  energy without entropy =     -523.34917952  energy(sigma->0) =     -523.34917952


--------------------------------------------------------------------------------------------------------




--------------------------------------- Iteration      1(  18)  ---------------------------------------


    POTLOK:  cpu time    1.2537: real time    1.2609
    SETDIJ:  cpu time    0.1801: real time    0.1808
    TRIAL :  cpu time   15.5963: real time   15.7083
    CORREC:  cpu time    6.8878: real time    6.9352
    CHARGE:  cpu time    2.2949: real time    2.3103
    --------------------------------------------
      LOOP:  cpu time   26.2368: real time   26.4316

 eigenvalue-minimisations  :     0
 total energy-change (2. order) :-0.3741938E-04  (-0.1450358E-04)
 number of electron     216.0000000 magnetization 
 augmentation part       -0.5317603 magnetization 

 Free energy of the ion-electron system (eV)
  ---------------------------------------------------
  alpha Z        PSCENC =        59.93625244
  Ewald energy   TEWEN  =     33224.32714901
  -Hartree energ DENC   =    -40277.97404478
  -exchange      EXHF   =         0.00000000
  -V(xc)+E(xc)   XCENC  =       657.71094166
  PAW double counting   =    158623.83324318  -158482.30643317
  entropy T*S    EENTRO =        -0.00000000
  eigenvalues    EBANDS =     -2698.39991438
  atomic energy  EATOM  =      8369.52358910
  ---------------------------------------------------
  free energy    TOTEN  =      -523.34921694 eV

  energy without entropy =     -523.34921694  energy(sigma->0) =     -523.34921694


--------------------------------------------------------------------------------------------------------




--------------------------------------- Iteration      1(  19)  ---------------------------------------


    POTLOK:  cpu time    1.2525: real time    1.2678
    SETDIJ:  cpu time    0.1750: real time    0.1759
    TRIAL :  cpu time   15.6069: real time   15.7226
    CORREC:  cpu time    6.8876: real time    6.9352
    CHARGE:  cpu time    2.2833: real time    2.2994
    --------------------------------------------
      LOOP:  cpu time   26.2643: real time   26.4625

 eigenvalue-minimisations  :     0
 total energy-change (2. order) :-0.1495212E-04  (-0.5359906E-05)
 number of electron     216.0000000 magnetization 
 augmentation part       -0.5317513 magnetization 

 Free energy of the ion-electron system (eV)
  ---------------------------------------------------
  alpha Z        PSCENC =        59.93625244
  Ewald energy   TEWEN  =     33224.32714901
  -Hartree energ DENC   =    -40277.96695949
  -exchange      EXHF   =         0.00000000
  -V(xc)+E(xc)   XCENC  =       657.71022428
  PAW double counting   =    158631.11094083  -158489.58379461
  entropy T*S    EENTRO =        -0.00000000
  eigenvalues    EBANDS =     -2698.40663346
  atomic energy  EATOM  =      8369.52358910
  ---------------------------------------------------
  free energy    TOTEN  =      -523.34923189 eV

  energy without entropy =     -523.34923189  energy(sigma->0) =     -523.34923189


--------------------------------------------------------------------------------------------------------




--------------------------------------- Iteration      1(  20)  ---------------------------------------


    POTLOK:  cpu time    1.2542: real time    1.2618
    SETDIJ:  cpu time    0.1809: real time    0.1816
    TRIAL :  cpu time   15.6016: real time   15.7292
    CORREC:  cpu time    6.8836: real time    6.9313
    CHARGE:  cpu time    2.2892: real time    2.3053
    --------------------------------------------
      LOOP:  cpu time   26.2756: real time   26.4766

 eigenvalue-minimisations  :     0
 total energy-change (2. order) :-0.5532056E-05  (-0.1871861E-05)
 number of electron     216.0000000 magnetization 
 augmentation part       -0.5317422 magnetization 

 Free energy of the ion-electron system (eV)
  ---------------------------------------------------
  alpha Z        PSCENC =        59.93625244
  Ewald energy   TEWEN  =     33224.32714901
  -Hartree energ DENC   =    -40277.98947021
  -exchange      EXHF   =         0.00000000
  -V(xc)+E(xc)   XCENC  =       657.71119876
  PAW double counting   =    158645.87644764  -158504.34941903
  entropy T*S    EENTRO =        -0.00000000
  eigenvalues    EBANDS =     -2698.38498514
  atomic energy  EATOM  =      8369.52358910
  ---------------------------------------------------
  free energy    TOTEN  =      -523.34923742 eV

  energy without entropy =     -523.34923742  energy(sigma->0) =     -523.34923742


--------------------------------------------------------------------------------------------------------




--------------------------------------- Iteration      1(  21)  ---------------------------------------


    POTLOK:  cpu time    1.2564: real time    1.2637
    SETDIJ:  cpu time    0.1773: real time    0.1780
    TRIAL :  cpu time   15.5793: real time   15.7004
    CORREC:  cpu time    6.8746: real time    6.9250
    CHARGE:  cpu time    2.2868: real time    2.3041
    --------------------------------------------
      LOOP:  cpu time   26.2013: real time   26.4032

 eigenvalue-minimisations  :     0
 total energy-change (2. order) :-0.1913228E-05  (-0.7023570E-06)
 number of electron     216.0000000 magnetization 
 augmentation part       -0.5317297 magnetization 

 Free energy of the ion-electron system (eV)
  ---------------------------------------------------
  alpha Z        PSCENC =        59.93625244
  Ewald energy   TEWEN  =     33224.32714901
  -Hartree energ DENC   =    -40277.99335178
  -exchange      EXHF   =         0.00000000
  -V(xc)+E(xc)   XCENC  =       657.71114847
  PAW double counting   =    158657.15666106  -158515.62968985
  entropy T*S    EENTRO =        -0.00000000
  eigenvalues    EBANDS =     -2698.38099778
  atomic energy  EATOM  =      8369.52358910
  ---------------------------------------------------
  free energy    TOTEN  =      -523.34923934 eV

  energy without entropy =     -523.34923934  energy(sigma->0) =     -523.34923934


--------------------------------------------------------------------------------------------------------




--------------------------------------- Iteration      1(  22)  ---------------------------------------


    POTLOK:  cpu time    1.2523: real time    1.2597
    SETDIJ:  cpu time    0.1849: real time    0.1856
    TRIAL :  cpu time   15.5918: real time   15.7055
    CORREC:  cpu time    6.8837: real time    6.9348
    CHARGE:  cpu time    2.2878: real time    2.3043
    --------------------------------------------
      LOOP:  cpu time   26.2371: real time   26.4278

 eigenvalue-minimisations  :     0
 total energy-change (2. order) :-0.7050403E-06  (-0.2895166E-06)
 number of electron     216.0000000 magnetization 
 augmentation part       -0.5317198 magnetization 

 Free energy of the ion-electron system (eV)
  ---------------------------------------------------
  alpha Z        PSCENC =        59.93625244
  Ewald energy   TEWEN  =     33224.32714901
  -Hartree energ DENC   =    -40277.98764362
  -exchange      EXHF   =         0.00000000
  -V(xc)+E(xc)   XCENC  =       657.71088976
  PAW double counting   =    158663.72664213  -158522.19974774
  entropy T*S    EENTRO =        -0.00000000
  eigenvalues    EBANDS =     -2698.38637113
  atomic energy  EATOM  =      8369.52358910
  ---------------------------------------------------
  free energy    TOTEN  =      -523.34924004 eV

  energy without entropy =     -523.34924004  energy(sigma->0) =     -523.34924004


--------------------------------------------------------------------------------------------------------




--------------------------------------- Iteration      1(  23)  ---------------------------------------


    POTLOK:  cpu time    1.2544: real time    1.2614
    SETDIJ:  cpu time    0.1787: real time    0.1793
    TRIAL :  cpu time   15.5918: real time   15.7045
    CORREC:  cpu time    6.8837: real time    6.9300
    CHARGE:  cpu time    2.2870: real time    2.3027
    --------------------------------------------
      LOOP:  cpu time   26.2588: real time   26.4458

 eigenvalue-minimisations  :     0
 total energy-change (2. order) :-0.2635934E-06  (-0.1601600E-06)
 number of electron     216.0000000 magnetization 
 augmentation part       -0.5317198 magnetization 

 Free energy of the ion-electron system (eV)
  ---------------------------------------------------
  alpha Z        PSCENC =        59.93625244
  Ewald energy   TEWEN  =     33224.32714901
  -Hartree energ DENC   =    -40277.98440613
  -exchange      EXHF   =         0.00000000
  -V(xc)+E(xc)   XCENC  =       657.71086703
  PAW double counting   =    158667.02562561  -158525.49880979
  entropy T*S    EENTRO =        -0.00000000
  eigenvalues    EBANDS =     -2698.38950758
  atomic energy  EATOM  =      8369.52358910
  ---------------------------------------------------
  free energy    TOTEN  =      -523.34924031 eV

  energy without entropy =     -523.34924031  energy(sigma->0) =     -523.34924031


--------------------------------------------------------------------------------------------------------




--------------------------------------- Iteration      1(  24)  ---------------------------------------


    POTLOK:  cpu time    1.2570: real time    1.2646
    SETDIJ:  cpu time    0.1785: real time    0.1791
    TRIAL :  cpu time   15.5994: real time   15.7108
    CORREC:  cpu time   27.5038: real time   27.7048
    CHARGE:  cpu time    2.2859: real time    2.3023
    --------------------------------------------
      LOOP:  cpu time   46.8808: real time   47.2197

 eigenvalue-minimisations  :     0
 total energy-change (2. order) :-0.7206108E-07  (-0.4809351E-06)
 number of electron     216.0000000 magnetization 
 augmentation part       -0.5317212 magnetization 

 Free energy of the ion-electron system (eV)
  ---------------------------------------------------
  alpha Z        PSCENC =        59.93625244
  Ewald energy   TEWEN  =     33224.32714901
  -Hartree energ DENC   =    -40277.97752926
  -exchange      EXHF   =         0.00000000
  -V(xc)+E(xc)   XCENC  =       657.71062106
  PAW double counting   =    158669.09506110  -158527.56824376
  entropy T*S    EENTRO =        -0.00000000
  eigenvalues    EBANDS =     -2698.39614008
  atomic energy  EATOM  =      8369.52358910
  ---------------------------------------------------
  free energy    TOTEN  =      -523.34924038 eV

  energy without entropy =     -523.34924038  energy(sigma->0) =     -523.34924038


--------------------------------------------------------------------------------------------------------




--------------------------------------- Iteration      1(  25)  ---------------------------------------


    POTLOK:  cpu time    1.2523: real time    1.2601
    SETDIJ:  cpu time    0.1830: real time    0.1837
    TRIAL :  cpu time   15.6051: real time   15.7210
    CORREC:  cpu time    6.8714: real time    6.9207
    CHARGE:  cpu time    2.2839: real time    2.3017
    --------------------------------------------
      LOOP:  cpu time   26.2895: real time   26.4826

 eigenvalue-minimisations  :     0
 total energy-change (2. order) : 0.8823699E-06  (-0.6420873E-06)
 number of electron     216.0000000 magnetization 
 augmentation part       -0.5317284 magnetization 

 Free energy of the ion-electron system (eV)
  ---------------------------------------------------
  alpha Z        PSCENC =        59.93625244
  Ewald energy   TEWEN  =     33224.32714901
  -Hartree energ DENC   =    -40277.97872352
  -exchange      EXHF   =         0.00000000
  -V(xc)+E(xc)   XCENC  =       657.71108280
  PAW double counting   =    158671.62760212  -158530.10089068
  entropy T*S    EENTRO =        -0.00000000
  eigenvalues    EBANDS =     -2698.39530077
  atomic energy  EATOM  =      8369.52358910
  ---------------------------------------------------
  free energy    TOTEN  =      -523.34923950 eV

  energy without entropy =     -523.34923950  energy(sigma->0) =     -523.34923950


--------------------------------------------------------------------------------------------------------




--------------------------------------- Iteration      1(  26)  ---------------------------------------


    POTLOK:  cpu time    1.2572: real time    1.2655
    SETDIJ:  cpu time    0.1773: real time    0.1779
    TRIAL :  cpu time   15.5854: real time   15.7048
    CORREC:  cpu time    6.8900: real time    6.9363
    CHARGE:  cpu time    2.2878: real time    2.3036
    --------------------------------------------
      LOOP:  cpu time   26.2365: real time   26.4329

 eigenvalue-minimisations  :     0
 total energy-change (2. order) :-0.6281771E-06  (-0.2283302E-06)
 number of electron     216.0000000 magnetization 
 augmentation part       -0.5317228 magnetization 

 Free energy of the ion-electron system (eV)
  ---------------------------------------------------
  alpha Z        PSCENC =        59.93625244
  Ewald energy   TEWEN  =     33224.32714901
  -Hartree energ DENC   =    -40277.96846946
  -exchange      EXHF   =         0.00000000
  -V(xc)+E(xc)   XCENC  =       657.71033009
  PAW double counting   =    158670.93770883  -158529.41086439
  entropy T*S    EENTRO =        -0.00000000
  eigenvalues    EBANDS =     -2698.40493574
  atomic energy  EATOM  =      8369.52358910
  ---------------------------------------------------
  free energy    TOTEN  =      -523.34924012 eV

  energy without entropy =     -523.34924012  energy(sigma->0) =     -523.34924012


--------------------------------------------------------------------------------------------------------




--------------------------------------- Iteration      1(  27)  ---------------------------------------


    POTLOK:  cpu time    1.2546: real time    1.2621
    SETDIJ:  cpu time    0.1807: real time    0.1814
    TRIAL :  cpu time   15.5904: real time   15.7052
    CORREC:  cpu time    6.8814: real time    6.9306
    CHARGE:  cpu time    2.2821: real time    2.2991
    --------------------------------------------
      LOOP:  cpu time   26.2422: real time   26.4379

 eigenvalue-minimisations  :     0
 total energy-change (2. order) :-0.2087909E-06  (-0.1299108E-06)
 number of electron     216.0000000 magnetization 
 augmentation part       -0.5317242 magnetization 

 Free energy of the ion-electron system (eV)
  ---------------------------------------------------
  alpha Z        PSCENC =        59.93625244
  Ewald energy   TEWEN  =     33224.32714901
  -Hartree energ DENC   =    -40277.97783879
  -exchange      EXHF   =         0.00000000
  -V(xc)+E(xc)   XCENC  =       657.71076413
  PAW double counting   =    158669.50639563  -158527.97960521
  entropy T*S    EENTRO =        -0.00000000
  eigenvalues    EBANDS =     -2698.39594665
  atomic energy  EATOM  =      8369.52358910
  ---------------------------------------------------
  free energy    TOTEN  =      -523.34924033 eV

  energy without entropy =     -523.34924033  energy(sigma->0) =     -523.34924033


--------------------------------------------------------------------------------------------------------




--------------------------------------- Iteration      1(  28)  ---------------------------------------


    POTLOK:  cpu time    1.2541: real time    1.2614
    SETDIJ:  cpu time    0.1778: real time    0.1785
    TRIAL :  cpu time   15.5964: real time   15.7082
    CORREC:  cpu time    6.8834: real time    6.9313
    CHARGE:  cpu time    2.3091: real time    2.3254
    --------------------------------------------
      LOOP:  cpu time   26.2997: real time   26.4871

 eigenvalue-minimisations  :     0
 total energy-change (2. order) :-0.1081789E-06  (-0.4977806E-07)
 number of electron     216.0000000 magnetization 
 augmentation part       -0.5317267 magnetization 

 Free energy of the ion-electron system (eV)
  ---------------------------------------------------
  alpha Z        PSCENC =        59.93625244
  Ewald energy   TEWEN  =     33224.32714901
  -Hartree energ DENC   =    -40277.98086348
  -exchange      EXHF   =         0.00000000
  -V(xc)+E(xc)   XCENC  =       657.71077891
  PAW double counting   =    158667.87270119  -158526.34588101
  entropy T*S    EENTRO =        -0.00000000
  eigenvalues    EBANDS =     -2698.39296661
  atomic energy  EATOM  =      8369.52358910
  ---------------------------------------------------
  free energy    TOTEN  =      -523.34924044 eV

  energy without entropy =     -523.34924044  energy(sigma->0) =     -523.34924044


--------------------------------------------------------------------------------------------------------




[...]
     31     -16.0466      2.00000
     32     -16.0464      2.00000
     33     -16.0463      2.00000
     34     -14.6412      2.00000
     35     -14.6411      2.00000
     36     -14.6407      2.00000
     37     -14.6403      2.00000
     38     -14.6403      2.00000
     39     -14.6393      2.00000
     40     -12.8646      2.00000
     41     -12.1491      2.00000
     42     -12.1490      2.00000
     43     -12.1483      2.00000
     44     -12.1482      2.00000
     45     -12.1477      2.00000
     46     -12.1477      2.00000
     47     -11.9428      2.00000
     48     -11.9427      2.00000
     49     -11.9413      2.00000
     50     -11.9412      2.00000
     51     -11.9394      2.00000
     52     -11.9391      2.00000
     53     -11.5204      2.00000
     54     -11.3291      2.00000
     55     -11.3232      2.00000
     56     -10.6303      2.00000
     57     -10.4787      2.00000
     58     -10.4786      2.00000
     59     -10.4779      2.00000
     60     -10.4777      2.00000
     61     -10.4770      2.00000
     62     -10.4769      2.00000
     63      -9.4619      2.00000
     64      -9.4592      2.00000
     65      -9.4533      2.00000
     66      -9.4530      2.00000
     67      -9.4499      2.00000
     68      -9.4493      2.00000
     69      -9.1489      2.00000
     70      -9.1470      2.00000
     71      -9.1468      2.00000
     72      -9.1451      2.00000
     73      -9.1449      2.00000
     74      -9.1448      2.00000
     75      -9.1413      2.00000
     76      -9.1412      2.00000
     77      -9.1408      2.00000
     78      -9.1397      2.00000
     79      -9.1391      2.00000
     80      -9.1385      2.00000
     81      -7.6911      2.00000
     82      -7.6872      2.00000
     83      -7.4022      2.00000
     84      -7.4020      2.00000
     85      -7.4015      2.00000
     86      -7.4013      2.00000
     87      -7.3982      2.00000
     88      -7.3982      2.00000
     89      -7.2112      2.00000
     90      -7.2106      2.00000
     91      -7.2060      2.00000
     92      -7.2046      2.00000
     93      -7.2045      2.00000
     94      -7.2020      2.00000
     95      -6.2658      2.00000
     96      -6.2638      2.00000
     97      -6.2629      2.00000
     98      -6.2598      2.00000
     99      -6.2593      2.00000
    100      -6.2587      2.00000
    101      -5.8306      2.00000
    102      -5.8283      2.00000
    103      -4.1658      2.00000
    104      -4.1648      2.00000
    105      -4.1631      2.00000
    106      -4.1623      2.00000
    107      -4.1584      2.00000
    108      -4.1582      2.00000
    109      -1.1724      0.00000
    110      -1.1721      0.00000
    111      -1.1679      0.00000
    112      -1.1676      0.00000
    113      -1.1664      0.00000
    114      -1.1659      0.00000
    115       0.8188      0.00000
    116       0.8195      0.00000
    117       0.8210      0.00000
    118       0.8243      0.00000
    119       0.8249      0.00000
    120       0.8281      0.00000
    121       0.9014      0.00000
    122       1.4946      0.00000
    123       1.5273      0.00000
    124       1.5358      0.00000
    125       1.9451      0.00000
    126       2.0709      0.00000
    127       2.3133      0.00000
    128       2.3884      0.00000
    129       2.3961      0.00000
    130       2.3988      0.00000
    131       2.4292      0.00000
    132       2.7100      0.00000
    133       2.7254      0.00000
    134       2.7865      0.00000
    135       2.7904      0.00000
    136       2.7981      0.00000
    137       2.8269      0.00000
    138       2.8922      0.00000
    139       2.9432      0.00000
    140       3.0264      0.00000
    141       3.1147      0.00000
    142       3.1290      0.00000
    143       3.1300      0.00000
    144       3.1612      0.00000
    145       3.2333      0.00000
    146       3.2342      0.00000
    147       3.2652      0.00000
    148       3.2785      0.00000
    149       3.2870      0.00000
    150       3.2930      0.00000
    151       3.3589      0.00000
    152       4.4351      0.00000
    153       4.5486      0.00000
    154       4.5999      0.00000
    155       4.7904      0.00000
    156       4.8758      0.00000
    157       4.9081      0.00000
    158       4.9722      0.00000
    159       4.9978      0.00000
    160       5.0122      0.00000
    161       5.0427      0.00000
    162       5.1117      0.00000
    163       5.2109      0.00000
    164       5.2138      0.00000
    165       5.2188      0.00000
    166       5.2201      0.00000
    167       5.2227      0.00000
    168       5.2250      0.00000


--------------------------------------------------------------------------------------------------------


 soft charge-density along one line, spin component           1
         0         1         2         3         4         5         6         7         8         9
 total charge-density along one line
 
 pseudopotential strength for first ion, spin component:           1
 12.626  21.244  -0.000   0.000   0.000  -0.000   0.000   0.000
 21.244  35.746  -0.000   0.000   0.000  -0.000   0.000   0.000
 -0.000  -0.000  -3.230  -0.000   0.000  -5.784   0.000   0.000
  0.000   0.000  -0.000  -3.230  -0.000   0.000  -5.784  -0.000
  0.000   0.000   0.000  -0.000  -3.230   0.000  -0.000  -5.784
 -0.000  -0.000  -5.784   0.000   0.000 -10.337   0.000   0.000
  0.000   0.000   0.000  -5.784  -0.000   0.000 -10.335  -0.000
  0.000   0.000   0.000  -0.000  -5.784   0.000  -0.000 -10.337
 total augmentation occupancy for first ion, spin component:           1
 10.264  -3.894  -0.000  -0.002   0.000   0.000   0.001  -0.000
 -3.894   1.507   0.000   0.001  -0.000  -0.000  -0.000   0.000
 -0.000   0.000   8.468  -0.009   0.000  -3.024   0.004  -0.000
 -0.002   0.001  -0.009   4.016  -0.000   0.004  -1.207   0.000
  0.000  -0.000   0.000  -0.000   8.468  -0.000   0.000  -3.024
  0.000  -0.000  -3.024   0.004  -0.000   1.093  -0.001   0.000
  0.001  -0.000   0.004  -1.207   0.000  -0.001   0.368  -0.000
 -0.000   0.000  -0.000   0.000  -3.024   0.000  -0.000   1.092


------------------------ aborting loop because EDIFF is reached ----------------------------------------


    FORLOC:  cpu time    0.1067: real time    0.1075
    FORNL :  cpu time    2.9665: real time    2.9906
    FORCOR:  cpu time    1.2575: real time    1.2647
    OFIELD:  cpu time    0.0025: real time    0.0025
 WARNING: Using user supplied parameters
     VDW_A1 = 0.495
     VDW_A2 = 5.731
     VDW_S8 = 0.79
     because the xc functional is not supported. Required parameters not
     defined in the INCAR file will be replaced with PBE defaults ones.


 ---------------------------------------------------------------------------------------------

         DFTD3 V3.0 Rev 1        
 IVDW         = 12
 DF unknown   
 parameters
 VDW_S6       =    1.0000
 VDW_S8       =    0.7898
 VDW_A1       =    0.4948
 VDW_A2       =    5.7308
 k1-k3        =   16.0000    1.3333   -4.0000
 VDW_RADIUS   =   50.2022 A
 VDW_CNRADIUS =   21.1671 A
 Edisp (eV)   -1.75764

 E6    (eV) :    -1.3595
 E8    (eV) :    -0.3981
 % E8        : 22.65
    FORVDW:  cpu time    0.1553: real time    0.1566

 VOLUME and BASIS-vectors are now :
 -----------------------------------------------------------------------------
  energy-cutoff  :     1000.00
  volume of cell :     2631.08
      direct lattice vectors                 reciprocal lattice vectors
    12.325000000  0.000000000  0.000000000     0.081135903  0.046843835  0.000000000
    -6.162500000 10.673763102  0.000000000     0.000000000  0.093687670  0.000000000
     0.000000000  0.000000000 20.000000000     0.000000000  0.000000000  0.050000000

  length of vectors
    12.325000000 12.325000000 20.000000000     0.093687670  0.093687670  0.050000000


 FORCES acting on ions:
    Electron-Ion                     Ewald-Force                    Non-Local-Force
 -----------------------------------------------------------------------------------------------
   0.758E+01 0.662E+01 0.222E+02   -.759E+01 -.662E+01 -.222E+02   0.119E-01 -.249E-02 0.892E-02
   0.118E+02 0.576E+01 0.277E+02   -.118E+02 -.575E+01 -.277E+02   0.165E-01 -.784E-02 -.841E-02
   0.544E+01 0.142E+02 0.328E+02   -.543E+01 -.142E+02 -.329E+02   -.189E-02 0.311E-01 0.157E-01
   0.786E+01 0.114E+02 0.473E+02   -.789E+01 -.115E+02 -.473E+02   0.308E-01 0.106E-01 0.359E-01
   0.816E+01 0.193E+01 0.223E+02   -.817E+01 -.192E+01 -.223E+02   0.454E-02 -.126E-01 -.435E-02
   0.847E+01 -.153E+01 0.227E+02   -.847E+01 0.154E+01 -.227E+02   -.107E-01 -.377E-03 -.140E-01
   0.142E+02 0.541E+01 0.421E+02   -.142E+02 -.539E+01 -.421E+02   0.359E-01 -.356E-01 0.296E-02
   0.138E+02 -.482E+01 0.440E+02   -.138E+02 0.484E+01 -.440E+02   0.110E-01 -.197E-01 -.260E-01
   -.625E+01 0.129E+02 0.332E+02   0.626E+01 -.129E+02 -.332E+02   -.138E-01 -.283E-02 -.188E-01
   -.104E+02 0.878E+01 0.456E+02   0.104E+02 -.880E+01 -.456E+02   -.544E-01 0.334E-01 0.242E-02
   0.206E+01 -.191E+01 0.185E+02   -.205E+01 0.190E+01 -.184E+02   -.971E-03 -.564E-04 -.523E-02
   0.170E+01 -.139E+01 0.173E+02   -.169E+01 0.139E+01 -.173E+02   -.129E-01 0.564E-02 0.229E-02
   0.547E+01 -.122E+02 0.489E+02   -.552E+01 0.122E+02 -.488E+02   0.568E-01 -.253E-01 -.209E-02
   0.279E+01 -.142E+02 0.336E+02   -.281E+01 0.142E+02 -.336E+02   0.177E-01 -.257E-02 -.277E-01
   -.730E+01 0.456E+01 0.217E+02   0.730E+01 -.456E+01 -.217E+02   0.101E-01 -.499E-02 -.469E-02
   -.104E+02 0.302E+01 0.246E+02   0.105E+02 -.303E+01 -.246E+02   -.578E-02 0.109E-01 -.197E-01
   -.118E+01 -.476E+00 0.166E+02   0.119E+01 0.473E+00 -.166E+02   -.571E-02 0.207E-02 0.114E-02
   0.607E+00 0.425E+01 0.176E+02   -.602E+00 -.425E+01 -.176E+02   -.731E-02 0.402E-02 0.931E-02
   -.209E+01 -.125E+02 0.268E+02   0.208E+01 0.125E+02 -.268E+02   0.167E-01 -.766E-02 0.129E-02
   -.985E+00 -.649E+01 0.194E+02   0.976E+00 0.650E+01 -.194E+02   0.548E-02 -.536E-02 -.212E-02
   0.119E+02 -.524E+01 0.295E+02   -.119E+02 0.524E+01 -.295E+02   0.191E-02 -.747E-02 -.386E-01
   0.748E+01 -.636E+01 0.241E+02   -.748E+01 0.636E+01 -.241E+02   -.884E-02 0.875E-02 -.172E-01
   -.267E+01 0.544E+01 0.566E+02   0.269E+01 -.546E+01 -.566E+02   -.275E-01 0.259E-01 0.703E-01
   -.402E+01 -.858E+01 0.546E+02   0.401E+01 0.861E+01 -.546E+02   0.216E-01 -.360E-01 0.530E-01
   0.367E+01 -.156E+01 0.186E+02   -.366E+01 0.155E+01 -.186E+02   -.303E-02 -.513E-04 -.941E-02
   0.737E+00 0.327E+01 0.187E+02   -.731E+00 -.327E+01 -.187E+02   -.110E-01 0.613E-02 0.133E-03
   -.146E+02 0.189E+01 0.359E+02   0.146E+02 -.191E+01 -.359E+02   -.390E-02 0.182E-01 -.153E-01
   -.138E+02 -.566E+01 0.333E+02   0.138E+02 0.565E+01 -.333E+02   -.268E-01 0.189E-01 0.615E-02
   0.452E+01 -.914E+01 0.251E+02   -.452E+01 0.914E+01 -.251E+02   0.117E-01 0.290E-02 -.207E-01
   0.414E+00 -.359E+01 0.197E+02   -.421E+00 0.359E+01 -.197E+02   -.109E-02 0.488E-02 -.911E-02
   -.107E+02 -.113E+02 0.398E+02   0.107E+02 0.114E+02 -.398E+02   -.298E-01 -.185E-01 0.187E-01
   -.661E+01 -.121E+02 0.284E+02   0.662E+01 0.121E+02 -.284E+02   0.660E-03 -.162E-01 0.115E-01
   0.455E+00 0.182E+01 0.172E+02   -.461E+00 -.182E+01 -.172E+02   0.105E-01 -.726E-02 0.439E-02
   0.124E+01 0.182E+01 0.184E+02   -.124E+01 -.182E+01 -.184E+02   -.119E-03 0.111E-02 -.557E-02
   -.513E+01 0.705E+00 0.199E+02   0.513E+01 -.709E+00 -.199E+02   0.591E-02 -.611E-04 -.119E-02
   -.446E+01 -.182E+01 0.195E+02   0.447E+01 0.181E+01 -.195E+02   -.971E-02 0.627E-02 -.126E-02
   -.890E+01 -.462E+01 0.225E+02   0.892E+01 0.462E+01 -.225E+02   -.119E-01 0.297E-02 0.152E-02
   -.535E+01 -.431E+01 0.191E+02   0.536E+01 0.431E+01 -.191E+02   -.959E-02 0.228E-02 0.103E-01
   -.497E+01 -.645E+01 0.204E+02   0.497E+01 0.646E+01 -.204E+02   -.880E-02 -.390E-02 0.786E-02
   -.742E+00 -.158E+01 0.176E+02   0.742E+00 0.159E+01 -.177E+02   0.300E-02 -.143E-02 0.883E-02
   0.186E+01 0.454E+01 0.183E+02   -.186E+01 -.454E+01 -.184E+02   -.492E-02 0.688E-02 0.865E-02
   0.601E+01 0.941E+01 0.234E+02   -.601E+01 -.942E+01 -.234E+02   0.682E-02 0.619E-02 0.131E-01
   0.498E+00 0.790E+01 0.202E+02   -.488E+00 -.791E+01 -.202E+02   -.659E-02 0.694E-02 -.606E-03
   -.504E-01 0.137E+02 0.288E+02   0.686E-01 -.137E+02 -.288E+02   -.219E-01 0.105E-01 0.472E-02
   -.149E+01 0.294E+01 0.196E+02   0.150E+01 -.293E+01 -.196E+02   0.197E-02 -.439E-02 -.588E-02
   -.609E+01 0.763E+01 0.238E+02   0.609E+01 -.764E+01 -.238E+02   -.119E-01 0.164E-02 -.153E-01
   -.115E+01 -.315E+01 0.183E+02   0.115E+01 0.315E+01 -.183E+02   0.122E-01 -.283E-02 0.195E-02
   -.289E+01 0.114E+01 0.175E+02   0.288E+01 -.114E+01 -.175E+02   0.254E-02 0.136E-02 -.794E-02
   0.256E+00 -.196E+01 0.173E+02   -.260E+00 0.196E+01 -.174E+02   0.764E-02 -.420E-02 0.632E-02
   0.310E+01 0.225E+01 0.175E+02   -.311E+01 -.225E+01 -.175E+02   0.579E-02 0.105E-02 0.321E-02
   0.649E-01 -.437E-01 -.331E+03   -.617E-01 0.425E-01 0.331E+03   -.472E-02 0.293E-02 -.238E-01
   -.228E+03 0.155E+03 -.508E+03   0.279E+03 -.190E+03 0.512E+03   -.523E+02 0.356E+02 -.349E+01
   0.228E+03 -.155E+03 -.489E+03   -.279E+03 0.190E+03 0.485E+03   0.523E+02 -.356E+02 0.317E+01
 -----------------------------------------------------------------------------------------------
   0.403E-02 0.701E-02 0.316E+00   0.000E+00 0.568E-13 -.398E-12   -.471E-02 -.722E-02 -.306E+00
 
 
 POSITION                                       TOTAL-FORCE (eV/Angst)
 -----------------------------------------------------------------------------------
     11.98348      0.00342      0.01417         0.003096     -0.000270     -0.001348
     -0.34154      1.42665      0.01100        -0.002475     -0.000106     -0.001937
      2.12355      0.00315      0.01249        -0.000643      0.003560     -0.003616
      2.12326      1.42653      0.00641         0.005463     -0.001312      0.003017
     10.75099      2.13819      0.01213         0.001247     -0.004646      0.000540
     -1.57382      3.56123      0.01110        -0.006252      0.005424     -0.000989
      0.89078      2.13854      0.00548         0.003838     -0.011565      0.007913
      0.89099      3.56147      0.00181        -0.012931      0.000291      0.016786
      4.58864      0.00346      0.01135         0.004764     -0.014902     -0.001289
      4.58894      1.42623      0.00646        -0.012735      0.007206      0.020334
      9.51854      4.27281      0.01369         0.007668     -0.004225      0.000228
     -2.80632      5.69591      0.01434        -0.006973      0.003410      0.000926
      2.12300      4.27302      0.00000         0.013420     -0.000725      0.027645
      2.12335      5.69594      0.00581        -0.002051      0.008409      0.000470
      7.05344      0.00333      0.01399         0.007421     -0.004254     -0.000051
      7.05353      1.42635      0.01368        -0.002675      0.004441     -0.002941
      8.28610      6.40752      0.01601         0.003680     -0.001328     -0.000910
     -4.03885      7.83070      0.01636        -0.001989      0.001580     -0.000339
      3.35586      6.40753      0.01007         0.002637     -0.000170     -0.000652
      3.35599      7.83072      0.01320        -0.003190      0.000735     -0.000322
     -0.34146      4.27290      0.00723         0.000364     -0.001769     -0.002193
     -0.34138      5.69591      0.00946        -0.007687      0.004071     -0.000222
      3.35624      2.13791      0.00222        -0.006886      0.005872      0.033113
      3.35573      3.56155      0.00139         0.008583     -0.008048      0.024124
     -1.57395      6.40758      0.01311         0.007736     -0.004317     -0.000549
     -1.57385      7.83068      0.01438        -0.005023      0.004230      0.000097
      5.82093      2.13784      0.01033         0.015516      0.002587     -0.000415
      5.82114      3.56097      0.01156        -0.003316      0.004340     -0.001599
      0.89092      6.40755      0.00907         0.004226      0.000571     -0.000883
      0.89106      7.83068      0.01235        -0.007474      0.002205      0.000346
      4.58871      4.27293      0.00850        -0.005243     -0.003087     -0.004345
      4.58852      5.69606      0.01149         0.001737      0.002436     -0.002768
      9.51845      0.00337      0.01490         0.005017     -0.005026      0.000189
      9.51855      1.42644      0.01438        -0.004932      0.006792     -0.000361
      8.28593      2.13803      0.01453         0.004930     -0.004398      0.000518
      8.28613      3.56115      0.01464        -0.004714      0.001665      0.000184
      7.05356      4.27269      0.01457         0.003825     -0.000629     -0.000308
      7.05362      5.69588      0.01553        -0.002530      0.000590     -0.000252
      5.82112      6.40755      0.01489        -0.002154      0.002155     -0.000119
      5.82102      7.83073      0.01579         0.002729      0.000724     -0.000469
      7.05363      8.54227      0.01631        -0.004297      0.000613      0.001021
     -5.27149      9.96549      0.01495        -0.000980     -0.002586     -0.002277
     -2.80638      8.54234      0.01558         0.003428     -0.001865     -0.001066
     -2.80627      9.96553      0.01362        -0.003690      0.000588     -0.003336
     -0.34149      8.54239      0.01378         0.005905     -0.003350      0.000372
     -0.34138      9.96550      0.01354        -0.006001      0.001753     -0.000547
      2.12343      8.54232      0.01336         0.005872     -0.001878      0.001091
      2.12354      9.96544      0.01469        -0.006792      0.004777     -0.002119
      4.58846      8.54235      0.01505         0.003613     -0.003108      0.000917
      4.58853      9.96550      0.01517        -0.003328      0.003440      0.000259
      3.04930      2.68154      3.96850        -0.001483      0.001704     -0.018424
      4.02070      2.02068      4.03292        -1.414161      0.962354     -0.129936
      2.07767      3.34267      3.90905         1.415890     -0.964957      0.046490
 -----------------------------------------------------------------------------------
    total drift:                               -0.000685     -0.000207      0.010326


--------------------------------------------------------------------------------------------------------



  FREE ENERGIE OF THE ION-ELECTRON SYSTEM (eV)
  ---------------------------------------------------
  free  energy   TOTEN  =      -525.10688224 eV

  energy  without entropy=     -525.10688224  energy(sigma->0) =     -525.10688224
 


--------------------------------------------------------------------------------------------------------


    POTLOK:  cpu time    1.4316: real time    1.4399


--------------------------------------------------------------------------------------------------------


 writing wavefunctions
     LOOP+:  cpu time  815.3445: real time  821.9367
    4ORBIT:  cpu time    0.0000: real time    0.0000

 total amount of memory used by VASP MPI-rank0   556209. kBytes
=======================================================================

   base      :      30000. kBytes
   nonl-proj :     184518. kBytes
   fftplans  :      31725. kBytes
   grid      :     282516. kBytes
   one-center:        162. kBytes
   wavefun   :      27288. kBytes
 
  
  
 General timing and accounting informations for this job:
 ========================================================
  
                  Total CPU time used (sec):      850.111
                            User time (sec):      827.235
                          System time (sec):       22.877
                         Elapsed time (sec):      858.030
  
                   Maximum memory used (kb):     1041112.
                   Average memory used (kb):          N/A
  
                          Minor page faults:       238032
                          Major page faults:           86
                 Voluntary context switches:         3614
