 vasp.6.2.1 16May21 (build Nov 06 2021 14:46:37) complex                        
  
 executed on             LinuxIFC date 2025.04.06  10:54:45
 running on  112 total cores
 distrk:  each k-point on   56 cores,    2 groups
 distr:  one band on NCORE=   1 cores,   56 groups


--------------------------------------------------------------------------------------------------------


 INCAR:
   ALGO = Conjugate
   KPAR = 2
   NCORE = 32
   ISMEAR = 0
   SIGMA = 0.01
   PREC = Accurate
   EDIFF = 1E-7
   ENCUT = 1000
   ISIF = 0
   METAGGA = R2SCAN
   LASPH = .TRUE.
   IVDW = 12
   VDW_S8 = 0.7898
   VDW_A1 = 0.4948
   VDW_A2 = 5.7308
   SYMPREC = 1E-7

 POTCAR:    PAW_PBE C_h 06Feb2004                 
 POTCAR:    PAW_PBE O_h 06Feb2004                 
 -----------------------------------------------------------------------------
|                                                                             |
|           W    W    AA    RRRRR   N    N  II  N    N   GGGG   !!!           |
|           W    W   A  A   R    R  NN   N  II  NN   N  G    G  !!!           |
|           W    W  A    A  R    R  N N  N  II  N N  N  G       !!!           |
|           W WW W  AAAAAA  RRRRR   N  N N  II  N  N N  G  GGG   !            |
|           WW  WW  A    A  R   R   N   NN  II  N   NN  G    G                |
|           W    W  A    A  R    R  N    N  II  N    N   GGGG   !!!           |
|                                                                             |
|     The value NCORE = 32 specified in the INCAR file was overwritten,       |
|     because it was not compatible with the 56 processes available:          |
|     NCORE = 1                                                               |
|     was used instead, please check that this makes sense for your           |
|     machine.                                                                |
|                                                                             |
 -----------------------------------------------------------------------------

 -----------------------------------------------------------------------------
|                                                                             |
|           W    W    AA    RRRRR   N    N  II  N    N   GGGG   !!!           |
|           W    W   A  A   R    R  NN   N  II  NN   N  G    G  !!!           |
|           W    W  A    A  R    R  N N  N  II  N N  N  G       !!!           |
|           W WW W  AAAAAA  RRRRR   N  N N  II  N  N N  G  GGG   !            |
|           WW  WW  A    A  R   R   N   NN  II  N   NN  G    G                |
|           W    W  A    A  R    R  N    N  II  N    N   GGGG   !!!           |
|                                                                             |
|     For optimal performance we recommend to set                             |
|       NCORE = 2 up to number-of-cores-per-socket                            |
|     NCORE specifies how many cores store one orbital (NPAR=cpu/NCORE).      |
|     This setting can greatly improve the performance of VASP for DFT.       |
|     The default, NCORE=1 might be grossly inefficient on modern             |
|     multi-core architectures or massively parallel machines. Do your        |
|     own testing! More info at https://www.vasp.at/wiki/index.php/NCORE      |
|     Unfortunately you need to use the default for GW and RPA                |
|     calculations (for HF NCORE is supported but not extensively tested      |
|     yet).                                                                   |
|                                                                             |
 -----------------------------------------------------------------------------

 POTCAR:    PAW_PBE C_h 06Feb2004                 
   VRHFIN =C: s2p2                                                                                  
   LEXCH  = PE                                                                                      
   EATOM  =   147.1560 eV,   10.8157 Ry                                                             
                                                                                                    
   TITEL  = PAW_PBE C_h 06Feb2004                                                                   
   LULTRA =        F    use ultrasoft PP ?                                                          
   IUNSCR =        1    unscreen: 0-lin 1-nonlin 2-no                                               
   RPACOR =    0.800    partial core radius                                                         
   POMASS =   12.011; ZVAL   =    4.000    mass and valenz                                          
   RCORE  =    1.100    outmost cutoff radius                                                       
   RWIGS  =    1.630; RWIGS  =    0.863    wigner-seitz radius (au A)                               
   ENMAX  =  700.000; ENMIN  =  500.000 eV                                                          
   ICORE  =        2    local potential                                                             
   LCOR   =        T    correct aug charges                                                         
   LPAW   =        T    paw PP                                                                      
   EAUG   =  946.768                                                                                
   DEXC   =    0.000                                                                                
   RMAX   =    1.128    core radius for proj-oper                                                   
   RAUG   =    1.300    factor for augmentation sphere                                              
   RDEP   =    1.162    radius for radial grids                                                     
   RDEPT  =    1.088    core radius for aug-charge                                                  
                                                                                                    
   Atomic configuration                                                                             
    4 entries                                                                                       
     n  l   j            E        occ.                                                              
     1  0  0.50      -273.3789   2.0000                                                             
     2  0  0.50       -13.7508   2.0000                                                             
     2  1  0.50        -5.2854   2.0000                                                             
     3  2  1.50        -5.4423   0.0000                                                             
   Description                                                                                      
     l       E           TYP  RCUT    TYP  RCUT                                                     
     0    -13.7508458     23  1.100                                                                 
     0     -8.2022199     23  1.100                                                                 
     1     -5.2854383     23  1.100                                                                 
     1      1.1560700     23  1.100                                                                 
     2     -5.4423304      7  1.100                                                                 
  local pseudopotential read in
  partial core-charges read in
  partial kinetic energy density read in
  atomic valenz-charges read in
  non local Contribution for L=           0  read in
    real space projection operators read in
  non local Contribution for L=           0  read in
    real space projection operators read in
  non local Contribution for L=           1  read in
    real space projection operators read in
  non local Contribution for L=           1  read in
    real space projection operators read in
    PAW grid and wavefunctions read in
 
   number of l-projection  operators is LMAX  =           4
   number of lm-projection operators is LMMAX =           8
 
 POTCAR:    PAW_PBE O_h 06Feb2004                 
   VRHFIN =O: s2p4                                                                                  
   LEXCH  = PE                                                                                      
   EATOM  =   432.3788 eV,   31.7789 Ry                                                             
                                                                                                    
   TITEL  = PAW_PBE O_h 06Feb2004                                                                   
   LULTRA =        F    use ultrasoft PP ?                                                          
   IUNSCR =        1    unscreen: 0-lin 1-nonlin 2-no                                               
   RPACOR =    0.800    partial core radius                                                         
   POMASS =   16.000; ZVAL   =    6.000    mass and valenz                                          
   RCORE  =    1.100    outmost cutoff radius                                                       
   RWIGS  =    1.400; RWIGS  =    0.741    wigner-seitz radius (au A)                               
   ENMAX  =  700.000; ENMIN  =  500.000 eV                                                          
   ICORE  =        2    local potential                                                             
   LCOR   =        T    correct aug charges                                                         
   LPAW   =        T    paw PP                                                                      
   EAUG   =  888.804                                                                                
   DEXC   =    0.000                                                                                
   RMAX   =    1.128    core radius for proj-oper                                                   
   RAUG   =    1.300    factor for augmentation sphere                                              
   RDEP   =    1.125    radius for radial grids                                                     
   RDEPT  =    1.088    core radius for aug-charge                                                  
                                                                                                    
   Atomic configuration                                                                             
    4 entries                                                                                       
     n  l   j            E        occ.                                                              
     1  0  0.50      -514.6923   2.0000                                                             
     2  0  0.50       -23.9615   2.0000                                                             
     2  1  0.50        -9.0305   4.0000                                                             
     3  2  1.50        -9.5241   0.0000                                                             
   Description                                                                                      
     l       E           TYP  RCUT    TYP  RCUT                                                     
     0    -23.9615319     23  1.100                                                                 
     0    -25.3221145     23  1.100                                                                 
     1     -9.0304911     23  1.100                                                                 
     1     -5.4802209     23  1.100                                                                 
     2     -9.5240782      7  1.100                                                                 
  local pseudopotential read in
  partial core-charges read in
  partial kinetic energy density read in
  atomic valenz-charges read in
  non local Contribution for L=           0  read in
    real space projection operators read in
  non local Contribution for L=           0  read in
    real space projection operators read in
  non local Contribution for L=           1  read in
    real space projection operators read in
  non local Contribution for L=           1  read in
    real space projection operators read in
    PAW grid and wavefunctions read in
 
   number of l-projection  operators is LMAX  =           4
   number of lm-projection operators is LMMAX =           8
 
 -----------------------------------------------------------------------------
|                                                                             |
|               ----> ADVICE to this user running VASP <----                  |
|                                                                             |
|     You have a (more or less) 'large supercell' and for larger cells it     |
|     might be more efficient to use real-space projection operators.         |
|     Therefore, try LREAL= Auto in the INCAR file.                           |
|     Mind: For very accurate calculation, you might also keep the            |
|     reciprocal projection scheme (i.e. LREAL=.FALSE.).                      |
|                                                                             |
 -----------------------------------------------------------------------------

  PAW_PBE C_h 06Feb2004                 :
 energy of atom  1       EATOM= -147.1560
 kinetic energy error for atom=    0.0031 (will be added to EATOM!!)
  PAW_PBE O_h 06Feb2004                 :
 energy of atom  2       EATOM= -432.3788
 kinetic energy error for atom=    0.0171 (will be added to EATOM!!)
 
 
 POSCAR:  C  O
  positions in cartesian coordinates
  No initial velocities read in

 METAGGA = R2SCA    LMAXTAU =  6    LMIXTAU =  F

 exchange correlation table for  LEXCH =        8
   RHO(1)=    0.500       N(1)  =     2000
   RHO(2)=  100.500       N(2)  =     4000
 


--------------------------------------------------------------------------------------------------------


 ion  position               nearest neighbor table
   1  0.972  0.000  0.001-  50 1.42   2 1.42  42 1.42
   2  0.039  0.134  0.001-   5 1.42   7 1.42   1 1.42
   3  0.172  0.000  0.001-  42 1.42  44 1.42   4 1.42
   4  0.239  0.134  0.000-   7 1.42   3 1.42  23 1.42
   5  0.972  0.200  0.001-   6 1.42   2 1.42  34 1.42
   6  0.039  0.334  0.001-   5 1.42  21 1.42  11 1.42
   7  0.172  0.200  0.000-   8 1.42   2 1.42   4 1.42
   8  0.239  0.334  0.000-  13 1.42   7 1.42  21 1.42
   9  0.372  0.000  0.001-  10 1.42  44 1.42  46 1.42
  10  0.439  0.134  0.000-  27 1.42   9 1.42  23 1.42
  11  0.972  0.400  0.001-  12 1.42  36 1.42   6 1.42
  12  0.039  0.534  0.001-  25 1.42  11 1.42  17 1.42
  13  0.372  0.400  0.000-   8 1.42  14 1.42  24 1.42
  14  0.439  0.534  0.000-  13 1.42  29 1.42  19 1.42
  15  0.572  0.000  0.001-  46 1.42  16 1.42  48 1.42
  16  0.639  0.134  0.001-  15 1.42  35 1.42  27 1.42
  17  0.972  0.600  0.001-  38 1.42  18 1.42  12 1.42
  18  0.039  0.734  0.001-  43 1.42  41 1.42  17 1.42
  19  0.572  0.600  0.001-  14 1.42  20 1.42  32 1.42
  20  0.639  0.734  0.001-  49 1.42  19 1.42  47 1.42
  21  0.172  0.400  0.000-  22 1.42   8 1.42   6 1.42
  22  0.239  0.534  0.000-  21 1.42  29 1.42  25 1.42
  23  0.372  0.200  0.000-  10 1.42   4 1.42  24 1.42
  24  0.439  0.334  0.000-  13 1.42  31 1.42  23 1.42
  25  0.172  0.600  0.001-  26 1.42  12 1.42  22 1.42
  26  0.239  0.734  0.001-  25 1.42  45 1.42  43 1.42
  27  0.572  0.200  0.001-  10 1.42  28 1.42  16 1.42
  28  0.639  0.334  0.001-  27 1.42  37 1.42  31 1.42
  29  0.372  0.600  0.000-  22 1.42  14 1.42  30 1.42
  30  0.439  0.734  0.001-  47 1.42  29 1.42  45 1.42
  31  0.572  0.400  0.000-  32 1.42  28 1.42  24 1.42
  32  0.639  0.534  0.001-  31 1.42  39 1.42  19 1.42
  33  0.772  0.000  0.001-  34 1.42  48 1.42  50 1.42
  34  0.839  0.134  0.001-  33 1.42   5 1.42  35 1.42
  35  0.772  0.200  0.001-  36 1.42  16 1.42  34 1.42
  36  0.839  0.334  0.001-  35 1.42  11 1.42  37 1.42
  37  0.772  0.400  0.001-  28 1.42  38 1.42  36 1.42
  38  0.839  0.534  0.001-  17 1.42  37 1.42  39 1.42
  39  0.772  0.600  0.001-  40 1.42  38 1.42  32 1.42
  40  0.839  0.734  0.001-  39 1.42  49 1.42  41 1.42
  41  0.972  0.800  0.001-  18 1.42  42 1.42  40 1.42
  42  0.039  0.934  0.001-   3 1.42  41 1.42   1 1.42
  43  0.172  0.800  0.001-  18 1.42  44 1.42  26 1.42
  44  0.239  0.934  0.001-   9 1.42  43 1.42   3 1.42
  45  0.372  0.800  0.001-  26 1.42  46 1.42  30 1.42
  46  0.439  0.934  0.001-  15 1.42  45 1.42   9 1.42
  47  0.572  0.800  0.001-  30 1.42  48 1.42  20 1.42
  48  0.639  0.934  0.001-  47 1.42  33 1.42  15 1.42
  49  0.772  0.800  0.001-  50 1.42  20 1.42  40 1.42
  50  0.839  0.934  0.001-  49 1.42   1 1.42  33 1.42
  51  0.373  0.251  0.167-  52 1.18  53 1.18
  52  0.421  0.189  0.170-  51 1.18
  53  0.325  0.313  0.164-  51 1.18
 
  LATTYP: Found a hexagonal cell.
 ALAT       =    12.3250000000
 C/A-ratio  =     1.6227180527
  
  Lattice vectors:
  
 A1 = (  12.3250000000,   0.0000000000,   0.0000000000)
 A2 = (  -6.1625000000,  10.6737631016,   0.0000000000)
 A3 = (   0.0000000000,   0.0000000000,  20.0000000000)


Analysis of symmetry for initial positions (statically):
=====================================================================
 Subroutine PRICEL returns:
 Original cell was already a primitive cell.
 

 Routine SETGRP: Setting up the symmetry group for a 
 hexagonal supercell.


 Subroutine GETGRP returns: Found  1 space group operations
 (whereof  1 operations were pure point group operations)
 out of a pool of 24 trial point group operations.


The static configuration has the point symmetry C_1 .


Analysis of symmetry for dynamics (positions and initial velocities):
=====================================================================
 Subroutine PRICEL returns:
 Original cell was already a primitive cell.
 

 Routine SETGRP: Setting up the symmetry group for a 
 hexagonal supercell.


 Subroutine GETGRP returns: Found  1 space group operations
 (whereof  1 operations were pure point group operations)
 out of a pool of 24 trial point group operations.


The dynamic configuration has the point symmetry C_1 .


 Subroutine INISYM returns: Found  1 space group operations
 (whereof  1 operations are pure point group operations),
 and found     1 'primitive' translations


----------------------------------------------------------------------------------------

                                     Primitive cell                                     

  volume of cell :    2631.0826

  direct lattice vectors                    reciprocal lattice vectors
    12.325000000  0.000000000  0.000000000     0.081135903  0.046843835  0.000000000
    -6.162500000 10.673763102  0.000000000     0.000000000  0.093687670  0.000000000
     0.000000000  0.000000000 20.000000000     0.000000000  0.000000000  0.050000000

  length of vectors
    12.325000000 12.325000000 20.000000000     0.093687670  0.093687670  0.050000000

  position of ions in fractional coordinates (direct lattice)
     0.972450841  0.000320818  0.000708389
     0.039118382  0.133659505  0.000550216
     0.172443627  0.000295449  0.000624535
     0.239096278  0.133647917  0.000320585
     0.972452058  0.200322012  0.000606523
     0.039128360  0.333643771  0.000555187
     0.172451764  0.200354552  0.000273959
     0.239124359  0.333665720  0.000090325
     0.372465565  0.000324403  0.000567391
     0.439137473  0.133619939  0.000322923
     0.972449824  0.400309362  0.000684513
     0.039124981  0.533636789  0.000716763
     0.372416176  0.400329481  0.000000000
     0.439099602  0.533638981  0.000290518
     0.572443676  0.000312125  0.000699475
     0.639110207  0.133631751  0.000684093
     0.972452703  0.600305653  0.000800361
     0.039124495  0.733640359  0.000818141
     0.572433471  0.600306242  0.000503618
     0.639111888  0.733641879  0.000659881
     0.172454630  0.400318228  0.000361306
     0.239120185  0.533636548  0.000473136
     0.372459750  0.200295993  0.000111246
     0.439107096  0.333673419  0.000069702
     0.172452155  0.600311506  0.000655425
     0.239123371  0.733638574  0.000718912
     0.572431082  0.200289171  0.000516621
     0.639112773  0.333618630  0.000577970
     0.372439808  0.600308022  0.000453556
     0.439116090  0.733637858  0.000617737
     0.572469358  0.400320504  0.000424897
     0.639119408  0.533650873  0.000574513
     0.772445723  0.000315427  0.000745201
     0.839116277  0.133640203  0.000719132
     0.772440513  0.200307432  0.000726291
     0.839120241  0.333635728  0.000731834
     0.772446320  0.400298367  0.000728722
     0.839118980  0.533633964  0.000776376
     0.772456143  0.600308173  0.000744639
     0.839115033  0.733643180  0.000789390
     0.972455313  0.800305582  0.000815291
     0.039114714  0.933643289  0.000747563
     0.172457971  0.800312211  0.000779216
     0.239134551  0.933647193  0.000681063
     0.372451396  0.800316674  0.000689249
     0.439124489  0.933644769  0.000676788
     0.572441101  0.800310054  0.000668168
     0.639115067  0.933638985  0.000734556
     0.772445098  0.800313187  0.000752577
     0.839116614  0.933644338  0.000758538
     0.373021009  0.251226878  0.166854982
     0.420879805  0.189313152  0.170076075
     0.325156981  0.313167186  0.163882239

  ion indices of the primitive-cell ions
   primitive index   ion index
                 1           1
                 2           2
                 3           3
                 4           4
                 5           5
                 6           6
                 7           7
                 8           8
                 9           9
                10          10
                11          11
                12          12
                13          13
                14          14
                15          15
                16          16
                17          17
                18          18
                19          19
                20          20
                21          21
                22          22
                23          23
                24          24
                25          25
                26          26
                27          27
                28          28
                29          29
                30          30
                31          31
                32          32
                33          33
                34          34
                35          35
                36          36
                37          37
                38          38
                39          39
                40          40
                41          41
                42          42
                43          43
                44          44
                45          45
                46          46
                47          47
                48          48
                49          49
                50          50
                51          51
                52          52
                53          53

----------------------------------------------------------------------------------------

 
 
 KPOINTS: auto                                    

Automatic generation of k-mesh.
 Grid dimensions read from file:
 generate k-points for:    1    1    1

 Generating k-lattice:

  Cartesian coordinates                     Fractional coordinates (reciprocal lattice)
     0.081135903  0.046843835  0.000000000     1.000000000 -0.000000000  0.000000000
     0.000000000  0.093687670  0.000000000     0.000000000  1.000000000  0.000000000
     0.000000000  0.000000000  0.050000000     0.000000000  0.000000000  1.000000000

  Length of vectors
     0.093687670  0.093687670  0.050000000

  Shift w.r.t. Gamma in fractional coordinates (k-lattice)
     0.000000000  0.000000000  0.000000000

 
 Subroutine IBZKPT returns following result:
 ===========================================
 
 Found      1 irreducible k-points:
 
 Following reciprocal coordinates:
            Coordinates               Weight
  0.000000  0.000000  0.000000      1.000000
 
 Following cartesian coordinates:
            Coordinates               Weight
  0.000000  0.000000  0.000000      1.000000
 


--------------------------------------------------------------------------------------------------------




 Dimension of arrays:
   k-points           NKPTS =      1   k-points in BZ     NKDIM =      1   number of bands    NBANDS=    168
   number of dos      NEDOS =    301   number of ions     NIONS =     53
   non local maximal  LDIM  =      4   non local SUM 2l+1 LMDIM =      8
   total plane-waves  NPLWV = ******
   max r-space proj   IRMAX =      1   max aug-charges    IRDMAX=   9736
   dimension x,y,z NGX =   128 NGY =  128 NGZ =  210
   dimension x,y,z NGXF=   256 NGYF=  256 NGZF=  420
   support grid    NGXF=   256 NGYF=  256 NGZF=  420
   ions per type =              51   2
   NGX,Y,Z   is equivalent  to a cutoff of  17.27, 17.27, 17.46 a.u.
   NGXF,Y,Z  is equivalent  to a cutoff of  34.53, 34.53, 34.91 a.u.

 SYSTEM =  unknown system                          
 POSCAR =   C  O                                   

 Startparameter for this run:
   NWRITE =      2    write-flag & timer
   PREC   = accura    normal or accurate (medium, high low for compatibility)
   ISTART =      0    job   : 0-new  1-cont  2-samecut
   ICHARG =      2    charge: 1-file 2-atom 10-const
   ISPIN  =      1    spin polarized calculation?
   LNONCOLLINEAR =      F non collinear calculations
   LSORBIT =      F    spin-orbit coupling
   INIWAV =      1    electr: 0-lowe 1-rand  2-diag
   LASPH  =      T    aspherical Exc in radial PAW
 Electronic Relaxation 1
   ENCUT  = 1000.0 eV  73.50 Ry    8.57 a.u.  31.78 31.78 51.57*2*pi/ulx,y,z
   ENINI  = 1000.0     initial cutoff
   ENAUG  =  946.8 eV  augmentation charge cutoff
   NELM   =     60;   NELMIN=  2; NELMDL= -5     # of ELM steps 
   EDIFF  = 0.1E-06   stopping-criterion for ELM
   LREAL  =      F    real-space projection
   NLSPLINE    = F    spline interpolate recip. space projectors
   LCOMPAT=      F    compatible to vasp.4.4
   GGA_COMPAT  = T    GGA compatible to vasp.4.4-vasp.4.6
   LMAXPAW     = -100 max onsite density
   LMAXMIX     =    2 max onsite mixed and CHGCAR
   VOSKOWN=      0    Vosko Wilk Nusair interpolation
   ROPT   =    0.00000   0.00000
 Ionic relaxation
   EDIFFG = 0.1E-05   stopping-criterion for IOM
   NSW    =      0    number of steps for IOM
   NBLOCK =      1;   KBLOCK =      1    inner block; outer block 
   IBRION =     -1    ionic relax: 0-MD 1-quasi-New 2-CG
   NFREE  =      0    steps in history (QN), initial steepest desc. (CG)
   ISIF   =      0    stress and relaxation
   IWAVPR =     10    prediction:  0-non 1-charg 2-wave 3-comb
   ISYM   =      2    0-nonsym 1-usesym 2-fastsym
   LCORR  =      T    Harris-Foulkes like correction to forces

   POTIM  = 0.5000    time-step for ionic-motion
   TEIN   =    0.0    initial temperature
   TEBEG  =    0.0;   TEEND  =   0.0 temperature during run
   SMASS  =  -3.00    Nose mass-parameter (am)
   estimated Nose-frequenzy (Omega)   =  0.10E-29 period in steps = 0.13E+47 mass=  -0.347E-26a.u.
   SCALEE = 1.0000    scale energy and forces
   NPACO  =    256;   APACO  = 16.0  distance and # of slots for P.C.
   PSTRESS=    0.0 pullay stress

  Mass of Ions in am
   POMASS =  12.01 16.00
  Ionic Valenz
   ZVAL   =   4.00  6.00
  Atomic Wigner-Seitz radii
   RWIGS  =  -1.00 -1.00
  virtual crystal weights 
   VCA    =   1.00  1.00
   NELECT =     216.0000    total number of electrons
   NUPDOWN=      -1.0000    fix difference up-down

 DOS related values:
   EMIN   =  10.00;   EMAX   =-10.00  energy-range for DOS
   EFERMI =   0.00
   ISMEAR =     0;   SIGMA  =   0.01  broadening in eV -4-tet -1-fermi 0-gaus

 Electronic relaxation 2 (details)
   IALGO  =     58    algorithm
   LDIAG  =      T    sub-space diagonalisation (order eigenvalues)
   LSUBROT=      F    optimize rotation matrix (better conditioning)
   TURBO    =      0    0=normal 1=particle mesh
   IRESTART =      0    0=no restart 2=restart with 2 vectors
   NREBOOT  =      0    no. of reboots
   NMIN     =      0    reboot dimension
   EREF     =   0.00    reference energy to select bands
   IMIX   =      4    mixing-type and parameters
     AMIX     =   0.40;   BMIX     =  1.00
     AMIX_MAG =   1.60;   BMIX_MAG =  1.00
     AMIN     =   0.10
     WC   =   100.;   INIMIX=   1;  MIXPRE=   1;  MAXMIX= -45

 Intra band minimization:
   WEIMIN = 0.0000     energy-eigenvalue tresh-hold
   EBREAK =  0.15E-09  absolut break condition
   DEPER  =   0.30     relativ break condition  

   TIME   =   0.40     timestep for ELM

  volume/ion in A,a.u.               =      49.64       335.01
  Fermi-wavevector in a.u.,A,eV,Ry     =   0.711510  1.344560  6.887909  0.506247
  Thomas-Fermi vector in A             =   1.798641
 
 Write flags
   LWAVE        =      T    write WAVECAR
   LDOWNSAMPLE  =      F    k-point downsampling of WAVECAR
   LCHARG       =      T    write CHGCAR
   LVTOT        =      F    write LOCPOT, total local potential
   LVHAR        =      F    write LOCPOT, Hartree potential only
   LELF         =      F    write electronic localiz. function (ELF)
   LORBIT       =      0    0 simple, 1 ext, 2 COOP (PROOUT), +10 PAW based schemes


 Dipole corrections
   LMONO  =      F    monopole corrections only (constant potential shift)
   LDIPOL =      F    correct potential (dipole corrections)
   IDIPOL =      0    1-x, 2-y, 3-z, 4-all directions 
   EPSILON=  1.0000000 bulk dielectric constant

 Exchange correlation treatment:
   GGA     =    --    GGA type
   LEXCH   =     8    internal setting for exchange type
   VOSKOWN=      0    Vosko Wilk Nusair interpolation
   LHFCALC =     F    Hartree Fock is set to
   LHFONE  =     F    Hartree Fock one center treatment
   AEXX    =    0.0000 exact exchange contribution

 Linear response parameters
   LEPSILON=     F    determine dielectric tensor
   LRPA    =     F    only Hartree local field effects (RPA)
   LNABLA  =     F    use nabla operator in PAW spheres
   LVEL    =     F    velocity operator in full k-point grid
   LINTERFAST=   F  fast interpolation
   KINTER  =     0    interpolate to denser k-point grid
   CSHIFT  =0.1000    complex shift for real part using Kramers Kronig
   OMEGAMAX=  -1.0    maximum frequency
   DEG_THRESHOLD= 0.2000000E-02 threshold for treating states as degnerate
   RTIME   =   -0.100 relaxation time in fs
  (WPLASMAI=    0.000 imaginary part of plasma frequency in eV, 0.658/RTIME)
   DFIELD  = 0.0000000 0.0000000 0.0000000 field for delta impulse in time
 
 Orbital magnetization related:
   ORBITALMAG=     F  switch on orbital magnetization
   LCHIMAG   =     F  perturbation theory with respect to B field
   DQ        =  0.001000  dq finite difference perturbation B field
   LLRAUG    =     F  two centre corrections for induced B field



--------------------------------------------------------------------------------------------------------


 Static calculation
 charge density and potential will be updated during run
 non-spin polarized calculation
 Conjugate gradient for all bands (Freysoldt, et al. PRB 79, 241103 (2009))
 preconditioned conjugated gradient                                        
 perform sub-space diagonalisation
    before iterative eigenvector-optimisation
 modified Broyden-mixing scheme, WC =      100.0
 initial mixing is a Kerker type mixing with AMIX =  0.4000 and BMIX =      1.0000
 Hartree-type preconditioning will be used
 using additional bands           60
 reciprocal scheme for non local part
 use partial core corrections
 no Harris-corrections to forces 
 use gradient corrections 
 use of overlap-Matrix (Vanderbilt PP)
 Gauss-broadening in eV      SIGMA  =   0.01


--------------------------------------------------------------------------------------------------------


  energy-cutoff  :     1000.00
  volume of cell :     2631.08
      direct lattice vectors                 reciprocal lattice vectors
    12.325000000  0.000000000  0.000000000     0.081135903  0.046843835  0.000000000
    -6.162500000 10.673763102  0.000000000     0.000000000  0.093687670  0.000000000
     0.000000000  0.000000000 20.000000000     0.000000000  0.000000000  0.050000000

  length of vectors
    12.325000000 12.325000000 20.000000000     0.093687670  0.093687670  0.050000000


 
 k-points in units of 2pi/SCALE and weight: auto                                    
   0.00000000  0.00000000  0.00000000       1.000
 
 k-points in reciprocal lattice and weights: auto                                    
   0.00000000  0.00000000  0.00000000       1.000
 
 position of ions in fractional coordinates (direct lattice) 
   0.97245084  0.00032082  0.00070839
   0.03911838  0.13365950  0.00055022
   0.17244363  0.00029545  0.00062454
   0.23909628  0.13364792  0.00032058
   0.97245206  0.20032201  0.00060652
   0.03912836  0.33364377  0.00055519
   0.17245176  0.20035455  0.00027396
   0.23912436  0.33366572  0.00009033
   0.37246557  0.00032440  0.00056739
   0.43913747  0.13361994  0.00032292
   0.97244982  0.40030936  0.00068451
   0.03912498  0.53363679  0.00071676
   0.37241618  0.40032948  0.00000000
   0.43909960  0.53363898  0.00029052
   0.57244368  0.00031213  0.00069947
   0.63911021  0.13363175  0.00068409
   0.97245270  0.60030565  0.00080036
   0.03912449  0.73364036  0.00081814
   0.57243347  0.60030624  0.00050362
   0.63911189  0.73364188  0.00065988
   0.17245463  0.40031823  0.00036131
   0.23912018  0.53363655  0.00047314
   0.37245975  0.20029599  0.00011125
   0.43910710  0.33367342  0.00006970
   0.17245216  0.60031151  0.00065542
   0.23912337  0.73363857  0.00071891
   0.57243108  0.20028917  0.00051662
   0.63911277  0.33361863  0.00057797
   0.37243981  0.60030802  0.00045356
   0.43911609  0.73363786  0.00061774
   0.57246936  0.40032050  0.00042490
   0.63911941  0.53365087  0.00057451
   0.77244572  0.00031543  0.00074520
   0.83911628  0.13364020  0.00071913
   0.77244051  0.20030743  0.00072629
   0.83912024  0.33363573  0.00073183
   0.77244632  0.40029837  0.00072872
   0.83911898  0.53363396  0.00077638
   0.77245614  0.60030817  0.00074464
   0.83911503  0.73364318  0.00078939
   0.97245531  0.80030558  0.00081529
   0.03911471  0.93364329  0.00074756
   0.17245797  0.80031221  0.00077922
   0.23913455  0.93364719  0.00068106
   0.37245140  0.80031667  0.00068925
   0.43912449  0.93364477  0.00067679
   0.57244110  0.80031005  0.00066817
   0.63911507  0.93363899  0.00073456
   0.77244510  0.80031319  0.00075258
   0.83911661  0.93364434  0.00075854
   0.37302101  0.25122688  0.16685498
   0.42087980  0.18931315  0.17007607
   0.32515698  0.31316719  0.16388224
 
 position of ions in cartesian coordinates  (Angst):
  11.98347958  0.00342433  0.01416777
  -0.34154264  1.42664989  0.01100432
   2.12354700  0.00315355  0.01249070
   2.12325634  1.42652621  0.00641170
  10.75098721  2.13818970  0.01213047
  -1.57382270  3.56123457  0.01110375
   0.89078307  2.13853702  0.00547917
   0.89099273  3.56146885  0.00180651
   4.58863896  0.00346260  0.01134782
   4.58893648  1.42622757  0.00645846
   9.51853763  4.27280730  0.01369027
  -2.80632132  5.69591267  0.01433526
   2.12299894  4.27302204  0.00000000
   2.12335237  5.69593607  0.00581036
   7.05344483  0.00333155  0.01398950
   7.05352764  1.42635365  0.01368187
   8.28609598  6.40752033  0.01600723
  -4.03884931  7.83070339  0.01636283
   3.35585531  6.40752662  0.01007237
   3.35598594  7.83071962  0.01319763
  -0.34145776  4.27290193  0.00722612
  -0.34137895  5.69591010  0.00946273
   3.35624236  2.13791198  0.00222492
   3.35573251  3.56155103  0.00139405
  -1.57394684  6.40758280  0.01310850
  -1.57385216  7.83068434  0.01437823
   5.82093107  2.13783916  0.01033241
   5.82114012  3.56096622  0.01155939
   0.89092245  6.40754561  0.00907111
   0.89106251  7.83067670  0.01235474
   4.58870974  4.27292622  0.00849795
   4.58852320  5.69606300  0.01149026
   9.51844972  0.00336679  0.01490402
   9.51855036  1.42644387  0.01438264
   8.28593477  2.13803408  0.01452582
   8.28612680  3.56114872  0.01463668
   7.05356221  4.27268994  0.01457444
   7.05362213  5.69588251  0.01552751
   5.82112285  6.40754723  0.01489279
   5.82101669  7.83073350  0.01578780
   7.05362858  8.54227219  0.01630582
  -5.27148792  9.96548729  0.01495127
  -2.80637951  8.54234295  0.01558431
  -2.80626749  9.96552896  0.01362126
  -0.34148805  8.54239058  0.01378498
  -0.34137657  9.96550309  0.01353576
   2.12342586  8.54231992  0.01336337
   2.12354296  9.96544135  0.01469111
   4.58845581  8.54235337  0.01505154
   4.58852904  9.96549848  0.01517076
   3.04929830  2.68153618  3.33709964
   4.02070129  2.02068374  3.40152150
   2.07766701  3.34267235  3.27764477
 


--------------------------------------------------------------------------------------------------------


 k-point   1 :   0.0000 0.0000 0.0000  plane waves:  189031

 maximum and minimum number of plane-waves per node :    189031   189031

 maximum number of plane-waves:    189031
 maximum index in each direction: 
   IXMAX=   31   IYMAX=   31   IZMAX=   51
   IXMIN=  -31   IYMIN=  -31   IZMIN=  -51


 serial   3D FFT for wavefunctions
 parallel 3D FFT for charge:
    minimum data exchange during FFTs selected (reduces bandwidth)


 total amount of memory used by VASP MPI-rank0   556209. kBytes
=======================================================================

   base      :      30000. kBytes
   nonl-proj :     184518. kBytes
   fftplans  :      31725. kBytes
   grid      :     282516. kBytes
   one-center:        162. kBytes
   wavefun   :      27288. kBytes
 
     INWAV:  cpu time    0.0000: real time    0.0000
 Broyden mixing: mesh for mixing (old mesh)
   NGX = 63   NGY = 63   NGZ =103
  (NGX  =256   NGY  =256   NGZ  =420)
  gives a total of 408807 points

 initial charge density was supplied:
 charge density of overlapping atoms calculated
 number of electron     216.0000000 magnetization 
 keeping initial charge density in first step


--------------------------------------------------------------------------------------------------------


 Maximum index for augmentation-charges          459 (set IRDMAX)


--------------------------------------------------------------------------------------------------------


 First call to EWALD:  gamma=   0.128
 Maximum number of real-space cells 3x 3x 2
 Maximum number of reciprocal cells 3x 3x 4

    FEWALD:  cpu time    0.0021: real time    0.0021


--------------------------------------- Iteration      1(   1)  ---------------------------------------


    POTLOK:  cpu time    1.2825: real time    1.2932
    SETDIJ:  cpu time    0.1820: real time    0.1828
    TRIAL :  cpu time   21.8429: real time   22.0635
    CORREC:  cpu time    0.0005: real time    0.0005
    --------------------------------------------
      LOOP:  cpu time   23.3172: real time   23.5605

 eigenvalue-minimisations  :   336
 total energy-change (2. order) : 0.2423788E+04  (-0.1181367E+05)
 number of electron     216.0000000 magnetization 
 augmentation part      216.0000000 magnetization 

 Free energy of the ion-electron system (eV)
  ---------------------------------------------------
  alpha Z        PSCENC =        59.93625244
  Ewald energy   TEWEN  =     34106.83082198
  -Hartree energ DENC   =    -40281.90272376
  -exchange      EXHF   =         0.00000000
  -V(xc)+E(xc)   XCENC  =       605.22869410
  PAW double counting   =      6340.10990386    -6200.63067283
  entropy T*S    EENTRO =        -0.00000000
  eigenvalues    EBANDS =      -575.30796374
  atomic energy  EATOM  =      8369.52358910
  ---------------------------------------------------
  free energy    TOTEN  =      2423.78790115 eV

  energy without entropy =     2423.78790115  energy(sigma->0) =     2423.78790115


--------------------------------------------------------------------------------------------------------




--------------------------------------- Iteration      1(   2)  ---------------------------------------


    TRIAL :  cpu time   35.6953: real time   35.9836
    CORREC:  cpu time    0.0001: real time    0.0001
    --------------------------------------------
      LOOP:  cpu time   35.7268: real time   36.0214

 eigenvalue-minimisations  :   672
 total energy-change (2. order) :-0.2473937E+04  (-0.2361235E+04)
 number of electron     216.0000000 magnetization 
 augmentation part      216.0000000 magnetization 

 Free energy of the ion-electron system (eV)
  ---------------------------------------------------
  alpha Z        PSCENC =        59.93625244
  Ewald energy   TEWEN  =     34106.83082198
  -Hartree energ DENC   =    -40281.90272376
  -exchange      EXHF   =         0.00000000
  -V(xc)+E(xc)   XCENC  =       605.22869410
  PAW double counting   =      6340.10990386    -6200.63067283
  entropy T*S    EENTRO =        -0.00000000
  eigenvalues    EBANDS =     -3049.24460649
  atomic energy  EATOM  =      8369.52358910
  ---------------------------------------------------
  free energy    TOTEN  =       -50.14874160 eV

  energy without entropy =      -50.14874160  energy(sigma->0) =      -50.14874160


--------------------------------------------------------------------------------------------------------




--------------------------------------- Iteration      1(   3)  ---------------------------------------


    TRIAL :  cpu time   24.1175: real time   24.3230
    CORREC:  cpu time    0.0001: real time    0.0001
    --------------------------------------------
      LOOP:  cpu time   24.2058: real time   24.4141

 eigenvalue-minimisations  :   392
 total energy-change (2. order) :-0.5324431E+03  (-0.5297029E+03)
 number of electron     216.0000000 magnetization 
 augmentation part      216.0000000 magnetization 

 Free energy of the ion-electron system (eV)
  ---------------------------------------------------
  alpha Z        PSCENC =        59.93625244
  Ewald energy   TEWEN  =     34106.83082198
  -Hartree energ DENC   =    -40281.90272376
  -exchange      EXHF   =         0.00000000
  -V(xc)+E(xc)   XCENC  =       605.22869410
  PAW double counting   =      6340.10990386    -6200.63067283
  entropy T*S    EENTRO =        -0.00000000
  eigenvalues    EBANDS =     -3581.68770793
  atomic energy  EATOM  =      8369.52358910
  ---------------------------------------------------
  free energy    TOTEN  =      -582.59184304 eV

  energy without entropy =     -582.59184304  energy(sigma->0) =     -582.59184304


--------------------------------------------------------------------------------------------------------




--------------------------------------- Iteration      1(   4)  ---------------------------------------


    TRIAL :  cpu time   26.4568: real time   26.6991
    CORREC:  cpu time    0.0001: real time    0.0001
    --------------------------------------------
      LOOP:  cpu time   26.5239: real time   26.7667

 eigenvalue-minimisations  :   448
 total energy-change (2. order) :-0.2426277E+02  (-0.2411322E+02)
 number of electron     216.0000000 magnetization 
 augmentation part      216.0000000 magnetization 

 Free energy of the ion-electron system (eV)
  ---------------------------------------------------
  alpha Z        PSCENC =        59.93625244
  Ewald energy   TEWEN  =     34106.83082198
  -Hartree energ DENC   =    -40281.90272376
  -exchange      EXHF   =         0.00000000
  -V(xc)+E(xc)   XCENC  =       605.22869410
  PAW double counting   =      6340.10990386    -6200.63067283
  entropy T*S    EENTRO =        -0.00000000
  eigenvalues    EBANDS =     -3605.95047797
  atomic energy  EATOM  =      8369.52358910
  ---------------------------------------------------
  free energy    TOTEN  =      -606.85461309 eV

  energy without entropy =     -606.85461309  energy(sigma->0) =     -606.85461309


--------------------------------------------------------------------------------------------------------




--------------------------------------- Iteration      1(   5)  ---------------------------------------


    TRIAL :  cpu time   26.4681: real time   26.6926
    CORREC:  cpu time    0.0001: real time    0.0001
    CHARGE:  cpu time    2.4533: real time    2.4873
    --------------------------------------------
      LOOP:  cpu time   28.9373: real time   29.2097

 eigenvalue-minimisations  :   448
 total energy-change (2. order) :-0.8464262E+00  (-0.8426233E+00)
 number of electron     216.0000000 magnetization 
 augmentation part       -0.4474499 magnetization 

 Free energy of the ion-electron system (eV)
  ---------------------------------------------------
  alpha Z        PSCENC =        59.93625244
  Ewald energy   TEWEN  =     34106.83082198
  -Hartree energ DENC   =    -40281.90272376
  -exchange      EXHF   =         0.00000000
  -V(xc)+E(xc)   XCENC  =       605.22869410
  PAW double counting   =      6340.10990386    -6200.63067283
  entropy T*S    EENTRO =        -0.00000000
  eigenvalues    EBANDS =     -3606.79690415
  atomic energy  EATOM  =      8369.52358910
  ---------------------------------------------------
  free energy    TOTEN  =      -607.70103926 eV

  energy without entropy =     -607.70103926  energy(sigma->0) =     -607.70103926


--------------------------------------------------------------------------------------------------------




--------------------------------------- Iteration      1(   6)  ---------------------------------------


    POTLOK:  cpu time    1.2592: real time    1.2717
    SETDIJ:  cpu time    0.1697: real time    0.1707
    TRIAL :  cpu time   15.5826: real time   15.7128
    CORREC:  cpu time    6.8902: real time    6.9369
    CHARGE:  cpu time    2.2875: real time    2.3034
    --------------------------------------------
      LOOP:  cpu time   26.2064: real time   26.4262

 eigenvalue-minimisations  :     0
 total energy-change (2. order) : 0.9781992E+02  (-0.1131335E+02)
 number of electron     216.0000000 magnetization 
 augmentation part       -0.5072468 magnetization 

 Free energy of the ion-electron system (eV)
  ---------------------------------------------------
  alpha Z        PSCENC =        59.93625244
  Ewald energy   TEWEN  =     34106.83082198
  -Hartree energ DENC   =    -41596.76272003
  -exchange      EXHF   =         0.00000000
  -V(xc)+E(xc)   XCENC  =       676.67152890
  PAW double counting   =    119272.62512125  -119133.02659757
  entropy T*S    EENTRO =        -0.00000000
  eigenvalues    EBANDS =     -2265.67911800
  atomic energy  EATOM  =      8369.52358910
  ---------------------------------------------------
  free energy    TOTEN  =      -509.88112195 eV

  energy without entropy =     -509.88112195  energy(sigma->0) =     -509.88112195


--------------------------------------------------------------------------------------------------------




--------------------------------------- Iteration      1(   7)  ---------------------------------------


    POTLOK:  cpu time    1.2621: real time    1.2696
    SETDIJ:  cpu time    0.1672: real time    0.1678
    TRIAL :  cpu time   15.5922: real time   15.7063
    CORREC:  cpu time    6.8820: real time    6.9284
    CHARGE:  cpu time    2.2897: real time    2.3059
    --------------------------------------------
      LOOP:  cpu time   26.2215: real time   26.4112

 eigenvalue-minimisations  :     0
 total energy-change (2. order) :-0.1132469E+02  (-0.1437902E+01)
 number of electron     216.0000000 magnetization 
 augmentation part       -0.5398557 magnetization 

 Free energy of the ion-electron system (eV)
  ---------------------------------------------------
  alpha Z        PSCENC =        59.93625244
  Ewald energy   TEWEN  =     34106.83082198
  -Hartree energ DENC   =    -41191.25221017
  -exchange      EXHF   =         0.00000000
  -V(xc)+E(xc)   XCENC  =       659.02593349
  PAW double counting   =    138702.37961739  -138561.04240324
  entropy T*S    EENTRO =        -0.00000000
  eigenvalues    EBANDS =     -2666.60741057
  atomic energy  EATOM  =      8369.52358910
  ---------------------------------------------------
  free energy    TOTEN  =      -521.20580958 eV

  energy without entropy =     -521.20580958  energy(sigma->0) =     -521.20580958


--------------------------------------------------------------------------------------------------------




--------------------------------------- Iteration      1(   8)  ---------------------------------------


    POTLOK:  cpu time    1.2581: real time    1.2656
    SETDIJ:  cpu time    0.1736: real time    0.1742
    TRIAL :  cpu time   15.5884: real time   15.7181
    CORREC:  cpu time    6.8711: real time    6.9206
    CHARGE:  cpu time    2.2820: real time    2.2982
    --------------------------------------------
      LOOP:  cpu time   26.1991: real time   26.4386

 eigenvalue-minimisations  :     0
 total energy-change (2. order) :-0.1438502E+01  (-0.4482578E+00)
 number of electron     216.0000000 magnetization 
 augmentation part       -0.5415850 magnetization 

 Free energy of the ion-electron system (eV)
  ---------------------------------------------------
  alpha Z        PSCENC =        59.93625244
  Ewald energy   TEWEN  =     34106.83082198
  -Hartree energ DENC   =    -41166.15035597
  -exchange      EXHF   =         0.00000000
  -V(xc)+E(xc)   XCENC  =       658.02846772
  PAW double counting   =    148575.13046347  -148433.67266008
  entropy T*S    EENTRO =        -0.00000000
  eigenvalues    EBANDS =     -2692.27089041
  atomic energy  EATOM  =      8369.52358910
  ---------------------------------------------------
  free energy    TOTEN  =      -522.64431176 eV

  energy without entropy =     -522.64431176  energy(sigma->0) =     -522.64431176


--------------------------------------------------------------------------------------------------------




--------------------------------------- Iteration      1(   9)  ---------------------------------------


    POTLOK:  cpu time    1.2559: real time    1.2634
    SETDIJ:  cpu time    0.1747: real time    0.1753
    TRIAL :  cpu time   15.5940: real time   15.7069
    CORREC:  cpu time    6.8734: real time    6.9202
    CHARGE:  cpu time    2.2828: real time    2.2989
    --------------------------------------------
      LOOP:  cpu time   26.2544: real time   26.4593

 eigenvalue-minimisations  :     0
 total energy-change (2. order) :-0.4480060E+00  (-0.1756870E+00)
 number of electron     216.0000000 magnetization 
 augmentation part       -0.5389906 magnetization 

 Free energy of the ion-electron system (eV)
  ---------------------------------------------------
  alpha Z        PSCENC =        59.93625244
  Ewald energy   TEWEN  =     34106.83082198
  -Hartree energ DENC   =    -41172.27447370
  -exchange      EXHF   =         0.00000000
  -V(xc)+E(xc)   XCENC  =       657.99945728
  PAW double counting   =    156306.25164211  -156164.72533924
  entropy T*S    EENTRO =        -0.00000000
  eigenvalues    EBANDS =     -2686.63426775
  atomic energy  EATOM  =      8369.52358910
  ---------------------------------------------------
  free energy    TOTEN  =      -523.09231778 eV

  energy without entropy =     -523.09231778  energy(sigma->0) =     -523.09231778


--------------------------------------------------------------------------------------------------------




--------------------------------------- Iteration      1(  10)  ---------------------------------------


    POTLOK:  cpu time    1.2587: real time    1.2662
    SETDIJ:  cpu time    0.1688: real time    0.1694
    TRIAL :  cpu time   15.5886: real time   15.7007
    CORREC:  cpu time    6.8853: real time    6.9326
    CHARGE:  cpu time    2.2842: real time    2.3022
    --------------------------------------------
      LOOP:  cpu time   26.2520: real time   26.4514

 eigenvalue-minimisations  :     0
 total energy-change (2. order) :-0.1755340E+00  (-0.7684764E-01)
 number of electron     216.0000000 magnetization 
 augmentation part       -0.5341847 magnetization 

 Free energy of the ion-electron system (eV)
  ---------------------------------------------------
  alpha Z        PSCENC =        59.93625244
  Ewald energy   TEWEN  =     34106.83082198
  -Hartree energ DENC   =    -41171.31785838
  -exchange      EXHF   =         0.00000000
  -V(xc)+E(xc)   XCENC  =       657.92139515
  PAW double counting   =    160008.75736828  -159867.18684078
  entropy T*S    EENTRO =        -0.00000000
  eigenvalues    EBANDS =     -2687.73257956
  atomic energy  EATOM  =      8369.52358910
  ---------------------------------------------------
  free energy    TOTEN  =      -523.26785177 eV

  energy without entropy =     -523.26785177  energy(sigma->0) =     -523.26785177


--------------------------------------------------------------------------------------------------------




--------------------------------------- Iteration      1(  11)  ---------------------------------------


    POTLOK:  cpu time    1.2583: real time    1.2660
    SETDIJ:  cpu time    0.1764: real time    0.1770
    TRIAL :  cpu time   15.5749: real time   15.6979
    CORREC:  cpu time    6.8555: real time    6.9174
    CHARGE:  cpu time    2.2795: real time    2.2987
    --------------------------------------------
      LOOP:  cpu time   26.1880: real time   26.4045

 eigenvalue-minimisations  :     0
 total energy-change (2. order) :-0.7670677E-01  (-0.2963466E-01)
 number of electron     216.0000000 magnetization 
 augmentation part       -0.5309295 magnetization 

 Free energy of the ion-electron system (eV)
  ---------------------------------------------------
  alpha Z        PSCENC =        59.93625244
  Ewald energy   TEWEN  =     34106.83082198
  -Hartree energ DENC   =    -41165.80217674
  -exchange      EXHF   =         0.00000000
  -V(xc)+E(xc)   XCENC  =       657.85656310
  PAW double counting   =    160666.76658132  -160525.21505424
  entropy T*S    EENTRO =        -0.00000000
  eigenvalues    EBANDS =     -2693.24113549
  atomic energy  EATOM  =      8369.52358910
  ---------------------------------------------------
  free energy    TOTEN  =      -523.34455854 eV

  energy without entropy =     -523.34455854  energy(sigma->0) =     -523.34455854


--------------------------------------------------------------------------------------------------------




--------------------------------------- Iteration      1(  12)  ---------------------------------------


    POTLOK:  cpu time    1.2586: real time    1.2675
    SETDIJ:  cpu time    0.1695: real time    0.1702
    TRIAL :  cpu time   15.5525: real time   15.7039
    CORREC:  cpu time    6.8741: real time    6.9351
    CHARGE:  cpu time    2.2873: real time    2.3040
    --------------------------------------------
      LOOP:  cpu time   26.1976: real time   26.4421

 eigenvalue-minimisations  :     0
 total energy-change (2. order) :-0.2958792E-01  (-0.9248622E-02)
 number of electron     216.0000000 magnetization 
 augmentation part       -0.5308015 magnetization 

 Free energy of the ion-electron system (eV)
  ---------------------------------------------------
  alpha Z        PSCENC =        59.93625244
  Ewald energy   TEWEN  =     34106.83082198
  -Hartree energ DENC   =    -41161.56093432
  -exchange      EXHF   =         0.00000000
  -V(xc)+E(xc)   XCENC  =       657.78827151
  PAW double counting   =    160098.86347482  -159957.33715423
  entropy T*S    EENTRO =        -0.00000000
  eigenvalues    EBANDS =     -2697.41846777
  atomic energy  EATOM  =      8369.52358910
  ---------------------------------------------------
  free energy    TOTEN  =      -523.37414647 eV

  energy without entropy =     -523.37414647  energy(sigma->0) =     -523.37414647


--------------------------------------------------------------------------------------------------------




--------------------------------------- Iteration      1(  13)  ---------------------------------------


    POTLOK:  cpu time    1.2559: real time    1.2649
    SETDIJ:  cpu time    0.1770: real time    0.1777
    TRIAL :  cpu time   15.5713: real time   15.7053
    CORREC:  cpu time    6.8739: real time    6.9302
    CHARGE:  cpu time    2.2821: real time    2.3033
    --------------------------------------------
      LOOP:  cpu time   26.1783: real time   26.4146

 eigenvalue-minimisations  :     0
 total energy-change (2. order) :-0.9229702E-02  (-0.2609840E-02)
 number of electron     216.0000000 magnetization 
 augmentation part       -0.5313069 magnetization 

 Free energy of the ion-electron system (eV)
  ---------------------------------------------------
  alpha Z        PSCENC =        59.93625244
  Ewald energy   TEWEN  =     34106.83082198
  -Hartree energ DENC   =    -41160.30477413
  -exchange      EXHF   =         0.00000000
  -V(xc)+E(xc)   XCENC  =       657.73982250
  PAW double counting   =    159440.96826359  -159299.44580417
  entropy T*S    EENTRO =        -0.00000000
  eigenvalues    EBANDS =     -2698.63154747
  atomic energy  EATOM  =      8369.52358910
  ---------------------------------------------------
  free energy    TOTEN  =      -523.38337617 eV

  energy without entropy =     -523.38337617  energy(sigma->0) =     -523.38337617


--------------------------------------------------------------------------------------------------------




--------------------------------------- Iteration      1(  14)  ---------------------------------------


    POTLOK:  cpu time    1.2599: real time    1.2686
    SETDIJ:  cpu time    0.1780: real time    0.1787
    TRIAL :  cpu time   15.5751: real time   15.7118
    CORREC:  cpu time    6.8722: real time    6.9282
    CHARGE:  cpu time    2.2779: real time    2.2967
    --------------------------------------------
      LOOP:  cpu time   26.1829: real time   26.4058

 eigenvalue-minimisations  :     0
 total energy-change (2. order) :-0.2599363E-02  (-0.6967853E-03)
 number of electron     216.0000000 magnetization 
 augmentation part       -0.5315527 magnetization 

 Free energy of the ion-electron system (eV)
  ---------------------------------------------------
  alpha Z        PSCENC =        59.93625244
  Ewald energy   TEWEN  =     34106.83082198
  -Hartree energ DENC   =    -41160.37326810
  -exchange      EXHF   =         0.00000000
  -V(xc)+E(xc)   XCENC  =       657.72909446
  PAW double counting   =    159047.48382055  -158905.96021680
  entropy T*S    EENTRO =        -0.00000000
  eigenvalues    EBANDS =     -2698.55606915
  atomic energy  EATOM  =      8369.52358910
  ---------------------------------------------------
  free energy    TOTEN  =      -523.38597553 eV

  energy without entropy =     -523.38597553  energy(sigma->0) =     -523.38597553


--------------------------------------------------------------------------------------------------------




--------------------------------------- Iteration      1(  15)  ---------------------------------------


    POTLOK:  cpu time    1.2581: real time    1.2671
    SETDIJ:  cpu time    0.1890: real time    0.1897
    TRIAL :  cpu time   15.5595: real time   15.6923
    CORREC:  cpu time    6.8733: real time    6.9276
    CHARGE:  cpu time    2.2891: real time    2.3080
    --------------------------------------------
      LOOP:  cpu time   26.2045: real time   26.4646

 eigenvalue-minimisations  :     0
 total energy-change (2. order) :-0.6923537E-03  (-0.1954408E-03)
 number of electron     216.0000000 magnetization 
 augmentation part       -0.5317322 magnetization 

 Free energy of the ion-electron system (eV)
  ---------------------------------------------------
  alpha Z        PSCENC =        59.93625244
  Ewald energy   TEWEN  =     34106.83082198
  -Hartree energ DENC   =    -41160.29722774
  -exchange      EXHF   =         0.00000000
  -V(xc)+E(xc)   XCENC  =       657.72413021
  PAW double counting   =    158854.90831404  -158713.38377830
  entropy T*S    EENTRO =        -0.00000000
  eigenvalues    EBANDS =     -2698.62876961
  atomic energy  EATOM  =      8369.52358910
  ---------------------------------------------------
  free energy    TOTEN  =      -523.38666789 eV

  energy without entropy =     -523.38666789  energy(sigma->0) =     -523.38666789


--------------------------------------------------------------------------------------------------------




--------------------------------------- Iteration      1(  16)  ---------------------------------------


    POTLOK:  cpu time    1.2585: real time    1.2671
    SETDIJ:  cpu time    0.1726: real time    0.1732
    TRIAL :  cpu time   15.5658: real time   15.7001
    CORREC:  cpu time    6.8791: real time    6.9272
    CHARGE:  cpu time    2.2779: real time    2.2955
    --------------------------------------------
      LOOP:  cpu time   26.1802: real time   26.4063

 eigenvalue-minimisations  :     0
 total energy-change (2. order) :-0.1935474E-03  (-0.6124153E-04)
 number of electron     216.0000000 magnetization 
 augmentation part       -0.5317990 magnetization 

 Free energy of the ion-electron system (eV)
  ---------------------------------------------------
  alpha Z        PSCENC =        59.93625244
  Ewald energy   TEWEN  =     34106.83082198
  -Hartree energ DENC   =    -41160.21101708
  -exchange      EXHF   =         0.00000000
  -V(xc)+E(xc)   XCENC  =       657.71851793
  PAW double counting   =    158746.79590739  -158605.26977473
  entropy T*S    EENTRO =        -0.00000000
  eigenvalues    EBANDS =     -2698.71115847
  atomic energy  EATOM  =      8369.52358910
  ---------------------------------------------------
  free energy    TOTEN  =      -523.38686143 eV

  energy without entropy =     -523.38686143  energy(sigma->0) =     -523.38686143


--------------------------------------------------------------------------------------------------------




--------------------------------------- Iteration      1(  17)  ---------------------------------------


    POTLOK:  cpu time    1.2606: real time    1.2681
    SETDIJ:  cpu time    0.1747: real time    0.1753
    TRIAL :  cpu time   15.5865: real time   15.7066
    CORREC:  cpu time    6.8778: real time    6.9276
    CHARGE:  cpu time    2.2875: real time    2.3064
    --------------------------------------------
      LOOP:  cpu time   26.2213: real time   26.4242

 eigenvalue-minimisations  :     0
 total energy-change (2. order) :-0.6018463E-04  (-0.2133752E-04)
 number of electron     216.0000000 magnetization 
 augmentation part       -0.5318244 magnetization 

 Free energy of the ion-electron system (eV)
  ---------------------------------------------------
  alpha Z        PSCENC =        59.93625244
  Ewald energy   TEWEN  =     34106.83082198
  -Hartree energ DENC   =    -41160.35930685
  -exchange      EXHF   =         0.00000000
  -V(xc)+E(xc)   XCENC  =       657.72409200
  PAW double counting   =    158680.96701983  -158539.44072502
  entropy T*S    EENTRO =        -0.00000000
  eigenvalues    EBANDS =     -2698.56866510
  atomic energy  EATOM  =      8369.52358910
  ---------------------------------------------------
  free energy    TOTEN  =      -523.38692162 eV

  energy without entropy =     -523.38692162  energy(sigma->0) =     -523.38692162


--------------------------------------------------------------------------------------------------------




--------------------------------------- Iteration      1(  18)  ---------------------------------------


    POTLOK:  cpu time    1.2571: real time    1.2639
    SETDIJ:  cpu time    0.1751: real time    0.1757
    TRIAL :  cpu time   15.5776: real time   15.6930
    CORREC:  cpu time    6.8701: real time    6.9181
    CHARGE:  cpu time    2.2800: real time    2.2959
    --------------------------------------------
      LOOP:  cpu time   26.2246: real time   26.4127

 eigenvalue-minimisations  :     0
 total energy-change (2. order) :-0.2140985E-04  (-0.7095721E-05)
 number of electron     216.0000000 magnetization 
 augmentation part       -0.5318407 magnetization 

 Free energy of the ion-electron system (eV)
  ---------------------------------------------------
  alpha Z        PSCENC =        59.93625244
  Ewald energy   TEWEN  =     34106.83082198
  -Hartree energ DENC   =    -41160.41960815
  -exchange      EXHF   =         0.00000000
  -V(xc)+E(xc)   XCENC  =       657.72616636
  PAW double counting   =    158655.08873524  -158513.56219117
  entropy T*S    EENTRO =        -0.00000000
  eigenvalues    EBANDS =     -2698.51070882
  atomic energy  EATOM  =      8369.52358910
  ---------------------------------------------------
  free energy    TOTEN  =      -523.38694303 eV

  energy without entropy =     -523.38694303  energy(sigma->0) =     -523.38694303


--------------------------------------------------------------------------------------------------------




--------------------------------------- Iteration      1(  19)  ---------------------------------------


    POTLOK:  cpu time    1.2598: real time    1.2679
    SETDIJ:  cpu time    0.1710: real time    0.1716
    TRIAL :  cpu time   15.5720: real time   15.6915
    CORREC:  cpu time    6.8827: real time    6.9298
    CHARGE:  cpu time    2.2911: real time    2.3070
    --------------------------------------------
      LOOP:  cpu time   26.2318: real time   26.4253

 eigenvalue-minimisations  :     0
 total energy-change (2. order) :-0.7336756E-05  (-0.2368875E-05)
 number of electron     216.0000000 magnetization 
 augmentation part       -0.5318417 magnetization 

 Free energy of the ion-electron system (eV)
  ---------------------------------------------------
  alpha Z        PSCENC =        59.93625244
  Ewald energy   TEWEN  =     34106.83082198
  -Hartree energ DENC   =    -41160.41845165
  -exchange      EXHF   =         0.00000000
  -V(xc)+E(xc)   XCENC  =       657.72585527
  PAW double counting   =    158655.40215519  -158513.87535629
  entropy T*S    EENTRO =        -0.00000000
  eigenvalues    EBANDS =     -2698.51181640
  atomic energy  EATOM  =      8369.52358910
  ---------------------------------------------------
  free energy    TOTEN  =      -523.38695037 eV

  energy without entropy =     -523.38695037  energy(sigma->0) =     -523.38695037


--------------------------------------------------------------------------------------------------------




--------------------------------------- Iteration      1(  20)  ---------------------------------------


    POTLOK:  cpu time    1.2557: real time    1.2629
    SETDIJ:  cpu time    0.1776: real time    0.1782
    TRIAL :  cpu time   15.6000: real time   15.7110
    CORREC:  cpu time    6.8760: real time    6.9226
    CHARGE:  cpu time    2.2869: real time    2.3031
    --------------------------------------------
      LOOP:  cpu time   26.2595: real time   26.4467

 eigenvalue-minimisations  :     0
 total energy-change (2. order) :-0.2451183E-05  (-0.7467872E-06)
 number of electron     216.0000000 magnetization 
 augmentation part       -0.5318407 magnetization 

 Free energy of the ion-electron system (eV)
  ---------------------------------------------------
  alpha Z        PSCENC =        59.93625244
  Ewald energy   TEWEN  =     34106.83082198
  -Hartree energ DENC   =    -41160.43651561
  -exchange      EXHF   =         0.00000000
  -V(xc)+E(xc)   XCENC  =       657.72654240
  PAW double counting   =    158662.74333593  -158521.21655835
  entropy T*S    EENTRO =        -0.00000000
  eigenvalues    EBANDS =     -2698.49442070
  atomic energy  EATOM  =      8369.52358910
  ---------------------------------------------------
  free energy    TOTEN  =      -523.38695282 eV

  energy without entropy =     -523.38695282  energy(sigma->0) =     -523.38695282


--------------------------------------------------------------------------------------------------------




--------------------------------------- Iteration      1(  21)  ---------------------------------------


    POTLOK:  cpu time    1.2615: real time    1.2686
    SETDIJ:  cpu time    0.1704: real time    0.1710
    TRIAL :  cpu time   15.5935: real time   15.7000
    CORREC:  cpu time    6.8834: real time    6.9292
    CHARGE:  cpu time    2.2965: real time    2.3124
    --------------------------------------------
      LOOP:  cpu time   26.2555: real time   26.4326

 eigenvalue-minimisations  :     0
 total energy-change (2. order) :-0.7558556E-06  (-0.2580326E-06)
 number of electron     216.0000000 magnetization 
 augmentation part       -0.5318369 magnetization 

 Free energy of the ion-electron system (eV)
  ---------------------------------------------------
  alpha Z        PSCENC =        59.93625244
  Ewald energy   TEWEN  =     34106.83082198
  -Hartree energ DENC   =    -41160.44516037
  -exchange      EXHF   =         0.00000000
  -V(xc)+E(xc)   XCENC  =       657.72673394
  PAW double counting   =    158668.98841448  -158527.46165321
  entropy T*S    EENTRO =        -0.00000000
  eigenvalues    EBANDS =     -2698.48595193
  atomic energy  EATOM  =      8369.52358910
  ---------------------------------------------------
  free energy    TOTEN  =      -523.38695357 eV

  energy without entropy =     -523.38695357  energy(sigma->0) =     -523.38695357


--------------------------------------------------------------------------------------------------------




--------------------------------------- Iteration      1(  22)  ---------------------------------------


    POTLOK:  cpu time    1.2616: real time    1.2687
    SETDIJ:  cpu time    0.1736: real time    0.1742
    TRIAL :  cpu time   15.5925: real time   15.6992
    CORREC:  cpu time    6.8786: real time    6.9245
    CHARGE:  cpu time    2.2799: real time    2.2961
    --------------------------------------------
      LOOP:  cpu time   26.2157: real time   26.3982

 eigenvalue-minimisations  :     0
 total energy-change (2. order) :-0.2477900E-06  (-0.1180941E-06)
 number of electron     216.0000000 magnetization 
 augmentation part       -0.5318314 magnetization 

 Free energy of the ion-electron system (eV)
  ---------------------------------------------------
  alpha Z        PSCENC =        59.93625244
  Ewald energy   TEWEN  =     34106.83082198
  -Hartree energ DENC   =    -41160.44485942
  -exchange      EXHF   =         0.00000000
  -V(xc)+E(xc)   XCENC  =       657.72666899
  PAW double counting   =    158672.89530414  -158531.36856909
  entropy T*S    EENTRO =        -0.00000000
  eigenvalues    EBANDS =     -2698.48616196
  atomic energy  EATOM  =      8369.52358910
  ---------------------------------------------------
  free energy    TOTEN  =      -523.38695382 eV

  energy without entropy =     -523.38695382  energy(sigma->0) =     -523.38695382


--------------------------------------------------------------------------------------------------------




--------------------------------------- Iteration      1(  23)  ---------------------------------------


    POTLOK:  cpu time    1.2617: real time    1.2703
    SETDIJ:  cpu time    0.1697: real time    0.1703
    TRIAL :  cpu time   15.5809: real time   15.6985
    CORREC:  cpu time    6.8795: real time    6.9298
    EDDIAG:  cpu time    3.2228: real time    3.2467
    CHARGE:  cpu time    2.2801: real time    2.2973
    --------------------------------------------
      LOOP:  cpu time   29.4318: real time   29.6504

 eigenvalue-minimisations  :     0
 total energy-change (2. order) :-0.9630457E-07  (-0.9531985E-07)
 number of electron     216.0000000 magnetization 
 augmentation part       -0.5318274 magnetization 

 Free energy of the ion-electron system (eV)
  ---------------------------------------------------
  alpha Z        PSCENC =        59.93625244
  Ewald energy   TEWEN  =     34106.83082198
  -Hartree energ DENC   =    -41160.44393981
  -exchange      EXHF   =         0.00000000
  -V(xc)+E(xc)   XCENC  =       657.72666718
  PAW double counting   =    158675.30764072  -158533.78094969
  entropy T*S    EENTRO =        -0.00000000
  eigenvalues    EBANDS =     -2698.48703584
  atomic energy  EATOM  =      8369.52358910
  ---------------------------------------------------
  free energy    TOTEN  =      -523.38695392 eV

  energy without entropy =     -523.38695392  energy(sigma->0) =     -523.38695392


--------------------------------------------------------------------------------------------------------


  average scaling for gradient   0.9337


 average (electrostatic) potential at core
  the test charge radii are     0.5770  0.5955
  (the norm of the test charge is              1.0000)
       1 -87.6379       2 -87.6335       3 -87.6440       4 -87.6528       5 -87.6301
       6 -87.6270       7 -87.6404       8 -87.6267       9 -87.6305      10 -87.6365
      11 -87.6294      12 -87.6331      13 -87.6348      14 -87.6294      15 -87.6269
      16 -87.6273      17 -87.6327      18 -87.6346      19 -87.6370      20 -87.6326
      21 -87.6236      22 -87.6250      23 -87.6540      24 -87.6525      25 -87.6285
      26 -87.6307      27 -87.6314      28 -87.6409      29 -87.6267      30 -87.6284
      31 -87.6489      32 -87.6400      33 -87.6341      34 -87.6302      35 -87.6287
      36 -87.6313      37 -87.6334      38 -87.6362      39 -87.6363      40 -87.6347
      41 -87.6353      42 -87.6380      43 -87.6321      44 -87.6379      45 -87.6281
      46 -87.6271      47 -87.6323      48 -87.6298      49 -87.6352      50 -87.6334
      51 -91.5133      52-123.8940      53-123.8964
 
 
 
 E-fermi :  -4.0678     XC(G=0):  -2.3169     alpha+bet : -2.1113

 Fermi energy:        -4.0677731054

 k-point     1 :       0.0000    0.0000    0.0000
  band No.  band energies     occupation 
      1     -28.7881      2.00000
      2     -27.6812      2.00000
      3     -23.3405      2.00000
      4     -22.3551      2.00000
      5     -22.3509      2.00000
      6     -22.3453      2.00000
      7     -22.3451      2.00000
      8     -22.3425      2.00000
      9     -22.3412      2.00000
     10     -20.4042      2.00000
     11     -20.4034      2.00000
     12     -20.3996      2.00000
     13     -20.3991      2.00000
     14     -20.3979      2.00000
     15     -20.3978      2.00000
     16     -19.4599      2.00000
     17     -19.4591      2.00000
     18     -19.4581      2.00000
     19     -19.4562      2.00000
     20     -19.4559      2.00000
     21     -19.4556      2.00000
     22     -17.2200      2.00000
     23     -17.2192      2.00000
     24     -17.2173      2.00000
     25     -17.2169      2.00000
     26     -17.2135      2.00000
     27     -17.2132      2.00000
     28     -16.0512      2.00000
     29     -16.0507      2.00000
     30     -16.0479      2.00000
     31     -16.0476      2.00000
     32     -16.0470      2.00000
     33     -16.0467      2.00000
     34     -14.6431      2.00000
     35     -14.6429      2.00000
     36     -14.6425      2.00000
     37     -14.6413      2.00000
     38     -14.6411      2.00000
     39     -14.6404      2.00000
     40     -12.8574      2.00000
     41     -12.1512      2.00000
     42     -12.1511      2.00000
     43     -12.1492      2.00000
     44     -12.1491      2.00000
     45     -12.1489      2.00000
     46     -12.1487      2.00000
     47     -11.9452      2.00000
     48     -11.9448      2.00000
     49     -11.9427      2.00000
     50     -11.9425      2.00000
     51     -11.9400      2.00000
     52     -11.9397      2.00000
     53     -11.5149      2.00000
     54     -11.3571      2.00000
     55     -11.3149      2.00000
     56     -10.6163      2.00000
     57     -10.4800      2.00000
     58     -10.4799      2.00000
     59     -10.4795      2.00000
     60     -10.4793      2.00000
     61     -10.4781      2.00000
     62     -10.4780      2.00000
     63      -9.4613      2.00000
     64      -9.4545      2.00000
     65      -9.4542      2.00000
     66      -9.4500      2.00000
     67      -9.4486      2.00000
     68      -9.4436      2.00000
     69      -9.1520      2.00000
     70      -9.1488      2.00000
     71      -9.1483      2.00000
     72      -9.1467      2.00000
     73      -9.1463      2.00000
     74      -9.1452      2.00000
     75      -9.1432      2.00000
     76      -9.1425      2.00000
     77      -9.1422      2.00000
     78      -9.1400      2.00000
     79      -9.1397      2.00000
     80      -9.1392      2.00000
     81      -7.7108      2.00000
     82      -7.6825      2.00000
     83      -7.4039      2.00000
     84      -7.4037      2.00000
     85      -7.4037      2.00000
     86      -7.4021      2.00000
     87      -7.3990      2.00000
     88      -7.3989      2.00000
     89      -7.2153      2.00000
     90      -7.2139      2.00000
     91      -7.2045      2.00000
     92      -7.2039      2.00000
     93      -7.2026      2.00000
     94      -7.1726      2.00000
     95      -6.2703      2.00000
     96      -6.2675      2.00000
     97      -6.2637      2.00000
     98      -6.2592      2.00000
     99      -6.2581      2.00000
    100      -6.2488      2.00000
    101      -5.8319      2.00000
    102      -5.8296      2.00000
    103      -4.1710      2.00000
    104      -4.1680      2.00000
    105      -4.1647      2.00000
    106      -4.1633      2.00000
    107      -4.1582      2.00000
    108      -4.1577      2.00000
    109      -1.1793      0.00000
    110      -1.1783      0.00000
    111      -1.1698      0.00000
    112      -1.1687      0.00000
    113      -1.1666      0.00000
    114      -1.1655      0.00000
    115       0.8100      0.00000
    116       0.8132      0.00000
    117       0.8162      0.00000
    118       0.8233      0.00000
    119       0.8244      0.00000
    120       0.8266      0.00000
    121       0.9387      0.00000
    122       1.5303      0.00000
    123       1.5321      0.00000
    124       1.5789      0.00000
    125       1.9546      0.00000
    126       2.0736      0.00000
    127       2.3333      0.00000
    128       2.3908      0.00000
    129       2.3974      0.00000
    130       2.4012      0.00000
    131       2.4689      0.00000
    132       2.6811      0.00000
    133       2.6832      0.00000
    134       2.6907      0.00000
    135       2.6923      0.00000
    136       2.6929      0.00000
    137       2.6965      0.00000
    138       2.8453      0.00000
    139       2.9592      0.00000
    140       3.0434      0.00000
    141       3.1201      0.00000
    142       3.1320      0.00000
    143       3.1325      0.00000
    144       3.1701      0.00000
    145       3.2651      0.00000
    146       3.2912      0.00000
    147       3.3090      0.00000
    148       3.3367      0.00000
    149       3.3700      0.00000
    150       3.3749      0.00000
    151       3.4745      0.00000
    152       4.5670      0.00000
    153       4.6412      0.00000
    154       4.7269      0.00000
    155       4.9065      0.00000
    156       5.0536      0.00000
    157       5.2120      0.00000
    158       5.2153      0.00000
    159       5.2179      0.00000
    160       5.2199      0.00000
    161       5.2213      0.00000
    162       5.2232      0.00000
    163       5.3827      0.00000
    164       5.4334      0.00000
    165       5.4949      0.00000
    166       5.5756      0.00000
    167       5.6270      0.00000
    168       5.8089      0.00000


--------------------------------------------------------------------------------------------------------


 soft charge-density along one line, spin component           1
         0         1         2         3         4         5         6         7         8         9
 total charge-density along one line
 
 pseudopotential strength for first ion, spin component:           1
 12.626  21.245  -0.000   0.000   0.000  -0.000   0.000   0.000
 21.245  35.746  -0.000   0.000   0.000  -0.000   0.000   0.000
 -0.000  -0.000  -3.230  -0.000   0.000  -5.784   0.000   0.000
  0.000   0.000  -0.000  -3.230  -0.000   0.000  -5.784  -0.000
  0.000   0.000   0.000  -0.000  -3.230   0.000  -0.000  -5.784
 -0.000  -0.000  -5.784   0.000   0.000 -10.337   0.000   0.000
  0.000   0.000   0.000  -5.784  -0.000   0.000 -10.335  -0.000
  0.000   0.000   0.000  -0.000  -5.784   0.000  -0.000 -10.337
 total augmentation occupancy for first ion, spin component:           1
 10.263  -3.894  -0.001  -0.002   0.001   0.000   0.001  -0.000
 -3.894   1.507   0.000   0.001  -0.000  -0.000  -0.000   0.000
 -0.001   0.000   8.468  -0.009   0.000  -3.024   0.004  -0.000
 -0.002   0.001  -0.009   4.015  -0.000   0.004  -1.207   0.000
  0.001  -0.000   0.000  -0.000   8.468  -0.000   0.000  -3.024
  0.000  -0.000  -3.024   0.004  -0.000   1.092  -0.001   0.000
  0.001  -0.000   0.004  -1.207   0.000  -0.001   0.368   0.000
 -0.000   0.000  -0.000   0.000  -3.024   0.000   0.000   1.092


------------------------ aborting loop because EDIFF is reached ----------------------------------------


    FORLOC:  cpu time    0.1070: real time    0.1079
    FORNL :  cpu time    2.9601: real time    2.9851
    FORCOR:  cpu time    1.2794: real time    1.2867
    OFIELD:  cpu time    0.0023: real time    0.0023
 WARNING: Using user supplied parameters
     VDW_A1 = 0.495
     VDW_A2 = 5.731
     VDW_S8 = 0.79
     because the xc functional is not supported. Required parameters not
     defined in the INCAR file will be replaced with PBE defaults ones.


 ---------------------------------------------------------------------------------------------

         DFTD3 V3.0 Rev 1        
 IVDW         = 12
 DF unknown   
 parameters
 VDW_S6       =    1.0000
 VDW_S8       =    0.7898
 VDW_A1       =    0.4948
 VDW_A2       =    5.7308
 k1-k3        =   16.0000    1.3333   -4.0000
 VDW_RADIUS   =   50.2022 A
 VDW_CNRADIUS =   21.1671 A
 Edisp (eV)   -1.78588

 E6    (eV) :    -1.3808
 E8    (eV) :    -0.4051
 % E8        : 22.68
    FORVDW:  cpu time    0.1659: real time    0.1686

 VOLUME and BASIS-vectors are now :
 -----------------------------------------------------------------------------
  energy-cutoff  :     1000.00
  volume of cell :     2631.08
      direct lattice vectors                 reciprocal lattice vectors
    12.325000000  0.000000000  0.000000000     0.081135903  0.046843835  0.000000000
    -6.162500000 10.673763102  0.000000000     0.000000000  0.093687670  0.000000000
     0.000000000  0.000000000 20.000000000     0.000000000  0.000000000  0.050000000

  length of vectors
    12.325000000 12.325000000 20.000000000     0.093687670  0.093687670  0.050000000


 FORCES acting on ions:
    Electron-Ion                     Ewald-Force                    Non-Local-Force
 -----------------------------------------------------------------------------------------------
   0.103E+02 0.901E+01 0.228E+02   -.103E+02 -.901E+01 -.228E+02   0.140E-01 -.471E-02 0.100E-01
   0.167E+02 0.824E+01 0.300E+02   -.167E+02 -.823E+01 -.300E+02   0.206E-01 -.116E-01 -.100E-01
   0.812E+01 0.209E+02 0.372E+02   -.812E+01 -.209E+02 -.373E+02   -.263E-02 0.435E-01 0.278E-01
   0.126E+02 0.185E+02 0.591E+02   -.127E+02 -.185E+02 -.592E+02   0.487E-01 0.199E-01 0.795E-01
   0.112E+02 0.264E+01 0.228E+02   -.112E+02 -.263E+01 -.228E+02   0.436E-02 -.163E-01 -.674E-02
   0.117E+02 -.202E+01 0.234E+02   -.117E+02 0.203E+01 -.233E+02   -.175E-01 -.276E-02 -.164E-01
   0.219E+02 0.877E+01 0.509E+02   -.219E+02 -.872E+01 -.509E+02   0.500E-01 -.553E-01 -.209E-02
   0.215E+02 -.734E+01 0.539E+02   -.215E+02 0.737E+01 -.539E+02   0.958E-02 -.280E-01 -.764E-01
   -.908E+01 0.192E+02 0.381E+02   0.911E+01 -.192E+02 -.381E+02   -.198E-01 -.438E-02 -.334E-01
   -.162E+02 0.138E+02 0.572E+02   0.163E+02 -.139E+02 -.571E+02   -.700E-01 0.411E-01 -.453E-01
   0.276E+01 -.246E+01 0.182E+02   -.274E+01 0.245E+01 -.182E+02   -.409E-02 0.277E-02 -.586E-02
   0.221E+01 -.180E+01 0.168E+02   -.221E+01 0.180E+01 -.168E+02   -.153E-01 0.655E-02 0.186E-02
   0.835E+01 -.196E+02 0.614E+02   -.843E+01 0.196E+02 -.614E+02   0.823E-01 -.274E-01 -.533E-01
   0.394E+01 -.210E+02 0.380E+02   -.397E+01 0.210E+02 -.379E+02   0.249E-01 -.120E-02 -.375E-01
   -.997E+01 0.626E+01 0.223E+02   0.997E+01 -.626E+01 -.223E+02   0.140E-01 -.746E-02 -.856E-02
   -.147E+02 0.416E+01 0.262E+02   0.147E+02 -.417E+01 -.262E+02   -.299E-02 0.116E-01 -.260E-01
   -.152E+01 -.619E+00 0.161E+02   0.153E+01 0.616E+00 -.161E+02   -.612E-02 0.127E-02 0.113E-02
   0.826E+00 0.556E+01 0.173E+02   -.819E+00 -.556E+01 -.173E+02   -.876E-02 0.418E-02 0.895E-02
   -.301E+01 -.176E+02 0.286E+02   0.299E+01 0.176E+02 -.286E+02   0.248E-01 -.717E-02 0.389E-02
   -.131E+01 -.859E+01 0.193E+02   0.130E+01 0.860E+01 -.193E+02   0.627E-02 -.599E-02 -.231E-02
   0.172E+02 -.751E+01 0.325E+02   -.172E+02 0.751E+01 -.324E+02   -.333E-02 -.670E-02 -.490E-01
   0.103E+02 -.889E+01 0.251E+02   -.103E+02 0.888E+01 -.251E+02   -.126E-01 0.146E-01 -.205E-01
   -.413E+01 0.903E+01 0.748E+02   0.419E+01 -.908E+01 -.749E+02   -.552E-01 0.459E-01 0.896E-01
   -.696E+01 -.143E+02 0.709E+02   0.693E+01 0.144E+02 -.710E+02   0.382E-01 -.590E-01 0.816E-01
   0.483E+01 -.212E+01 0.183E+02   -.482E+01 0.211E+01 -.183E+02   -.841E-02 0.163E-02 -.101E-01
   0.909E+00 0.433E+01 0.185E+02   -.902E+00 -.433E+01 -.185E+02   -.130E-01 0.645E-02 -.104E-02
   -.220E+02 0.262E+01 0.422E+02   0.220E+02 -.265E+01 -.422E+02   -.493E-02 0.262E-01 -.342E-01
   -.202E+02 -.858E+01 0.380E+02   0.203E+02 0.856E+01 -.380E+02   -.362E-01 0.292E-01 0.104E-01
   0.628E+01 -.128E+02 0.264E+02   -.629E+01 0.128E+02 -.264E+02   0.121E-01 0.751E-02 -.245E-01
   0.584E+00 -.479E+01 0.196E+02   -.594E+00 0.479E+01 -.196E+02   0.117E-02 0.817E-02 -.100E-01
   -.163E+02 -.175E+02 0.472E+02   0.164E+02 0.176E+02 -.473E+02   -.430E-01 -.269E-01 0.486E-01
   -.942E+01 -.172E+02 0.307E+02   0.942E+01 0.172E+02 -.308E+02   0.316E-03 -.252E-01 0.165E-01
   0.572E+00 0.234E+01 0.167E+02   -.578E+00 -.234E+01 -.167E+02   0.121E-01 -.842E-02 0.405E-02
   0.161E+01 0.236E+01 0.181E+02   -.162E+01 -.235E+01 -.181E+02   0.539E-03 -.223E-02 -.618E-02
   -.697E+01 0.883E+00 0.200E+02   0.696E+01 -.890E+00 -.200E+02   0.922E-02 0.151E-02 -.297E-02
   -.600E+01 -.241E+01 0.194E+02   0.600E+01 0.240E+01 -.194E+02   -.111E-01 0.824E-02 -.295E-02
   -.122E+02 -.635E+01 0.233E+02   0.122E+02 0.634E+01 -.233E+02   -.156E-01 0.400E-02 -.123E-03
   -.708E+01 -.573E+01 0.191E+02   0.708E+01 0.573E+01 -.191E+02   -.110E-01 0.307E-02 0.101E-01
   -.663E+01 -.867E+01 0.206E+02   0.664E+01 0.867E+01 -.206E+02   -.111E-01 -.658E-02 0.747E-02
   -.978E+00 -.207E+01 0.173E+02   0.977E+00 0.207E+01 -.173E+02   0.279E-02 -.209E-02 0.863E-02
   0.249E+01 0.598E+01 0.181E+02   -.249E+01 -.599E+01 -.181E+02   -.470E-02 0.922E-02 0.827E-02
   0.824E+01 0.129E+02 0.244E+02   -.825E+01 -.129E+02 -.244E+02   0.107E-01 0.106E-01 0.136E-01
   0.662E+00 0.106E+02 0.204E+02   -.651E+00 -.106E+02 -.204E+02   -.841E-02 0.863E-02 -.180E-02
   0.704E-01 0.196E+02 0.317E+02   -.416E-01 -.197E+02 -.317E+02   -.322E-01 0.119E-01 0.590E-02
   -.201E+01 0.400E+01 0.196E+02   0.202E+01 -.399E+01 -.196E+02   0.126E-02 -.697E-02 -.721E-02
   -.845E+01 0.107E+02 0.250E+02   0.846E+01 -.107E+02 -.250E+02   -.111E-01 -.107E-02 -.206E-01
   -.147E+01 -.410E+01 0.179E+02   0.146E+01 0.410E+01 -.179E+02   0.144E-01 -.251E-02 0.129E-02
   -.380E+01 0.154E+01 0.172E+02   0.378E+01 -.153E+01 -.171E+02   0.711E-02 -.281E-03 -.858E-02
   0.304E+00 -.255E+01 0.169E+02   -.308E+00 0.255E+01 -.169E+02   0.833E-02 -.394E-02 0.617E-02
   0.402E+01 0.295E+01 0.171E+02   -.403E+01 -.295E+01 -.171E+02   0.648E-02 0.208E-02 0.333E-02
   0.129E+00 -.910E-01 -.366E+03   -.117E+00 0.838E-01 0.366E+03   -.977E-02 0.547E-02 -.450E-01
   -.228E+03 0.155E+03 -.561E+03   0.279E+03 -.190E+03 0.564E+03   -.522E+02 0.356E+02 -.334E+01
   0.228E+03 -.155E+03 -.541E+03   -.279E+03 0.190E+03 0.537E+03   0.522E+02 -.356E+02 0.331E+01
 -----------------------------------------------------------------------------------------------
   0.256E-01 -.162E-02 0.155E+00   -.568E-13 0.568E-13 0.114E-12   -.258E-01 0.114E-02 -.143E+00
 
 
 POSITION                                       TOTAL-FORCE (eV/Angst)
 -----------------------------------------------------------------------------------
     11.98348      0.00342      0.01417         0.002729      0.000296     -0.001309
     -0.34154      1.42665      0.01100        -0.000599      0.000999     -0.000517
      2.12355      0.00315      0.01249         0.000968     -0.004061      0.001111
      2.12326      1.42653      0.00641        -0.000646      0.000631      0.009715
     10.75099      2.13819      0.01213         0.001495     -0.004152      0.001232
     -1.57382      3.56123      0.01110        -0.005017      0.006200     -0.000270
      0.89078      2.13854      0.00548        -0.002090     -0.001095      0.006602
      0.89099      3.56147      0.00181        -0.009032      0.005161      0.004568
      4.58864      0.00346      0.01135         0.005862     -0.003449      0.000128
      4.58894      1.42623      0.00646        -0.002744      0.001208      0.004437
      9.51854      4.27281      0.01369         0.008056     -0.006446      0.000214
     -2.80632      5.69591      0.01434        -0.008415      0.004318      0.001029
      2.12300      4.27302      0.00000         0.000350      0.005089      0.005723
      2.12335      5.69594      0.00581        -0.003061     -0.002823      0.001642
      7.05344      0.00333      0.01399         0.005855     -0.003048      0.000740
      7.05353      1.42635      0.01368        -0.004539      0.004697     -0.001553
      8.28610      6.40752      0.01601         0.003789     -0.001775     -0.000783
     -4.03885      7.83070      0.01636        -0.002518      0.002814     -0.000307
      3.35586      6.40753      0.01007         0.002364     -0.000185      0.000534
      3.35599      7.83072      0.01320        -0.002731      0.000014     -0.000093
     -0.34146      4.27290      0.00723         0.007534     -0.005514     -0.000282
     -0.34138      5.69591      0.00946        -0.006817      0.003213      0.001297
      3.35624      2.13791      0.00222         0.002486     -0.000548      0.013609
      3.35573      3.56155      0.00139         0.000232      0.000165      0.014079
     -1.57395      6.40758      0.01311         0.009937     -0.004010     -0.000632
     -1.57385      7.83068      0.01438        -0.005299      0.004486      0.000211
      5.82093      2.13784      0.01033         0.006433     -0.003684     -0.000140
      5.82114      3.56097      0.01156        -0.001412      0.001040      0.001976
      0.89092      6.40755      0.00907         0.003841     -0.000435      0.000798
      0.89106      7.83068      0.01235        -0.008519      0.000309      0.000290
      4.58871      4.27293      0.00850         0.000788     -0.002616      0.003562
      4.58852      5.69606      0.01149         0.001226      0.006464     -0.000890
      9.51845      0.00337      0.01490         0.005761     -0.005777      0.000247
      9.51855      1.42644      0.01438        -0.004611      0.008682     -0.000402
      8.28593      2.13803      0.01453         0.003560     -0.005459      0.000645
      8.28613      3.56115      0.01464        -0.005117      0.001632      0.000308
      7.05356      4.27269      0.01457         0.003196     -0.000479      0.000171
      7.05362      5.69588      0.01553        -0.002837      0.000198     -0.000322
      5.82112      6.40755      0.01489        -0.001758      0.001595     -0.000281
      5.82102      7.83073      0.01579         0.001599      0.001474     -0.000497
      7.05363      8.54227      0.01631        -0.003115     -0.000184      0.000951
     -5.27149      9.96549      0.01495        -0.001250     -0.002311     -0.002296
     -2.80638      8.54234      0.01558         0.002751     -0.001120     -0.000819
     -2.80627      9.96553      0.01362        -0.003254      0.000985     -0.000924
     -0.34149      8.54239      0.01378         0.006183     -0.001766      0.000446
     -0.34138      9.96550      0.01354        -0.006631      0.003229      0.000592
      2.12343      8.54232      0.01336         0.006501     -0.001667      0.001149
      2.12354      9.96544      0.01469        -0.007965      0.004756     -0.002172
      4.58846      8.54235      0.01505         0.004677     -0.003998      0.000968
      4.58853      9.96550      0.01517        -0.003025      0.003725      0.000416
      3.04930      2.68154      3.33710         0.002032     -0.001877     -0.039088
      4.02070      2.02068      3.40152        -1.400262      0.957505     -0.104325
      2.07767      3.34267      3.27764         1.403059     -0.962403      0.078511
 -----------------------------------------------------------------------------------
    total drift:                               -0.000208     -0.000478      0.011641


--------------------------------------------------------------------------------------------------------



  FREE ENERGIE OF THE ION-ELECTRON SYSTEM (eV)
  ---------------------------------------------------
  free  energy   TOTEN  =      -525.17283027 eV

  energy  without entropy=     -525.17283027  energy(sigma->0) =     -525.17283027
 


--------------------------------------------------------------------------------------------------------


    POTLOK:  cpu time    1.4317: real time    1.4400


--------------------------------------------------------------------------------------------------------


 writing wavefunctions
     LOOP+:  cpu time  643.6107: real time  649.0581
    4ORBIT:  cpu time    0.0000: real time    0.0000

 total amount of memory used by VASP MPI-rank0   556209. kBytes
=======================================================================

   base      :      30000. kBytes
   nonl-proj :     184518. kBytes
   fftplans  :      31725. kBytes
   grid      :     282516. kBytes
   one-center:        162. kBytes
   wavefun   :      27288. kBytes
 
  
  
 General timing and accounting informations for this job:
 ========================================================
  
                  Total CPU time used (sec):      683.317
                            User time (sec):      664.100
                          System time (sec):       19.217
                         Elapsed time (sec):      690.084
  
                   Maximum memory used (kb):     1034552.
                   Average memory used (kb):          N/A
  
                          Minor page faults:       183964
                          Major page faults:          182
                 Voluntary context switches:         3974
