 vasp.6.2.1 16May21 (build Nov 06 2021 14:46:37) complex                        
  
 executed on             LinuxIFC date 2025.04.16  22:12:37
 running on  112 total cores
 distrk:  each k-point on   56 cores,    2 groups
 distr:  one band on NCORE=   1 cores,   56 groups


--------------------------------------------------------------------------------------------------------


 INCAR:
   ALGO = Conjugate
   KPAR = 2
   NCORE = 32
   ISMEAR = 0
   SIGMA = 0.01
   PREC = Accurate
   EDIFF = 1E-7
   ENCUT = 1000
   ISIF = 0
   METAGGA = R2SCAN
   LASPH = .TRUE.
   IVDW = 12
   VDW_S8 = 0.7898
   VDW_A1 = 0.4948
   VDW_A2 = 5.7308
   SYMPREC = 1E-7

 POTCAR:    PAW_PBE C_h 06Feb2004                 
 POTCAR:    PAW_PBE O_h 06Feb2004                 
 -----------------------------------------------------------------------------
|                                                                             |
|           W    W    AA    RRRRR   N    N  II  N    N   GGGG   !!!           |
|           W    W   A  A   R    R  NN   N  II  NN   N  G    G  !!!           |
|           W    W  A    A  R    R  N N  N  II  N N  N  G       !!!           |
|           W WW W  AAAAAA  RRRRR   N  N N  II  N  N N  G  GGG   !            |
|           WW  WW  A    A  R   R   N   NN  II  N   NN  G    G                |
|           W    W  A    A  R    R  N    N  II  N    N   GGGG   !!!           |
|                                                                             |
|     The value NCORE = 32 specified in the INCAR file was overwritten,       |
|     because it was not compatible with the 56 processes available:          |
|     NCORE = 1                                                               |
|     was used instead, please check that this makes sense for your           |
|     machine.                                                                |
|                                                                             |
 -----------------------------------------------------------------------------

 -----------------------------------------------------------------------------
|                                                                             |
|           W    W    AA    RRRRR   N    N  II  N    N   GGGG   !!!           |
|           W    W   A  A   R    R  NN   N  II  NN   N  G    G  !!!           |
|           W    W  A    A  R    R  N N  N  II  N N  N  G       !!!           |
|           W WW W  AAAAAA  RRRRR   N  N N  II  N  N N  G  GGG   !            |
|           WW  WW  A    A  R   R   N   NN  II  N   NN  G    G                |
|           W    W  A    A  R    R  N    N  II  N    N   GGGG   !!!           |
|                                                                             |
|     For optimal performance we recommend to set                             |
|       NCORE = 2 up to number-of-cores-per-socket                            |
|     NCORE specifies how many cores store one orbital (NPAR=cpu/NCORE).      |
|     This setting can greatly improve the performance of VASP for DFT.       |
|     The default, NCORE=1 might be grossly inefficient on modern             |
|     multi-core architectures or massively parallel machines. Do your        |
|     own testing! More info at https://www.vasp.at/wiki/index.php/NCORE      |
|     Unfortunately you need to use the default for GW and RPA                |
|     calculations (for HF NCORE is supported but not extensively tested      |
|     yet).                                                                   |
|                                                                             |
 -----------------------------------------------------------------------------

 POTCAR:    PAW_PBE C_h 06Feb2004                 
   VRHFIN =C: s2p2                                                                                  
   LEXCH  = PE                                                                                      
   EATOM  =   147.1560 eV,   10.8157 Ry                                                             
                                                                                                    
   TITEL  = PAW_PBE C_h 06Feb2004                                                                   
   LULTRA =        F    use ultrasoft PP ?                                                          
   IUNSCR =        1    unscreen: 0-lin 1-nonlin 2-no                                               
   RPACOR =    0.800    partial core radius                                                         
   POMASS =   12.011; ZVAL   =    4.000    mass and valenz                                          
   RCORE  =    1.100    outmost cutoff radius                                                       
   RWIGS  =    1.630; RWIGS  =    0.863    wigner-seitz radius (au A)                               
   ENMAX  =  700.000; ENMIN  =  500.000 eV                                                          
   ICORE  =        2    local potential                                                             
   LCOR   =        T    correct aug charges                                                         
   LPAW   =        T    paw PP                                                                      
   EAUG   =  946.768                                                                                
   DEXC   =    0.000                                                                                
   RMAX   =    1.128    core radius for proj-oper                                                   
   RAUG   =    1.300    factor for augmentation sphere                                              
   RDEP   =    1.162    radius for radial grids                                                     
   RDEPT  =    1.088    core radius for aug-charge                                                  
                                                                                                    
   Atomic configuration                                                                             
    4 entries                                                                                       
     n  l   j            E        occ.                                                              
     1  0  0.50      -273.3789   2.0000                                                             
     2  0  0.50       -13.7508   2.0000                                                             
     2  1  0.50        -5.2854   2.0000                                                             
     3  2  1.50        -5.4423   0.0000                                                             
   Description                                                                                      
     l       E           TYP  RCUT    TYP  RCUT                                                     
     0    -13.7508458     23  1.100                                                                 
     0     -8.2022199     23  1.100                                                                 
     1     -5.2854383     23  1.100                                                                 
     1      1.1560700     23  1.100                                                                 
     2     -5.4423304      7  1.100                                                                 
  local pseudopotential read in
  partial core-charges read in
  partial kinetic energy density read in
  atomic valenz-charges read in
  non local Contribution for L=           0  read in
    real space projection operators read in
  non local Contribution for L=           0  read in
    real space projection operators read in
  non local Contribution for L=           1  read in
    real space projection operators read in
  non local Contribution for L=           1  read in
    real space projection operators read in
    PAW grid and wavefunctions read in
 
   number of l-projection  operators is LMAX  =           4
   number of lm-projection operators is LMMAX =           8
 
 POTCAR:    PAW_PBE O_h 06Feb2004                 
   VRHFIN =O: s2p4                                                                                  
   LEXCH  = PE                                                                                      
   EATOM  =   432.3788 eV,   31.7789 Ry                                                             
                                                                                                    
   TITEL  = PAW_PBE O_h 06Feb2004                                                                   
   LULTRA =        F    use ultrasoft PP ?                                                          
   IUNSCR =        1    unscreen: 0-lin 1-nonlin 2-no                                               
   RPACOR =    0.800    partial core radius                                                         
   POMASS =   16.000; ZVAL   =    6.000    mass and valenz                                          
   RCORE  =    1.100    outmost cutoff radius                                                       
   RWIGS  =    1.400; RWIGS  =    0.741    wigner-seitz radius (au A)                               
   ENMAX  =  700.000; ENMIN  =  500.000 eV                                                          
   ICORE  =        2    local potential                                                             
   LCOR   =        T    correct aug charges                                                         
   LPAW   =        T    paw PP                                                                      
   EAUG   =  888.804                                                                                
   DEXC   =    0.000                                                                                
   RMAX   =    1.128    core radius for proj-oper                                                   
   RAUG   =    1.300    factor for augmentation sphere                                              
   RDEP   =    1.125    radius for radial grids                                                     
   RDEPT  =    1.088    core radius for aug-charge                                                  
                                                                                                    
   Atomic configuration                                                                             
    4 entries                                                                                       
     n  l   j            E        occ.                                                              
     1  0  0.50      -514.6923   2.0000                                                             
     2  0  0.50       -23.9615   2.0000                                                             
     2  1  0.50        -9.0305   4.0000                                                             
     3  2  1.50        -9.5241   0.0000                                                             
   Description                                                                                      
     l       E           TYP  RCUT    TYP  RCUT                                                     
     0    -23.9615319     23  1.100                                                                 
     0    -25.3221145     23  1.100                                                                 
     1     -9.0304911     23  1.100                                                                 
     1     -5.4802209     23  1.100                                                                 
     2     -9.5240782      7  1.100                                                                 
  local pseudopotential read in
  partial core-charges read in
  partial kinetic energy density read in
  atomic valenz-charges read in
  non local Contribution for L=           0  read in
    real space projection operators read in
  non local Contribution for L=           0  read in
    real space projection operators read in
  non local Contribution for L=           1  read in
    real space projection operators read in
  non local Contribution for L=           1  read in
    real space projection operators read in
    PAW grid and wavefunctions read in
 
   number of l-projection  operators is LMAX  =           4
   number of lm-projection operators is LMMAX =           8
 
 -----------------------------------------------------------------------------
|                                                                             |
|               ----> ADVICE to this user running VASP <----                  |
|                                                                             |
|     You have a (more or less) 'large supercell' and for larger cells it     |
|     might be more efficient to use real-space projection operators.         |
|     Therefore, try LREAL= Auto in the INCAR file.                           |
|     Mind: For very accurate calculation, you might also keep the            |
|     reciprocal projection scheme (i.e. LREAL=.FALSE.).                      |
|                                                                             |
 -----------------------------------------------------------------------------

  PAW_PBE C_h 06Feb2004                 :
 energy of atom  1       EATOM= -147.1560
 kinetic energy error for atom=    0.0031 (will be added to EATOM!!)
  PAW_PBE O_h 06Feb2004                 :
 energy of atom  2       EATOM= -432.3788
 kinetic energy error for atom=    0.0171 (will be added to EATOM!!)
 
 
 POSCAR:  C  O
  positions in cartesian coordinates
  No initial velocities read in

 METAGGA = R2SCA    LMAXTAU =  6    LMIXTAU =  F

 exchange correlation table for  LEXCH =        8
   RHO(1)=    0.500       N(1)  =     2000
   RHO(2)=  100.500       N(2)  =     4000
 


--------------------------------------------------------------------------------------------------------


 ion  position               nearest neighbor table
   1  0.972  0.000  0.001-  50 1.42   2 1.42  42 1.42
   2  0.039  0.134  0.000-   5 1.42   7 1.42   1 1.42
   3  0.172  0.000  0.000-  42 1.42  44 1.42   4 1.42
   4  0.239  0.134  0.000-   7 1.42   3 1.42  23 1.42
   5  0.972  0.200  0.000-   6 1.42   2 1.42  34 1.42
   6  0.039  0.334  0.000-   5 1.42  21 1.42  11 1.42
   7  0.172  0.200  0.000-   8 1.42   2 1.42   4 1.42
   8  0.239  0.334  0.000-  13 1.42   7 1.42  21 1.42
   9  0.372  0.000  0.000-  10 1.42  44 1.42  46 1.42
  10  0.439  0.134  0.000-  27 1.42   9 1.42  23 1.42
  11  0.972  0.400  0.001-  12 1.42  36 1.42   6 1.42
  12  0.039  0.534  0.001-  25 1.42  11 1.42  17 1.42
  13  0.372  0.400  0.000-   8 1.42  14 1.42  24 1.42
  14  0.439  0.534  0.000-  13 1.42  29 1.42  19 1.42
  15  0.572  0.000  0.001-  46 1.42  16 1.42  48 1.42
  16  0.639  0.134  0.001-  15 1.42  35 1.42  27 1.42
  17  0.972  0.600  0.001-  38 1.42  18 1.42  12 1.42
  18  0.039  0.734  0.001-  43 1.42  41 1.42  17 1.42
  19  0.572  0.600  0.000-  14 1.42  20 1.42  32 1.42
  20  0.639  0.734  0.001-  49 1.42  19 1.42  47 1.42
  21  0.172  0.400  0.000-  22 1.42   8 1.42   6 1.42
  22  0.239  0.534  0.000-  21 1.42  29 1.42  25 1.42
  23  0.372  0.200  0.000-  10 1.42   4 1.42  24 1.42
  24  0.439  0.334  0.000-  13 1.42  31 1.42  23 1.42
  25  0.172  0.600  0.001-  26 1.42  12 1.42  22 1.42
  26  0.239  0.734  0.001-  25 1.42  45 1.42  43 1.42
  27  0.572  0.200  0.000-  10 1.42  28 1.42  16 1.42
  28  0.639  0.334  0.000-  27 1.42  37 1.42  31 1.42
  29  0.372  0.600  0.000-  22 1.42  14 1.42  30 1.42
  30  0.439  0.734  0.000-  47 1.42  29 1.42  45 1.42
  31  0.572  0.400  0.000-  32 1.42  28 1.42  24 1.42
  32  0.639  0.534  0.000-  31 1.42  39 1.42  19 1.42
  33  0.772  0.000  0.001-  34 1.42  48 1.42  50 1.42
  34  0.839  0.134  0.001-  33 1.42   5 1.42  35 1.42
  35  0.772  0.200  0.001-  36 1.42  16 1.42  34 1.42
  36  0.839  0.334  0.001-  35 1.42  11 1.42  37 1.42
  37  0.772  0.400  0.001-  28 1.42  38 1.42  36 1.42
  38  0.839  0.534  0.001-  17 1.42  37 1.42  39 1.42
  39  0.772  0.600  0.001-  40 1.42  38 1.42  32 1.42
  40  0.839  0.734  0.001-  39 1.42  49 1.42  41 1.42
  41  0.972  0.800  0.001-  18 1.42  42 1.42  40 1.42
  42  0.039  0.934  0.001-   3 1.42  41 1.42   1 1.42
  43  0.172  0.800  0.001-  18 1.42  44 1.42  26 1.42
  44  0.239  0.934  0.001-   9 1.42  43 1.42   3 1.42
  45  0.372  0.800  0.001-  26 1.42  46 1.42  30 1.42
  46  0.439  0.934  0.001-  15 1.42  45 1.42   9 1.42
  47  0.572  0.800  0.001-  30 1.42  48 1.42  20 1.42
  48  0.639  0.934  0.001-  47 1.42  33 1.42  15 1.42
  49  0.772  0.800  0.001-  50 1.42  20 1.42  40 1.42
  50  0.839  0.934  0.001-  49 1.42   1 1.42  33 1.42
  51  0.373  0.251  0.283-  52 1.18  53 1.18
  52  0.421  0.189  0.285-  51 1.18
  53  0.325  0.313  0.280-  51 1.18
 
  LATTYP: Found a hexagonal cell.
 ALAT       =    12.3250000000
 C/A-ratio  =     2.0283975659
  
  Lattice vectors:
  
 A1 = (  12.3250000000,   0.0000000000,   0.0000000000)
 A2 = (  -6.1625000000,  10.6737631016,   0.0000000000)
 A3 = (   0.0000000000,   0.0000000000,  25.0000000000)


Analysis of symmetry for initial positions (statically):
=====================================================================
 Subroutine PRICEL returns:
 Original cell was already a primitive cell.
 

 Routine SETGRP: Setting up the symmetry group for a 
 hexagonal supercell.


 Subroutine GETGRP returns: Found  1 space group operations
 (whereof  1 operations were pure point group operations)
 out of a pool of 24 trial point group operations.


The static configuration has the point symmetry C_1 .


Analysis of symmetry for dynamics (positions and initial velocities):
=====================================================================
 Subroutine PRICEL returns:
 Original cell was already a primitive cell.
 

 Routine SETGRP: Setting up the symmetry group for a 
 hexagonal supercell.


 Subroutine GETGRP returns: Found  1 space group operations
 (whereof  1 operations were pure point group operations)
 out of a pool of 24 trial point group operations.


The dynamic configuration has the point symmetry C_1 .


 Subroutine INISYM returns: Found  1 space group operations
 (whereof  1 operations are pure point group operations),
 and found     1 'primitive' translations


----------------------------------------------------------------------------------------

                                     Primitive cell                                     

  volume of cell :    3288.8533

  direct lattice vectors                    reciprocal lattice vectors
    12.325000000  0.000000000  0.000000000     0.081135903  0.046843835  0.000000000
    -6.162500000 10.673763102  0.000000000     0.000000000  0.093687670  0.000000000
     0.000000000  0.000000000 25.000000000     0.000000000  0.000000000  0.040000000

  length of vectors
    12.325000000 12.325000000 25.000000000     0.093687670  0.093687670  0.040000000

  position of ions in fractional coordinates (direct lattice)
     0.972450841  0.000320818  0.000566711
     0.039118382  0.133659505  0.000440173
     0.172443627  0.000295449  0.000499628
     0.239096278  0.133647917  0.000256468
     0.972452058  0.200322012  0.000485219
     0.039128360  0.333643771  0.000444150
     0.172451764  0.200354552  0.000219167
     0.239124359  0.333665720  0.000072260
     0.372465565  0.000324403  0.000453913
     0.439137473  0.133619939  0.000258338
     0.972449824  0.400309362  0.000547611
     0.039124981  0.533636789  0.000573410
     0.372416176  0.400329481  0.000000000
     0.439099602  0.533638981  0.000232414
     0.572443676  0.000312125  0.000559580
     0.639110207  0.133631751  0.000547275
     0.972452703  0.600305653  0.000640289
     0.039124495  0.733640359  0.000654513
     0.572433471  0.600306242  0.000402895
     0.639111888  0.733641879  0.000527905
     0.172454630  0.400318228  0.000289045
     0.239120185  0.533636548  0.000378509
     0.372459750  0.200295993  0.000088997
     0.439107096  0.333673419  0.000055762
     0.172452155  0.600311506  0.000524340
     0.239123371  0.733638574  0.000575129
     0.572431082  0.200289171  0.000413296
     0.639112773  0.333618630  0.000462376
     0.372439808  0.600308022  0.000362844
     0.439116090  0.733637858  0.000494190
     0.572469358  0.400320504  0.000339918
     0.639119408  0.533650873  0.000459610
     0.772445723  0.000315427  0.000596161
     0.839116277  0.133640203  0.000575306
     0.772440513  0.200307432  0.000581033
     0.839120241  0.333635728  0.000585467
     0.772446320  0.400298367  0.000582978
     0.839118980  0.533633964  0.000621100
     0.772456143  0.600308173  0.000595712
     0.839115033  0.733643180  0.000631512
     0.972455313  0.800305582  0.000652233
     0.039114714  0.933643289  0.000598051
     0.172457971  0.800312211  0.000623372
     0.239134551  0.933647193  0.000544850
     0.372451396  0.800316674  0.000551399
     0.439124489  0.933644769  0.000541430
     0.572441101  0.800310054  0.000534535
     0.639115067  0.933638985  0.000587644
     0.772445098  0.800313187  0.000602062
     0.839116614  0.933644338  0.000606830
     0.373021009  0.251226878  0.282842712
     0.420879805  0.189313152  0.285419587
     0.325156981  0.313167186  0.280464518

  ion indices of the primitive-cell ions
   primitive index   ion index
                 1           1
                 2           2
                 3           3
                 4           4
                 5           5
                 6           6
                 7           7
                 8           8
                 9           9
                10          10
                11          11
                12          12
                13          13
                14          14
                15          15
                16          16
                17          17
                18          18
                19          19
                20          20
                21          21
                22          22
                23          23
                24          24
                25          25
                26          26
                27          27
                28          28
                29          29
                30          30
                31          31
                32          32
                33          33
                34          34
                35          35
                36          36
                37          37
                38          38
                39          39
                40          40
                41          41
                42          42
                43          43
                44          44
                45          45
                46          46
                47          47
                48          48
                49          49
                50          50
                51          51
                52          52
                53          53

----------------------------------------------------------------------------------------

 
 
 KPOINTS: auto                                    

Automatic generation of k-mesh.
 Grid dimensions read from file:
 generate k-points for:    1    1    1

 Generating k-lattice:

  Cartesian coordinates                     Fractional coordinates (reciprocal lattice)
     0.081135903  0.046843835  0.000000000     1.000000000 -0.000000000  0.000000000
     0.000000000  0.093687670  0.000000000     0.000000000  1.000000000  0.000000000
     0.000000000  0.000000000  0.040000000     0.000000000  0.000000000  1.000000000

  Length of vectors
     0.093687670  0.093687670  0.040000000

  Shift w.r.t. Gamma in fractional coordinates (k-lattice)
     0.000000000  0.000000000  0.000000000

 
 Subroutine IBZKPT returns following result:
 ===========================================
 
 Found      1 irreducible k-points:
 
 Following reciprocal coordinates:
            Coordinates               Weight
  0.000000  0.000000  0.000000      1.000000
 
 Following cartesian coordinates:
            Coordinates               Weight
  0.000000  0.000000  0.000000      1.000000
 


--------------------------------------------------------------------------------------------------------




 Dimension of arrays:
   k-points           NKPTS =      1   k-points in BZ     NKDIM =      1   number of bands    NBANDS=    168
   number of dos      NEDOS =    301   number of ions     NIONS =     53
   non local maximal  LDIM  =      4   non local SUM 2l+1 LMDIM =      8
   total plane-waves  NPLWV = ******
   max r-space proj   IRMAX =      1   max aug-charges    IRDMAX=  10008
   dimension x,y,z NGX =   128 NGY =  128 NGZ =  270
   dimension x,y,z NGXF=   256 NGYF=  256 NGZF=  540
   support grid    NGXF=   256 NGYF=  256 NGZF=  540
   ions per type =              51   2
   NGX,Y,Z   is equivalent  to a cutoff of  17.27, 17.27, 17.95 a.u.
   NGXF,Y,Z  is equivalent  to a cutoff of  34.53, 34.53, 35.91 a.u.

 SYSTEM =  unknown system                          
 POSCAR =   C  O                                   

 Startparameter for this run:
   NWRITE =      2    write-flag & timer
   PREC   = accura    normal or accurate (medium, high low for compatibility)
   ISTART =      0    job   : 0-new  1-cont  2-samecut
   ICHARG =      2    charge: 1-file 2-atom 10-const
   ISPIN  =      1    spin polarized calculation?
   LNONCOLLINEAR =      F non collinear calculations
   LSORBIT =      F    spin-orbit coupling
   INIWAV =      1    electr: 0-lowe 1-rand  2-diag
   LASPH  =      T    aspherical Exc in radial PAW
 Electronic Relaxation 1
   ENCUT  = 1000.0 eV  73.50 Ry    8.57 a.u.  31.78 31.78 64.46*2*pi/ulx,y,z
   ENINI  = 1000.0     initial cutoff
   ENAUG  =  946.8 eV  augmentation charge cutoff
   NELM   =     60;   NELMIN=  2; NELMDL= -5     # of ELM steps 
   EDIFF  = 0.1E-06   stopping-criterion for ELM
   LREAL  =      F    real-space projection
   NLSPLINE    = F    spline interpolate recip. space projectors
   LCOMPAT=      F    compatible to vasp.4.4
   GGA_COMPAT  = T    GGA compatible to vasp.4.4-vasp.4.6
   LMAXPAW     = -100 max onsite density
   LMAXMIX     =    2 max onsite mixed and CHGCAR
   VOSKOWN=      0    Vosko Wilk Nusair interpolation
   ROPT   =    0.00000   0.00000
 Ionic relaxation
   EDIFFG = 0.1E-05   stopping-criterion for IOM
   NSW    =      0    number of steps for IOM
   NBLOCK =      1;   KBLOCK =      1    inner block; outer block 
   IBRION =     -1    ionic relax: 0-MD 1-quasi-New 2-CG
   NFREE  =      0    steps in history (QN), initial steepest desc. (CG)
   ISIF   =      0    stress and relaxation
   IWAVPR =     10    prediction:  0-non 1-charg 2-wave 3-comb
   ISYM   =      2    0-nonsym 1-usesym 2-fastsym
   LCORR  =      T    Harris-Foulkes like correction to forces

   POTIM  = 0.5000    time-step for ionic-motion
   TEIN   =    0.0    initial temperature
   TEBEG  =    0.0;   TEEND  =   0.0 temperature during run
   SMASS  =  -3.00    Nose mass-parameter (am)
   estimated Nose-frequenzy (Omega)   =  0.10E-29 period in steps = 0.13E+47 mass=  -0.347E-26a.u.
   SCALEE = 1.0000    scale energy and forces
   NPACO  =    256;   APACO  = 16.0  distance and # of slots for P.C.
   PSTRESS=    0.0 pullay stress

  Mass of Ions in am
   POMASS =  12.01 16.00
  Ionic Valenz
   ZVAL   =   4.00  6.00
  Atomic Wigner-Seitz radii
   RWIGS  =  -1.00 -1.00
  virtual crystal weights 
   VCA    =   1.00  1.00
   NELECT =     216.0000    total number of electrons
   NUPDOWN=      -1.0000    fix difference up-down

 DOS related values:
   EMIN   =  10.00;   EMAX   =-10.00  energy-range for DOS
   EFERMI =   0.00
   ISMEAR =     0;   SIGMA  =   0.01  broadening in eV -4-tet -1-fermi 0-gaus

 Electronic relaxation 2 (details)
   IALGO  =     58    algorithm
   LDIAG  =      T    sub-space diagonalisation (order eigenvalues)
   LSUBROT=      F    optimize rotation matrix (better conditioning)
   TURBO    =      0    0=normal 1=particle mesh
   IRESTART =      0    0=no restart 2=restart with 2 vectors
   NREBOOT  =      0    no. of reboots
   NMIN     =      0    reboot dimension
   EREF     =   0.00    reference energy to select bands
   IMIX   =      4    mixing-type and parameters
     AMIX     =   0.40;   BMIX     =  1.00
     AMIX_MAG =   1.60;   BMIX_MAG =  1.00
     AMIN     =   0.10
     WC   =   100.;   INIMIX=   1;  MIXPRE=   1;  MAXMIX= -45

 Intra band minimization:
   WEIMIN = 0.0000     energy-eigenvalue tresh-hold
   EBREAK =  0.15E-09  absolut break condition
   DEPER  =   0.30     relativ break condition  

   TIME   =   0.40     timestep for ELM

  volume/ion in A,a.u.               =      62.05       418.76
  Fermi-wavevector in a.u.,A,eV,Ry     =   0.660508  1.248179  5.935820  0.436270
  Thomas-Fermi vector in A             =   1.732977
 
 Write flags
   LWAVE        =      T    write WAVECAR
   LDOWNSAMPLE  =      F    k-point downsampling of WAVECAR
   LCHARG       =      T    write CHGCAR
   LVTOT        =      F    write LOCPOT, total local potential
   LVHAR        =      F    write LOCPOT, Hartree potential only
   LELF         =      F    write electronic localiz. function (ELF)
   LORBIT       =      0    0 simple, 1 ext, 2 COOP (PROOUT), +10 PAW based schemes


 Dipole corrections
   LMONO  =      F    monopole corrections only (constant potential shift)
   LDIPOL =      F    correct potential (dipole corrections)
   IDIPOL =      0    1-x, 2-y, 3-z, 4-all directions 
   EPSILON=  1.0000000 bulk dielectric constant

 Exchange correlation treatment:
   GGA     =    --    GGA type
   LEXCH   =     8    internal setting for exchange type
   VOSKOWN=      0    Vosko Wilk Nusair interpolation
   LHFCALC =     F    Hartree Fock is set to
   LHFONE  =     F    Hartree Fock one center treatment
   AEXX    =    0.0000 exact exchange contribution

 Linear response parameters
   LEPSILON=     F    determine dielectric tensor
   LRPA    =     F    only Hartree local field effects (RPA)
   LNABLA  =     F    use nabla operator in PAW spheres
   LVEL    =     F    velocity operator in full k-point grid
   LINTERFAST=   F  fast interpolation
   KINTER  =     0    interpolate to denser k-point grid
   CSHIFT  =0.1000    complex shift for real part using Kramers Kronig
   OMEGAMAX=  -1.0    maximum frequency
   DEG_THRESHOLD= 0.2000000E-02 threshold for treating states as degnerate
   RTIME   =   -0.100 relaxation time in fs
  (WPLASMAI=    0.000 imaginary part of plasma frequency in eV, 0.658/RTIME)
   DFIELD  = 0.0000000 0.0000000 0.0000000 field for delta impulse in time
 
 Orbital magnetization related:
   ORBITALMAG=     F  switch on orbital magnetization
   LCHIMAG   =     F  perturbation theory with respect to B field
   DQ        =  0.001000  dq finite difference perturbation B field
   LLRAUG    =     F  two centre corrections for induced B field



--------------------------------------------------------------------------------------------------------


 Static calculation
 charge density and potential will be updated during run
 non-spin polarized calculation
 Conjugate gradient for all bands (Freysoldt, et al. PRB 79, 241103 (2009))
 preconditioned conjugated gradient                                        
 perform sub-space diagonalisation
    before iterative eigenvector-optimisation
 modified Broyden-mixing scheme, WC =      100.0
 initial mixing is a Kerker type mixing with AMIX =  0.4000 and BMIX =      1.0000
 Hartree-type preconditioning will be used
 using additional bands           60
 reciprocal scheme for non local part
 use partial core corrections
 no Harris-corrections to forces 
 use gradient corrections 
 use of overlap-Matrix (Vanderbilt PP)
 Gauss-broadening in eV      SIGMA  =   0.01


--------------------------------------------------------------------------------------------------------


  energy-cutoff  :     1000.00
  volume of cell :     3288.85
      direct lattice vectors                 reciprocal lattice vectors
    12.325000000  0.000000000  0.000000000     0.081135903  0.046843835  0.000000000
    -6.162500000 10.673763102  0.000000000     0.000000000  0.093687670  0.000000000
     0.000000000  0.000000000 25.000000000     0.000000000  0.000000000  0.040000000

  length of vectors
    12.325000000 12.325000000 25.000000000     0.093687670  0.093687670  0.040000000


 
 k-points in units of 2pi/SCALE and weight: auto                                    
   0.00000000  0.00000000  0.00000000       1.000
 
 k-points in reciprocal lattice and weights: auto                                    
   0.00000000  0.00000000  0.00000000       1.000
 
 position of ions in fractional coordinates (direct lattice) 
   0.97245084  0.00032082  0.00056671
   0.03911838  0.13365950  0.00044017
   0.17244363  0.00029545  0.00049963
   0.23909628  0.13364792  0.00025647
   0.97245206  0.20032201  0.00048522
   0.03912836  0.33364377  0.00044415
   0.17245176  0.20035455  0.00021917
   0.23912436  0.33366572  0.00007226
   0.37246557  0.00032440  0.00045391
   0.43913747  0.13361994  0.00025834
   0.97244982  0.40030936  0.00054761
   0.03912498  0.53363679  0.00057341
   0.37241618  0.40032948  0.00000000
   0.43909960  0.53363898  0.00023241
   0.57244368  0.00031213  0.00055958
   0.63911021  0.13363175  0.00054727
   0.97245270  0.60030565  0.00064029
   0.03912449  0.73364036  0.00065451
   0.57243347  0.60030624  0.00040289
   0.63911189  0.73364188  0.00052791
   0.17245463  0.40031823  0.00028904
   0.23912018  0.53363655  0.00037851
   0.37245975  0.20029599  0.00008900
   0.43910710  0.33367342  0.00005576
   0.17245216  0.60031151  0.00052434
   0.23912337  0.73363857  0.00057513
   0.57243108  0.20028917  0.00041330
   0.63911277  0.33361863  0.00046238
   0.37243981  0.60030802  0.00036284
   0.43911609  0.73363786  0.00049419
   0.57246936  0.40032050  0.00033992
   0.63911941  0.53365087  0.00045961
   0.77244572  0.00031543  0.00059616
   0.83911628  0.13364020  0.00057531
   0.77244051  0.20030743  0.00058103
   0.83912024  0.33363573  0.00058547
   0.77244632  0.40029837  0.00058298
   0.83911898  0.53363396  0.00062110
   0.77245614  0.60030817  0.00059571
   0.83911503  0.73364318  0.00063151
   0.97245531  0.80030558  0.00065223
   0.03911471  0.93364329  0.00059805
   0.17245797  0.80031221  0.00062337
   0.23913455  0.93364719  0.00054485
   0.37245140  0.80031667  0.00055140
   0.43912449  0.93364477  0.00054143
   0.57244110  0.80031005  0.00053453
   0.63911507  0.93363899  0.00058764
   0.77244510  0.80031319  0.00060206
   0.83911661  0.93364434  0.00060683
   0.37302101  0.25122688  0.28284271
   0.42087980  0.18931315  0.28541959
   0.32515698  0.31316719  0.28046452
 
 position of ions in cartesian coordinates  (Angst):
  11.98347958  0.00342433  0.01416777
  -0.34154264  1.42664989  0.01100432
   2.12354700  0.00315355  0.01249070
   2.12325634  1.42652621  0.00641170
  10.75098721  2.13818970  0.01213047
  -1.57382270  3.56123457  0.01110375
   0.89078307  2.13853702  0.00547917
   0.89099273  3.56146885  0.00180651
   4.58863896  0.00346260  0.01134782
   4.58893648  1.42622757  0.00645846
   9.51853763  4.27280730  0.01369027
  -2.80632132  5.69591267  0.01433526
   2.12299894  4.27302204  0.00000000
   2.12335237  5.69593607  0.00581036
   7.05344483  0.00333155  0.01398950
   7.05352764  1.42635365  0.01368187
   8.28609598  6.40752033  0.01600723
  -4.03884931  7.83070339  0.01636283
   3.35585531  6.40752662  0.01007237
   3.35598594  7.83071962  0.01319763
  -0.34145776  4.27290193  0.00722612
  -0.34137895  5.69591010  0.00946273
   3.35624236  2.13791198  0.00222492
   3.35573251  3.56155103  0.00139405
  -1.57394684  6.40758280  0.01310850
  -1.57385216  7.83068434  0.01437823
   5.82093107  2.13783916  0.01033241
   5.82114012  3.56096622  0.01155939
   0.89092245  6.40754561  0.00907111
   0.89106251  7.83067670  0.01235474
   4.58870974  4.27292622  0.00849795
   4.58852320  5.69606300  0.01149026
   9.51844972  0.00336679  0.01490402
   9.51855036  1.42644387  0.01438264
   8.28593477  2.13803408  0.01452582
   8.28612680  3.56114872  0.01463668
   7.05356221  4.27268994  0.01457444
   7.05362213  5.69588251  0.01552751
   5.82112285  6.40754723  0.01489279
   5.82101669  7.83073350  0.01578780
   7.05362858  8.54227219  0.01630582
  -5.27148792  9.96548729  0.01495127
  -2.80637951  8.54234295  0.01558431
  -2.80626749  9.96552896  0.01362126
  -0.34148805  8.54239058  0.01378498
  -0.34137657  9.96550309  0.01353576
   2.12342586  8.54231992  0.01336337
   2.12354296  9.96544135  0.01469111
   4.58845581  8.54235337  0.01505154
   4.58852904  9.96549848  0.01517076
   3.04929830  2.68153618  7.07106781
   4.02070129  2.02068374  7.13548967
   2.07766701  3.34267235  7.01161294
 


--------------------------------------------------------------------------------------------------------


 k-point   1 :   0.0000 0.0000 0.0000  plane waves:  236157

 maximum and minimum number of plane-waves per node :    236157   236157

 maximum number of plane-waves:    236157
 maximum index in each direction: 
   IXMAX=   31   IYMAX=   31   IZMAX=   64
   IXMIN=  -31   IYMIN=  -31   IZMIN=  -64


 serial   3D FFT for wavefunctions
 parallel 3D FFT for charge:
    minimum data exchange during FFTs selected (reduces bandwidth)


 total amount of memory used by VASP MPI-rank0   698619. kBytes
=======================================================================

   base      :      30000. kBytes
   nonl-proj :     230539. kBytes
   fftplans  :      40716. kBytes
   grid      :     363125. kBytes
   one-center:        162. kBytes
   wavefun   :      34077. kBytes
 
     INWAV:  cpu time    0.0000: real time    0.0000
 Broyden mixing: mesh for mixing (old mesh)
   NGX = 63   NGY = 63   NGZ =129
  (NGX  =256   NGY  =256   NGZ  =540)
  gives a total of 512001 points

 initial charge density was supplied:
 charge density of overlapping atoms calculated
 number of electron     216.0000000 magnetization 
 keeping initial charge density in first step


--------------------------------------------------------------------------------------------------------


 Maximum index for augmentation-charges          471 (set IRDMAX)


--------------------------------------------------------------------------------------------------------


 First call to EWALD:  gamma=   0.119
 Maximum number of real-space cells 4x 4x 2
 Maximum number of reciprocal cells 2x 2x 4

    FEWALD:  cpu time    0.0023: real time    0.0024


--------------------------------------- Iteration      1(   1)  ---------------------------------------


    POTLOK:  cpu time    1.7289: real time    1.7395
    SETDIJ:  cpu time    0.1897: real time    0.1903
    TRIAL :  cpu time   28.1478: real time   28.3916
    CORREC:  cpu time    0.0006: real time    0.0007
    --------------------------------------------
      LOOP:  cpu time   30.0785: real time   30.3513

 eigenvalue-minimisations  :   336
 total energy-change (2. order) : 0.2539678E+04  (-0.1080319E+05)
 number of electron     216.0000000 magnetization 
 augmentation part      216.0000000 magnetization 

 Free energy of the ion-electron system (eV)
  ---------------------------------------------------
  alpha Z        PSCENC =        47.94900195
  Ewald energy   TEWEN  =     42432.44515335
  -Hartree energ DENC   =    -48501.64799612
  -exchange      EXHF   =         0.00000000
  -V(xc)+E(xc)   XCENC  =       605.05736327
  PAW double counting   =      6340.10990386    -6200.63067283
  entropy T*S    EENTRO =        -0.00027326
  eigenvalues    EBANDS =      -553.12826191
  atomic energy  EATOM  =      8369.52358910
  ---------------------------------------------------
  free energy    TOTEN  =      2539.67780741 eV

  energy without entropy =     2539.67808067  energy(sigma->0) =     2539.67794404


--------------------------------------------------------------------------------------------------------




--------------------------------------- Iteration      1(   2)  ---------------------------------------


    TRIAL :  cpu time   39.9580: real time   40.3033
    CORREC:  cpu time    0.0001: real time    0.0001
    --------------------------------------------
      LOOP:  cpu time   40.0327: real time   40.3850

 eigenvalue-minimisations  :   560
 total energy-change (2. order) :-0.2483191E+04  (-0.2327682E+04)
 number of electron     216.0000000 magnetization 
 augmentation part      216.0000000 magnetization 

 Free energy of the ion-electron system (eV)
  ---------------------------------------------------
  alpha Z        PSCENC =        47.94900195
  Ewald energy   TEWEN  =     42432.44515335
  -Hartree energ DENC   =    -48501.64799612
  -exchange      EXHF   =         0.00000000
  -V(xc)+E(xc)   XCENC  =       605.05736327
  PAW double counting   =      6340.10990386    -6200.63067283
  entropy T*S    EENTRO =        -0.00000000
  eigenvalues    EBANDS =     -3036.31951689
  atomic energy  EATOM  =      8369.52358910
  ---------------------------------------------------
  free energy    TOTEN  =        56.48682569 eV

  energy without entropy =       56.48682569  energy(sigma->0) =       56.48682569


--------------------------------------------------------------------------------------------------------




--------------------------------------- Iteration      1(   3)  ---------------------------------------


    TRIAL :  cpu time   31.0613: real time   31.3191
    CORREC:  cpu time    0.0001: real time    0.0001
    --------------------------------------------
      LOOP:  cpu time   31.1490: real time   31.4120

 eigenvalue-minimisations  :   392
 total energy-change (2. order) :-0.6303950E+03  (-0.6274605E+03)
 number of electron     216.0000000 magnetization 
 augmentation part      216.0000000 magnetization 

 Free energy of the ion-electron system (eV)
  ---------------------------------------------------
  alpha Z        PSCENC =        47.94900195
  Ewald energy   TEWEN  =     42432.44515335
  -Hartree energ DENC   =    -48501.64799612
  -exchange      EXHF   =         0.00000000
  -V(xc)+E(xc)   XCENC  =       605.05736327
  PAW double counting   =      6340.10990386    -6200.63067283
  entropy T*S    EENTRO =        -0.00000000
  eigenvalues    EBANDS =     -3666.71449455
  atomic energy  EATOM  =      8369.52358910
  ---------------------------------------------------
  free energy    TOTEN  =      -573.90815197 eV

  energy without entropy =     -573.90815197  energy(sigma->0) =     -573.90815197


--------------------------------------------------------------------------------------------------------




--------------------------------------- Iteration      1(   4)  ---------------------------------------


    TRIAL :  cpu time   34.0470: real time   34.3140
    CORREC:  cpu time    0.0001: real time    0.0001
    --------------------------------------------
      LOOP:  cpu time   34.0958: real time   34.3666

 eigenvalue-minimisations  :   448
 total energy-change (2. order) :-0.3270089E+02  (-0.3244934E+02)
 number of electron     216.0000000 magnetization 
 augmentation part      216.0000000 magnetization 

 Free energy of the ion-electron system (eV)
  ---------------------------------------------------
  alpha Z        PSCENC =        47.94900195
  Ewald energy   TEWEN  =     42432.44515335
  -Hartree energ DENC   =    -48501.64799612
  -exchange      EXHF   =         0.00000000
  -V(xc)+E(xc)   XCENC  =       605.05736327
  PAW double counting   =      6340.10990386    -6200.63067283
  entropy T*S    EENTRO =        -0.00000000
  eigenvalues    EBANDS =     -3699.41537977
  atomic energy  EATOM  =      8369.52358910
  ---------------------------------------------------
  free energy    TOTEN  =      -606.60903719 eV

  energy without entropy =     -606.60903719  energy(sigma->0) =     -606.60903719


--------------------------------------------------------------------------------------------------------




--------------------------------------- Iteration      1(   5)  ---------------------------------------


    TRIAL :  cpu time   31.0488: real time   31.2907
    CORREC:  cpu time    0.0001: real time    0.0001
    CHARGE:  cpu time    3.0567: real time    3.2088
    --------------------------------------------
      LOOP:  cpu time   34.1435: real time   34.5398

 eigenvalue-minimisations  :   392
 total energy-change (2. order) :-0.1126779E+01  (-0.1124795E+01)
 number of electron     216.0000000 magnetization 
 augmentation part       -0.4501119 magnetization 

 Free energy of the ion-electron system (eV)
  ---------------------------------------------------
  alpha Z        PSCENC =        47.94900195
  Ewald energy   TEWEN  =     42432.44515335
  -Hartree energ DENC   =    -48501.64799612
  -exchange      EXHF   =         0.00000000
  -V(xc)+E(xc)   XCENC  =       605.05736327
  PAW double counting   =      6340.10990386    -6200.63067283
  entropy T*S    EENTRO =        -0.00000000
  eigenvalues    EBANDS =     -3700.54215864
  atomic energy  EATOM  =      8369.52358910
  ---------------------------------------------------
  free energy    TOTEN  =      -607.73581606 eV

  energy without entropy =     -607.73581606  energy(sigma->0) =     -607.73581606


--------------------------------------------------------------------------------------------------------




--------------------------------------- Iteration      1(   6)  ---------------------------------------


    POTLOK:  cpu time    1.6989: real time    1.7092
    SETDIJ:  cpu time    0.1939: real time    0.1946
    TRIAL :  cpu time   20.0809: real time   20.2315
    CORREC:  cpu time    8.9664: real time    9.0311
    CHARGE:  cpu time    2.9941: real time    3.0155
    --------------------------------------------
      LOOP:  cpu time   33.9858: real time   34.2377

 eigenvalue-minimisations  :     0
 total energy-change (2. order) : 0.9795871E+02  (-0.1124220E+02)
 number of electron     216.0000000 magnetization 
 augmentation part       -0.5096787 magnetization 

 Free energy of the ion-electron system (eV)
  ---------------------------------------------------
  alpha Z        PSCENC =        47.94900195
  Ewald energy   TEWEN  =     42432.44515335
  -Hartree energ DENC   =    -49844.27362690
  -exchange      EXHF   =         0.00000000
  -V(xc)+E(xc)   XCENC  =       676.76204276
  PAW double counting   =    119501.27307569  -119361.68122425
  entropy T*S    EENTRO =        -0.00000000
  eigenvalues    EBANDS =     -2331.77511652
  atomic energy  EATOM  =      8369.52358910
  ---------------------------------------------------
  free energy    TOTEN  =      -509.77710481 eV

  energy without entropy =     -509.77710481  energy(sigma->0) =     -509.77710481


--------------------------------------------------------------------------------------------------------




--------------------------------------- Iteration      1(   7)  ---------------------------------------


    POTLOK:  cpu time    1.6956: real time    1.7055
    SETDIJ:  cpu time    0.2090: real time    0.2099
    TRIAL :  cpu time   20.0474: real time   20.2131
    CORREC:  cpu time    8.9714: real time    9.0447
    CHARGE:  cpu time    3.0082: real time    3.0336
    --------------------------------------------
      LOOP:  cpu time   34.0018: real time   34.2786

 eigenvalue-minimisations  :     0
 total energy-change (2. order) :-0.1125718E+02  (-0.1479881E+01)
 number of electron     216.0000000 magnetization 
 augmentation part       -0.5422938 magnetization 

 Free energy of the ion-electron system (eV)
  ---------------------------------------------------
  alpha Z        PSCENC =        47.94900195
  Ewald energy   TEWEN  =     42432.44515335
  -Hartree energ DENC   =    -49435.58826023
  -exchange      EXHF   =         0.00000000
  -V(xc)+E(xc)   XCENC  =       659.16854108
  PAW double counting   =    138692.13789561  -138550.81234408
  entropy T*S    EENTRO =        -0.00000000
  eigenvalues    EBANDS =     -2735.85785822
  atomic energy  EATOM  =      8369.52358910
  ---------------------------------------------------
  free energy    TOTEN  =      -521.03428144 eV

  energy without entropy =     -521.03428144  energy(sigma->0) =     -521.03428144


--------------------------------------------------------------------------------------------------------




--------------------------------------- Iteration      1(   8)  ---------------------------------------


    POTLOK:  cpu time    1.6905: real time    1.7003
    SETDIJ:  cpu time    0.1985: real time    0.1992
    TRIAL :  cpu time   20.0334: real time   20.1916
    CORREC:  cpu time    8.9647: real time    9.0267
    CHARGE:  cpu time    3.0042: real time    3.0256
    --------------------------------------------
      LOOP:  cpu time   33.9898: real time   34.2447

 eigenvalue-minimisations  :     0
 total energy-change (2. order) :-0.1479477E+01  (-0.4796812E+00)
 number of electron     216.0000000 magnetization 
 augmentation part       -0.5433856 magnetization 

 Free energy of the ion-electron system (eV)
  ---------------------------------------------------
  alpha Z        PSCENC =        47.94900195
  Ewald energy   TEWEN  =     42432.44515335
  -Hartree energ DENC   =    -49404.84258581
  -exchange      EXHF   =         0.00000000
  -V(xc)+E(xc)   XCENC  =       658.07205472
  PAW double counting   =    148274.63755827  -148133.18674507
  entropy T*S    EENTRO =        -0.00000000
  eigenvalues    EBANDS =     -2767.11178503
  atomic energy  EATOM  =      8369.52358910
  ---------------------------------------------------
  free energy    TOTEN  =      -522.51375852 eV

  energy without entropy =     -522.51375852  energy(sigma->0) =     -522.51375852


--------------------------------------------------------------------------------------------------------




--------------------------------------- Iteration      1(   9)  ---------------------------------------


    POTLOK:  cpu time    1.6912: real time    1.7010
    SETDIJ:  cpu time    0.1978: real time    0.1985
    TRIAL :  cpu time   20.0767: real time   20.2343
    CORREC:  cpu time    8.9602: real time    9.0237
    CHARGE:  cpu time    2.9978: real time    3.0209
    --------------------------------------------
      LOOP:  cpu time   33.9992: real time   34.2579

 eigenvalue-minimisations  :     0
 total energy-change (2. order) :-0.4794152E+00  (-0.1920160E+00)
 number of electron     216.0000000 magnetization 
 augmentation part       -0.5401128 magnetization 

 Free energy of the ion-electron system (eV)
  ---------------------------------------------------
  alpha Z        PSCENC =        47.94900195
  Ewald energy   TEWEN  =     42432.44515335
  -Hartree energ DENC   =    -49411.93531289
  -exchange      EXHF   =         0.00000000
  -V(xc)+E(xc)   XCENC  =       658.02301025
  PAW double counting   =    156295.49089643  -156153.96802933
  entropy T*S    EENTRO =        -0.00000000
  eigenvalues    EBANDS =     -2760.52148256
  atomic energy  EATOM  =      8369.52358910
  ---------------------------------------------------
  free energy    TOTEN  =      -522.99317370 eV

  energy without entropy =     -522.99317370  energy(sigma->0) =     -522.99317370


--------------------------------------------------------------------------------------------------------




--------------------------------------- Iteration      1(  10)  ---------------------------------------


    POTLOK:  cpu time    1.6890: real time    1.6994
    SETDIJ:  cpu time    0.2019: real time    0.2029
    TRIAL :  cpu time   20.0735: real time   20.2309
    CORREC:  cpu time    8.9765: real time    9.0463
    CHARGE:  cpu time    2.9970: real time    3.0188
    --------------------------------------------
      LOOP:  cpu time   33.9728: real time   34.2850

 eigenvalue-minimisations  :     0
 total energy-change (2. order) :-0.1917287E+00  (-0.8347944E-01)
 number of electron     216.0000000 magnetization 
 augmentation part       -0.5344523 magnetization 

 Free energy of the ion-electron system (eV)
  ---------------------------------------------------
  alpha Z        PSCENC =        47.94900195
  Ewald energy   TEWEN  =     42432.44515335
  -Hartree energ DENC   =    -49411.26470572
  -exchange      EXHF   =         0.00000000
  -V(xc)+E(xc)   XCENC  =       657.92493293
  PAW double counting   =    160223.05398644  -160081.48069690
  entropy T*S    EENTRO =        -0.00000000
  eigenvalues    EBANDS =     -2761.33616357
  atomic energy  EATOM  =      8369.52358910
  ---------------------------------------------------
  free energy    TOTEN  =      -523.18490240 eV

  energy without entropy =     -523.18490240  energy(sigma->0) =     -523.18490240


--------------------------------------------------------------------------------------------------------




--------------------------------------- Iteration      1(  11)  ---------------------------------------


    POTLOK:  cpu time    1.6903: real time    1.7002
    SETDIJ:  cpu time    0.1963: real time    0.1972
    TRIAL :  cpu time   20.0614: real time   20.2170
    CORREC:  cpu time    8.9695: real time    9.0332
    CHARGE:  cpu time    2.9876: real time    3.0096
    --------------------------------------------
      LOOP:  cpu time   33.9762: real time   34.2324

 eigenvalue-minimisations  :     0
 total energy-change (2. order) :-0.8330189E-01  (-0.3233943E-01)
 number of electron     216.0000000 magnetization 
 augmentation part       -0.5306503 magnetization 

 Free energy of the ion-electron system (eV)
  ---------------------------------------------------
  alpha Z        PSCENC =        47.94900195
  Ewald energy   TEWEN  =     42432.44515335
  -Hartree energ DENC   =    -49405.38593356
  -exchange      EXHF   =         0.00000000
  -V(xc)+E(xc)   XCENC  =       657.85809296
  PAW double counting   =    160844.07194547  -160702.51902472
  entropy T*S    EENTRO =        -0.00000000
  eigenvalues    EBANDS =     -2767.21102884
  atomic energy  EATOM  =      8369.52358910
  ---------------------------------------------------
  free energy    TOTEN  =      -523.26820429 eV

  energy without entropy =     -523.26820429  energy(sigma->0) =     -523.26820429


--------------------------------------------------------------------------------------------------------




--------------------------------------- Iteration      1(  12)  ---------------------------------------


    POTLOK:  cpu time    1.6945: real time    1.7044
    SETDIJ:  cpu time    0.1965: real time    0.1973
    TRIAL :  cpu time   20.0330: real time   20.1895
    CORREC:  cpu time    8.9877: real time    9.0539
    CHARGE:  cpu time    2.9893: real time    3.0147
    --------------------------------------------
      LOOP:  cpu time   33.9588: real time   34.2289

 eigenvalue-minimisations  :     0
 total energy-change (2. order) :-0.3229379E-01  (-0.1003618E-01)
 number of electron     216.0000000 magnetization 
 augmentation part       -0.5303572 magnetization 

 Free energy of the ion-electron system (eV)
  ---------------------------------------------------
  alpha Z        PSCENC =        47.94900195
  Ewald energy   TEWEN  =     42432.44515335
  -Hartree energ DENC   =    -49400.80035126
  -exchange      EXHF   =         0.00000000
  -V(xc)+E(xc)   XCENC  =       657.78856659
  PAW double counting   =    160221.38341174  -160079.85704589
  entropy T*S    EENTRO =        -0.00000000
  eigenvalues    EBANDS =     -2771.73282367
  atomic energy  EATOM  =      8369.52358910
  ---------------------------------------------------
  free energy    TOTEN  =      -523.30049808 eV

  energy without entropy =     -523.30049808  energy(sigma->0) =     -523.30049808


--------------------------------------------------------------------------------------------------------




--------------------------------------- Iteration      1(  13)  ---------------------------------------


    POTLOK:  cpu time    1.6956: real time    1.7093
    SETDIJ:  cpu time    0.1904: real time    0.1912
    TRIAL :  cpu time   20.0629: real time   20.2213
    CORREC:  cpu time    8.9794: real time    9.0416
    CHARGE:  cpu time    2.9947: real time    3.0164
    --------------------------------------------
      LOOP:  cpu time   33.9600: real time   34.2230

 eigenvalue-minimisations  :     0
 total energy-change (2. order) :-0.1001803E-01  (-0.2822110E-02)
 number of electron     216.0000000 magnetization 
 augmentation part       -0.5308824 magnetization 

 Free energy of the ion-electron system (eV)
  ---------------------------------------------------
  alpha Z        PSCENC =        47.94900195
  Ewald energy   TEWEN  =     42432.44515335
  -Hartree energ DENC   =    -49399.52739133
  -exchange      EXHF   =         0.00000000
  -V(xc)+E(xc)   XCENC  =       657.74234695
  PAW double counting   =    159496.14178409  -159354.62015976
  entropy T*S    EENTRO =        -0.00000000
  eigenvalues    EBANDS =     -2772.96484048
  atomic energy  EATOM  =      8369.52358910
  ---------------------------------------------------
  free energy    TOTEN  =      -523.31051611 eV

  energy without entropy =     -523.31051611  energy(sigma->0) =     -523.31051611


--------------------------------------------------------------------------------------------------------




--------------------------------------- Iteration      1(  14)  ---------------------------------------


    POTLOK:  cpu time    1.6978: real time    1.7075
    SETDIJ:  cpu time    0.1976: real time    0.1983
    TRIAL :  cpu time   20.0661: real time   20.2330
    CORREC:  cpu time    8.9635: real time    9.0280
    CHARGE:  cpu time    2.9966: real time    3.0183
    --------------------------------------------
      LOOP:  cpu time   33.9893: real time   34.2563

 eigenvalue-minimisations  :     0
 total energy-change (2. order) :-0.2811252E-02  (-0.7968328E-03)
 number of electron     216.0000000 magnetization 
 augmentation part       -0.5312053 magnetization 

 Free energy of the ion-electron system (eV)
  ---------------------------------------------------
  alpha Z        PSCENC =        47.94900195
  Ewald energy   TEWEN  =     42432.44515335
  -Hartree energ DENC   =    -49399.65500388
  -exchange      EXHF   =         0.00000000
  -V(xc)+E(xc)   XCENC  =       657.73131963
  PAW double counting   =    159067.48971708  -158925.96681544
  entropy T*S    EENTRO =        -0.00000000
  eigenvalues    EBANDS =     -2772.83028916
  atomic energy  EATOM  =      8369.52358910
  ---------------------------------------------------
  free energy    TOTEN  =      -523.31332737 eV

  energy without entropy =     -523.31332737  energy(sigma->0) =     -523.31332737


--------------------------------------------------------------------------------------------------------




--------------------------------------- Iteration      1(  15)  ---------------------------------------


    POTLOK:  cpu time    1.6917: real time    1.7017
    SETDIJ:  cpu time    0.1958: real time    0.1965
    TRIAL :  cpu time   20.0692: real time   20.2341
    CORREC:  cpu time    8.9804: real time    9.0560
    CHARGE:  cpu time    3.0043: real time    3.0263
    --------------------------------------------
      LOOP:  cpu time   33.9983: real time   34.2746

 eigenvalue-minimisations  :     0
 total energy-change (2. order) :-0.7914098E-03  (-0.2332789E-03)
 number of electron     216.0000000 magnetization 
 augmentation part       -0.5314273 magnetization 

 Free energy of the ion-electron system (eV)
  ---------------------------------------------------
  alpha Z        PSCENC =        47.94900195
  Ewald energy   TEWEN  =     42432.44515335
  -Hartree energ DENC   =    -49399.57707081
  -exchange      EXHF   =         0.00000000
  -V(xc)+E(xc)   XCENC  =       657.72505249
  PAW double counting   =    158855.35588509  -158713.83168878
  entropy T*S    EENTRO =        -0.00000000
  eigenvalues    EBANDS =     -2772.90404117
  atomic energy  EATOM  =      8369.52358910
  ---------------------------------------------------
  free energy    TOTEN  =      -523.31411878 eV

  energy without entropy =     -523.31411878  energy(sigma->0) =     -523.31411878


--------------------------------------------------------------------------------------------------------




--------------------------------------- Iteration      1(  16)  ---------------------------------------


    POTLOK:  cpu time    1.6953: real time    1.7050
    SETDIJ:  cpu time    0.1899: real time    0.1906
    TRIAL :  cpu time   20.0191: real time   20.1939
    CORREC:  cpu time    8.9749: real time    9.0377
    CHARGE:  cpu time    2.9976: real time    3.0205
    --------------------------------------------
      LOOP:  cpu time   33.9434: real time   34.2199

 eigenvalue-minimisations  :     0
 total energy-change (2. order) :-0.2310374E-03  (-0.8488206E-04)
 number of electron     216.0000000 magnetization 
 augmentation part       -0.5315289 magnetization 

 Free energy of the ion-electron system (eV)
  ---------------------------------------------------
  alpha Z        PSCENC =        47.94900195
  Ewald energy   TEWEN  =     42432.44515335
  -Hartree energ DENC   =    -49399.48345722
  -exchange      EXHF   =         0.00000000
  -V(xc)+E(xc)   XCENC  =       657.71954103
  PAW double counting   =    158738.54857046  -158597.02272991
  entropy T*S    EENTRO =        -0.00000000
  eigenvalues    EBANDS =     -2772.99401859
  atomic energy  EATOM  =      8369.52358910
  ---------------------------------------------------
  free energy    TOTEN  =      -523.31434981 eV

  energy without entropy =     -523.31434981  energy(sigma->0) =     -523.31434981


--------------------------------------------------------------------------------------------------------




--------------------------------------- Iteration      1(  17)  ---------------------------------------


    POTLOK:  cpu time    1.6916: real time    1.7022
    SETDIJ:  cpu time    0.1944: real time    0.1950
    TRIAL :  cpu time   20.0321: real time   20.2070
    CORREC:  cpu time    8.9596: real time    9.0245
    CHARGE:  cpu time    2.9971: real time    3.0204
    --------------------------------------------
      LOOP:  cpu time   33.9456: real time   34.2266

 eigenvalue-minimisations  :     0
 total energy-change (2. order) :-0.8358649E-04  (-0.3457823E-04)
 number of electron     216.0000000 magnetization 
 augmentation part       -0.5315728 magnetization 

 Free energy of the ion-electron system (eV)
  ---------------------------------------------------
  alpha Z        PSCENC =        47.94900195
  Ewald energy   TEWEN  =     42432.44515335
  -Hartree energ DENC   =    -49399.64405025
  -exchange      EXHF   =         0.00000000
  -V(xc)+E(xc)   XCENC  =       657.72607776
  PAW double counting   =    158666.59328677  -158525.06728597
  entropy T*S    EENTRO =        -0.00000000
  eigenvalues    EBANDS =     -2772.84020612
  atomic energy  EATOM  =      8369.52358910
  ---------------------------------------------------
  free energy    TOTEN  =      -523.31443340 eV

  energy without entropy =     -523.31443340  energy(sigma->0) =     -523.31443340


--------------------------------------------------------------------------------------------------------




--------------------------------------- Iteration      1(  18)  ---------------------------------------


    POTLOK:  cpu time    1.6922: real time    1.7048
    SETDIJ:  cpu time    0.1926: real time    0.1932
    TRIAL :  cpu time   20.0436: real time   20.2087
    CORREC:  cpu time    8.9666: real time    9.0305
    CHARGE:  cpu time    2.9893: real time    3.0138
    --------------------------------------------
      LOOP:  cpu time   33.9526: real time   34.2487

 eigenvalue-minimisations  :     0
 total energy-change (2. order) :-0.3474997E-04  (-0.1296318E-04)
 number of electron     216.0000000 magnetization 
 augmentation part       -0.5315918 magnetization 

 Free energy of the ion-electron system (eV)
  ---------------------------------------------------
  alpha Z        PSCENC =        47.94900195
  Ewald energy   TEWEN  =     42432.44515335
  -Hartree energ DENC   =    -49399.71473235
  -exchange      EXHF   =         0.00000000
  -V(xc)+E(xc)   XCENC  =       657.72868545
  PAW double counting   =    158641.28331813  -158499.75704814
  entropy T*S    EENTRO =        -0.00000000
  eigenvalues    EBANDS =     -2772.77243565
  atomic energy  EATOM  =      8369.52358910
  ---------------------------------------------------
  free energy    TOTEN  =      -523.31446815 eV

  energy without entropy =     -523.31446815  energy(sigma->0) =     -523.31446815


--------------------------------------------------------------------------------------------------------




--------------------------------------- Iteration      1(  19)  ---------------------------------------


    POTLOK:  cpu time    1.6963: real time    1.7061
    SETDIJ:  cpu time    0.1944: real time    0.1951
    TRIAL :  cpu time   20.0692: real time   20.2338
    CORREC:  cpu time    8.9724: real time    9.0351
    CHARGE:  cpu time    2.9960: real time    3.0174
    --------------------------------------------
      LOOP:  cpu time   33.9864: real time   34.2515

 eigenvalue-minimisations  :     0
 total energy-change (2. order) :-0.1338276E-04  (-0.4854562E-05)
 number of electron     216.0000000 magnetization 
 augmentation part       -0.5315870 magnetization 

 Free energy of the ion-electron system (eV)
  ---------------------------------------------------
  alpha Z        PSCENC =        47.94900195
  Ewald energy   TEWEN  =     42432.44515335
  -Hartree energ DENC   =    -49399.70810907
  -exchange      EXHF   =         0.00000000
  -V(xc)+E(xc)   XCENC  =       657.72817035
  PAW double counting   =    158647.88040238  -158506.35385371
  entropy T*S    EENTRO =        -0.00000000
  eigenvalues    EBANDS =     -2772.77883588
  atomic energy  EATOM  =      8369.52358910
  ---------------------------------------------------
  free energy    TOTEN  =      -523.31448153 eV

  energy without entropy =     -523.31448153  energy(sigma->0) =     -523.31448153


--------------------------------------------------------------------------------------------------------




--------------------------------------- Iteration      1(  20)  ---------------------------------------


    POTLOK:  cpu time    1.7177: real time    1.7278
    SETDIJ:  cpu time    0.1708: real time    0.1715
    TRIAL :  cpu time   20.0690: real time   20.2200
    CORREC:  cpu time    8.9682: real time    9.0463
    CHARGE:  cpu time    3.0022: real time    3.0237
    --------------------------------------------
      LOOP:  cpu time   33.9716: real time   34.2606

 eigenvalue-minimisations  :     0
 total energy-change (2. order) :-0.4999631E-05  (-0.1749342E-05)
 number of electron     216.0000000 magnetization 
 augmentation part       -0.5315795 magnetization 

 Free energy of the ion-electron system (eV)
  ---------------------------------------------------
  alpha Z        PSCENC =        47.94900195
  Ewald energy   TEWEN  =     42432.44515335
  -Hartree energ DENC   =    -49399.72986207
  -exchange      EXHF   =         0.00000000
  -V(xc)+E(xc)   XCENC  =       657.72906845
  PAW double counting   =    158661.88351392  -158520.35704377
  entropy T*S    EENTRO =        -0.00000000
  eigenvalues    EBANDS =     -2772.75790748
  atomic energy  EATOM  =      8369.52358910
  ---------------------------------------------------
  free energy    TOTEN  =      -523.31448653 eV

  energy without entropy =     -523.31448653  energy(sigma->0) =     -523.31448653


--------------------------------------------------------------------------------------------------------




--------------------------------------- Iteration      1(  21)  ---------------------------------------


    POTLOK:  cpu time    1.6884: real time    1.7174
    SETDIJ:  cpu time    0.1849: real time    0.1856
    TRIAL :  cpu time   20.0611: real time   20.2128
    CORREC:  cpu time    8.9588: real time    9.0293
    CHARGE:  cpu time    2.9943: real time    3.0170
    --------------------------------------------
      LOOP:  cpu time   33.9449: real time   34.2309

 eigenvalue-minimisations  :     0
 total energy-change (2. order) :-0.1777662E-05  (-0.6498541E-06)
 number of electron     216.0000000 magnetization 
 augmentation part       -0.5315666 magnetization 

 Free energy of the ion-electron system (eV)
  ---------------------------------------------------
  alpha Z        PSCENC =        47.94900195
  Ewald energy   TEWEN  =     42432.44515335
  -Hartree energ DENC   =    -49399.73597343
  -exchange      EXHF   =         0.00000000
  -V(xc)+E(xc)   XCENC  =       657.72907909
  PAW double counting   =    158673.02851952  -158531.50209488
  entropy T*S    EENTRO =        -0.00000000
  eigenvalues    EBANDS =     -2772.75176301
  atomic energy  EATOM  =      8369.52358910
  ---------------------------------------------------
  free energy    TOTEN  =      -523.31448831 eV

  energy without entropy =     -523.31448831  energy(sigma->0) =     -523.31448831


--------------------------------------------------------------------------------------------------------




--------------------------------------- Iteration      1(  22)  ---------------------------------------


    POTLOK:  cpu time    1.6954: real time    1.7054
    SETDIJ:  cpu time    0.1899: real time    0.1906
    TRIAL :  cpu time   20.0348: real time   20.1941
    CORREC:  cpu time    8.9676: real time    9.0327
    CHARGE:  cpu time    3.0050: real time    3.0265
    --------------------------------------------
      LOOP:  cpu time   33.9234: real time   34.1814

 eigenvalue-minimisations  :     0
 total energy-change (2. order) :-0.6356568E-06  (-0.3192002E-06)
 number of electron     216.0000000 magnetization 
 augmentation part       -0.5315558 magnetization 

 Free energy of the ion-electron system (eV)
  ---------------------------------------------------
  alpha Z        PSCENC =        47.94900195
  Ewald energy   TEWEN  =     42432.44515335
  -Hartree energ DENC   =    -49399.73133936
  -exchange      EXHF   =         0.00000000
  -V(xc)+E(xc)   XCENC  =       657.72889563
  PAW double counting   =    158679.14070072  -158537.61435537
  entropy T*S    EENTRO =        -0.00000000
  eigenvalues    EBANDS =     -2772.75613498
  atomic energy  EATOM  =      8369.52358910
  ---------------------------------------------------
  free energy    TOTEN  =      -523.31448895 eV

  energy without entropy =     -523.31448895  energy(sigma->0) =     -523.31448895


--------------------------------------------------------------------------------------------------------




--------------------------------------- Iteration      1(  23)  ---------------------------------------


    POTLOK:  cpu time    1.6940: real time    1.7037
    SETDIJ:  cpu time    0.1903: real time    0.1910
    TRIAL :  cpu time   20.0305: real time   20.2059
    CORREC:  cpu time    8.9728: real time    9.0345
    CHARGE:  cpu time    3.0087: real time    3.0310
    --------------------------------------------
      LOOP:  cpu time   33.9446: real time   34.2155

 eigenvalue-minimisations  :     0
 total energy-change (2. order) :-0.2514862E-06  (-0.2596497E-06)
 number of electron     216.0000000 magnetization 
 augmentation part       -0.5315559 magnetization 

 Free energy of the ion-electron system (eV)
  ---------------------------------------------------
  alpha Z        PSCENC =        47.94900195
  Ewald energy   TEWEN  =     42432.44515335
  -Hartree energ DENC   =    -49399.72741206
  -exchange      EXHF   =         0.00000000
  -V(xc)+E(xc)   XCENC  =       657.72882160
  PAW double counting   =    158682.46939925  -158540.94312977
  entropy T*S    EENTRO =        -0.00000000
  eigenvalues    EBANDS =     -2772.75991263
  atomic energy  EATOM  =      8369.52358910
  ---------------------------------------------------
  free energy    TOTEN  =      -523.31448920 eV

  energy without entropy =     -523.31448920  energy(sigma->0) =     -523.31448920


--------------------------------------------------------------------------------------------------------




--------------------------------------- Iteration      1(  24)  ---------------------------------------


    POTLOK:  cpu time    1.6912: real time    1.7011
    SETDIJ:  cpu time    0.1968: real time    0.1974
    TRIAL :  cpu time   20.0470: real time   20.2097
    CORREC:  cpu time    8.9697: real time    9.0344
    CHARGE:  cpu time    2.9925: real time    3.0136
    --------------------------------------------
      LOOP:  cpu time   33.9878: real time   34.2503

 eigenvalue-minimisations  :     0
 total energy-change (2. order) : 0.1457520E-06  (-0.2574241E-06)
 number of electron     216.0000000 magnetization 
 augmentation part       -0.5315546 magnetization 

 Free energy of the ion-electron system (eV)
  ---------------------------------------------------
  alpha Z        PSCENC =        47.94900195
  Ewald energy   TEWEN  =     42432.44515335
  -Hartree energ DENC   =    -49399.71983973
  -exchange      EXHF   =         0.00000000
  -V(xc)+E(xc)   XCENC  =       657.72852389
  PAW double counting   =    158685.50755057  -158543.98128845
  entropy T*S    EENTRO =        -0.00000000
  eigenvalues    EBANDS =     -2772.76717974
  atomic energy  EATOM  =      8369.52358910
  ---------------------------------------------------
  free energy    TOTEN  =      -523.31448905 eV

  energy without entropy =     -523.31448905  energy(sigma->0) =     -523.31448905


--------------------------------------------------------------------------------------------------------




--------------------------------------- Iteration      1(  25)  ---------------------------------------


    POTLOK:  cpu time    1.6917: real time    1.7014
    SETDIJ:  cpu time    0.1946: real time    0.1952
    TRIAL :  cpu time   20.0741: real time   20.2209
    CORREC:  cpu time    8.8418: real time    8.9043
    CHARGE:  cpu time    3.0025: real time    3.0234
    --------------------------------------------
      LOOP:  cpu time   33.8459: real time   34.1145

 eigenvalue-minimisations  :     0
 total energy-change (2. order) :-0.2237211E-06  ( 0.1890446E-04)
 number of electron     216.0000000 magnetization 
 augmentation part       -0.5315593 magnetization 

 Free energy of the ion-electron system (eV)
  ---------------------------------------------------
  alpha Z        PSCENC =        47.94900195
  Ewald energy   TEWEN  =     42432.44515335
  -Hartree energ DENC   =    -49399.72327847
  -exchange      EXHF   =         0.00000000
  -V(xc)+E(xc)   XCENC  =       657.72880274
  PAW double counting   =    158684.83647139  -158543.31024540
  entropy T*S    EENTRO =        -0.00000000
  eigenvalues    EBANDS =     -2772.76398393
  atomic energy  EATOM  =      8369.52358910
  ---------------------------------------------------
  free energy    TOTEN  =      -523.31448927 eV

  energy without entropy =     -523.31448927  energy(sigma->0) =     -523.31448927


--------------------------------------------------------------------------------------------------------




--------------------------------------- Iteration      1(  26)  ---------------------------------------


    POTLOK:  cpu time    1.6933: real time    1.7031
    SETDIJ:  cpu time    0.2137: real time    0.2144
    TRIAL :  cpu time   20.0616: real time   20.2152
    CORREC:  cpu time    8.8653: real time    8.9298
    EDDIAG:  cpu time    4.1716: real time    4.2034
    CHARGE:  cpu time    3.0012: real time    3.0232
    --------------------------------------------
      LOOP:  cpu time   38.0812: real time   38.3664

 eigenvalue-minimisations  :     0
 total energy-change (2. order) :-0.5593756E-07  ( 0.6342291E-08)
 number of electron     216.0000000 magnetization 
 augmentation part       -0.5315607 magnetization 

 Free energy of the ion-electron system (eV)
  ---------------------------------------------------
  alpha Z        PSCENC =        47.94900195
  Ewald energy   TEWEN  =     42432.44515335
  -Hartree energ DENC   =    -49399.72146208
  -exchange      EXHF   =         0.00000000
  -V(xc)+E(xc)   XCENC  =       657.72863197
  PAW double counting   =    158684.18320712  -158542.65693266
  entropy T*S    EENTRO =        -0.00000000
  eigenvalues    EBANDS =     -2772.76567808
  atomic energy  EATOM  =      8369.52358910
  ---------------------------------------------------
  free energy    TOTEN  =      -523.31448933 eV

  energy without entropy =     -523.31448933  energy(sigma->0) =     -523.31448933


--------------------------------------------------------------------------------------------------------


  average scaling for gradient   0.8570


 average (electrostatic) potential at core
  the test charge radii are     0.5770  0.5955
  (the norm of the test charge is              1.0000)
       1 -87.9774       2 -87.9767       3 -87.9775       4 -87.9782       5 -87.9759
       6 -87.9757       7 -87.9774       8 -87.9761       9 -87.9765      10 -87.9770
      11 -87.9756      12 -87.9757      13 -87.9768      14 -87.9763      15 -87.9756
      16 -87.9759      17 -87.9764      18 -87.9769      19 -87.9771      20 -87.9764
      21 -87.9756      22 -87.9754      23 -87.9785      24 -87.9784      25 -87.9755
      26 -87.9757      27 -87.9765      28 -87.9775      29 -87.9755      30 -87.9755
      31 -87.9777      32 -87.9771      33 -87.9760      34 -87.9758      35 -87.9758
      36 -87.9760      37 -87.9766      38 -87.9770      39 -87.9769      40 -87.9769
      41 -87.9769      42 -87.9771      43 -87.9765      44 -87.9773      45 -87.9756
      46 -87.9758      47 -87.9758      48 -87.9756      49 -87.9770      50 -87.9766
      51 -91.8730      52-124.2561      53-124.2554
 
 
 
 E-fermi :  -4.4557     XC(G=0):  -1.8848     alpha+bet : -1.6890

 Fermi energy:        -4.4556702204

 k-point     1 :       0.0000    0.0000    0.0000
  band No.  band energies     occupation 
      1     -29.1528      2.00000
      2     -28.0442      2.00000
      3     -23.6832      2.00000
      4     -22.6909      2.00000
      5     -22.6896      2.00000
      6     -22.6893      2.00000
      7     -22.6890      2.00000
      8     -22.6888      2.00000
      9     -22.6886      2.00000
     10     -20.7437      2.00000
     11     -20.7437      2.00000
     12     -20.7434      2.00000
     13     -20.7427      2.00000
     14     -20.7423      2.00000
     15     -20.7420      2.00000
     16     -19.8010      2.00000
     17     -19.8008      2.00000
     18     -19.8004      2.00000
     19     -19.8001      2.00000
     20     -19.7994      2.00000
     21     -19.7991      2.00000
     22     -17.5604      2.00000
     23     -17.5600      2.00000
     24     -17.5592      2.00000
     25     -17.5590      2.00000
     26     -17.5586      2.00000
     27     -17.5585      2.00000
     28     -16.3920      2.00000
     29     -16.3920      2.00000
     30     -16.3910      2.00000
     31     -16.3908      2.00000
     32     -16.3904      2.00000
     33     -16.3903      2.00000
     34     -14.9851      2.00000
     35     -14.9850      2.00000
     36     -14.9844      2.00000
     37     -14.9842      2.00000
     38     -14.9841      2.00000
     39     -14.9839      2.00000
     40     -13.2133      2.00000
     41     -12.4933      2.00000
     42     -12.4930      2.00000
     43     -12.4925      2.00000
     44     -12.4925      2.00000
     45     -12.4913      2.00000
     46     -12.4910      2.00000
     47     -12.2857      2.00000
     48     -12.2856      2.00000
     49     -12.2849      2.00000
     50     -12.2849      2.00000
     51     -12.2846      2.00000
     52     -12.2845      2.00000
     53     -11.8680      2.00000
     54     -11.6730      2.00000
     55     -11.6729      2.00000
     56     -10.9766      2.00000
     57     -10.8232      2.00000
     58     -10.8230      2.00000
     59     -10.8214      2.00000
     60     -10.8210      2.00000
     61     -10.8209      2.00000
     62     -10.8208      2.00000
     63      -9.7999      2.00000
     64      -9.7993      2.00000
     65      -9.7992      2.00000
     66      -9.7983      2.00000
     67      -9.7981      2.00000
     68      -9.7980      2.00000
     69      -9.4913      2.00000
     70      -9.4906      2.00000
     71      -9.4901      2.00000
     72      -9.4900      2.00000
     73      -9.4895      2.00000
     74      -9.4894      2.00000
     75      -9.4850      2.00000
     76      -9.4847      2.00000
     77      -9.4840      2.00000
     78      -9.4837      2.00000
     79      -9.4837      2.00000
     80      -9.4829      2.00000
     81      -8.0354      2.00000
     82      -8.0353      2.00000
     83      -7.7466      2.00000
     84      -7.7449      2.00000
     85      -7.7447      2.00000
     86      -7.7443      2.00000
     87      -7.7432      2.00000
     88      -7.7432      2.00000
     89      -7.5519      2.00000
     90      -7.5516      2.00000
     91      -7.5514      2.00000
     92      -7.5510      2.00000
     93      -7.5508      2.00000
     94      -7.5505      2.00000
     95      -6.6066      2.00000
     96      -6.6064      2.00000
     97      -6.6060      2.00000
     98      -6.6058      2.00000
     99      -6.6053      2.00000
    100      -6.6051      2.00000
    101      -6.1745      2.00000
    102      -6.1722      2.00000
    103      -4.5070      2.00000
    104      -4.5066      2.00000
    105      -4.5061      2.00000
    106      -4.5060      2.00000
    107      -4.5053      2.00000
    108      -4.5051      2.00000
    109      -1.5132      0.00000
    110      -1.5129      0.00000
    111      -1.5125      0.00000
    112      -1.5123      0.00000
    113      -1.5117      0.00000
    114      -1.5114      0.00000
    115       0.4786      0.00000
    116       0.4790      0.00000
    117       0.4795      0.00000
    118       0.4796      0.00000
    119       0.4797      0.00000
    120       0.4814      0.00000
    121       0.6849      0.00000
    122       1.0085      0.00000
    123       1.1855      0.00000
    124       1.1858      0.00000
    125       1.4575      0.00000
    126       1.7677      0.00000
    127       2.0199      0.00000
    128       2.0272      0.00000
    129       2.0384      0.00000
    130       2.0470      0.00000
    131       2.0516      0.00000
    132       2.0538      0.00000
    133       2.1856      0.00000
    134       2.3460      0.00000
    135       2.3462      0.00000
    136       2.3466      0.00000
    137       2.3470      0.00000
    138       2.3472      0.00000
    139       2.3476      0.00000
    140       2.4291      0.00000
    141       2.5980      0.00000
    142       2.7018      0.00000
    143       2.7181      0.00000
    144       2.7301      0.00000
    145       2.7398      0.00000
    146       2.7426      0.00000
    147       2.7835      0.00000
    148       2.7910      0.00000
    149       2.8117      0.00000
    150       2.8196      0.00000
    151       2.8197      0.00000
    152       3.1621      0.00000
    153       3.5596      0.00000
    154       3.5889      0.00000
    155       3.6718      0.00000
    156       3.8101      0.00000
    157       3.9608      0.00000
    158       4.0322      0.00000
    159       4.1095      0.00000
    160       4.1651      0.00000
    161       4.3360      0.00000
    162       4.4402      0.00000
    163       4.8156      0.00000
    164       4.8629      0.00000
    165       4.8734      0.00000
    166       4.8770      0.00000
    167       4.8792      0.00000
    168       4.8852      0.00000


--------------------------------------------------------------------------------------------------------


 soft charge-density along one line, spin component           1
         0         1         2         3         4         5         6         7         8         9
 total charge-density along one line
 
 pseudopotential strength for first ion, spin component:           1
 12.639  21.266   0.000   0.000   0.000   0.000   0.000   0.000
 21.266  35.783   0.000   0.000   0.000   0.000   0.000   0.000
  0.000   0.000  -3.235  -0.000   0.000  -5.794   0.000   0.000
  0.000   0.000  -0.000  -3.235  -0.000   0.000  -5.793  -0.000
  0.000   0.000   0.000  -0.000  -3.235   0.000  -0.000  -5.794
  0.000   0.000  -5.794   0.000   0.000 -10.354   0.000   0.000
  0.000   0.000   0.000  -5.793  -0.000   0.000 -10.352  -0.000
  0.000   0.000   0.000  -0.000  -5.794   0.000  -0.000 -10.354
 total augmentation occupancy for first ion, spin component:           1
 10.264  -3.894  -0.000  -0.002  -0.000   0.000   0.001   0.000
 -3.894   1.507   0.000   0.001   0.000  -0.000  -0.000  -0.000
 -0.000   0.000   8.468  -0.009   0.000  -3.024   0.003  -0.000
 -0.002   0.001  -0.009   4.016  -0.000   0.003  -1.207   0.000
 -0.000   0.000   0.000  -0.000   8.468  -0.000   0.000  -3.024
  0.000  -0.000  -3.024   0.003  -0.000   1.093  -0.001   0.000
  0.001  -0.000   0.003  -1.207   0.000  -0.001   0.368  -0.000
  0.000  -0.000  -0.000   0.000  -3.024   0.000  -0.000   1.093


------------------------ aborting loop because EDIFF is reached ----------------------------------------


    FORLOC:  cpu time    0.1367: real time    0.1377
    FORNL :  cpu time    3.8323: real time    3.8647
    FORCOR:  cpu time    1.6249: real time    1.6341
    OFIELD:  cpu time    0.0029: real time    0.0030
 WARNING: Using user supplied parameters
     VDW_A1 = 0.495
     VDW_A2 = 5.731
     VDW_S8 = 0.79
     because the xc functional is not supported. Required parameters not
     defined in the INCAR file will be replaced with PBE defaults ones.


 ---------------------------------------------------------------------------------------------

         DFTD3 V3.0 Rev 1        
 IVDW         = 12
 DF unknown   
 parameters
 VDW_S6       =    1.0000
 VDW_S8       =    0.7898
 VDW_A1       =    0.4948
 VDW_A2       =    5.7308
 k1-k3        =   16.0000    1.3333   -4.0000
 VDW_RADIUS   =   50.2022 A
 VDW_CNRADIUS =   21.1671 A
 Edisp (eV)   -1.69557

 E6    (eV) :    -1.3094
 E8    (eV) :    -0.3861
 % E8        : 22.77
    FORVDW:  cpu time    0.1396: real time    0.1410

 VOLUME and BASIS-vectors are now :
 -----------------------------------------------------------------------------
  energy-cutoff  :     1000.00
  volume of cell :     3288.85
      direct lattice vectors                 reciprocal lattice vectors
    12.325000000  0.000000000  0.000000000     0.081135903  0.046843835  0.000000000
    -6.162500000 10.673763102  0.000000000     0.000000000  0.093687670  0.000000000
     0.000000000  0.000000000 25.000000000     0.000000000  0.000000000  0.040000000

  length of vectors
    12.325000000 12.325000000 25.000000000     0.093687670  0.093687670  0.040000000


 FORCES acting on ions:
    Electron-Ion                     Ewald-Force                    Non-Local-Force
 -----------------------------------------------------------------------------------------------
   0.138E+01 0.121E+01 0.181E+02   -.138E+01 -.121E+01 -.181E+02   0.533E-02 -.825E-03 0.653E-02
   0.192E+01 0.983E+00 0.196E+02   -.193E+01 -.979E+00 -.196E+02   0.408E-02 -.358E-02 -.587E-02
   0.782E+00 0.213E+01 0.201E+02   -.783E+00 -.213E+01 -.201E+02   -.423E-03 0.123E-01 -.387E-03
   0.989E+00 0.143E+01 0.232E+02   -.987E+00 -.143E+01 -.232E+02   0.124E-01 0.760E-03 -.148E-01
   0.150E+01 0.371E+00 0.185E+02   -.149E+01 -.371E+00 -.185E+02   0.153E-03 -.584E-02 0.312E-02
   0.153E+01 -.327E+00 0.187E+02   -.153E+01 0.329E+00 -.187E+02   -.627E-02 0.301E-02 -.342E-02
   0.191E+01 0.742E+00 0.229E+02   -.191E+01 -.742E+00 -.229E+02   0.130E-01 -.198E-01 -.612E-02
   0.189E+01 -.649E+00 0.241E+02   -.190E+01 0.652E+00 -.240E+02   -.587E-02 -.635E-02 -.594E-02
   -.950E+00 0.199E+01 0.204E+02   0.954E+00 -.199E+01 -.204E+02   -.110E-02 -.122E-01 -.527E-02
   -.131E+01 0.111E+01 0.233E+02   0.131E+01 -.112E+01 -.233E+02   -.270E-01 0.156E-01 0.331E-02
   0.396E+00 -.409E+00 0.174E+02   -.393E+00 0.409E+00 -.174E+02   0.359E-02 -.266E-02 -.194E-03
   0.369E+00 -.310E+00 0.170E+02   -.368E+00 0.309E+00 -.170E+02   -.731E-02 0.353E-02 0.604E-02
   0.663E+00 -.153E+01 0.252E+02   -.665E+00 0.154E+01 -.251E+02   0.277E-01 -.858E-02 -.162E-02
   0.406E+00 -.220E+01 0.216E+02   -.411E+00 0.220E+01 -.216E+02   0.464E-02 0.594E-02 -.169E-01
   -.138E+01 0.835E+00 0.180E+02   0.138E+01 -.837E+00 -.180E+02   0.721E-02 -.386E-02 0.715E-02
   -.180E+01 0.522E+00 0.185E+02   0.180E+01 -.523E+00 -.185E+02   -.219E-02 0.563E-02 -.533E-02
   -.254E+00 -.102E+00 0.166E+02   0.258E+00 0.994E-01 -.166E+02   -.770E-03 0.752E-03 0.209E-02
   0.113E+00 0.870E+00 0.168E+02   -.112E+00 -.870E+00 -.168E+02   -.341E-02 0.196E-02 0.965E-02
   -.355E+00 -.212E+01 0.197E+02   0.355E+00 0.212E+01 -.197E+02   0.656E-02 -.213E-02 0.455E-03
   -.206E+00 -.128E+01 0.176E+02   0.202E+00 0.128E+01 -.176E+02   0.630E-03 -.131E-02 -.732E-03
   0.196E+01 -.852E+00 0.206E+02   -.196E+01 0.853E+00 -.205E+02   -.111E-02 -.271E-02 -.178E-01
   0.137E+01 -.111E+01 0.192E+02   -.138E+01 0.111E+01 -.192E+02   -.668E-02 0.515E-02 -.291E-02
   -.348E+00 0.626E+00 0.255E+02   0.344E+00 -.624E+00 -.255E+02   -.109E-01 0.107E-01 0.234E-02
   -.476E+00 -.984E+00 0.254E+02   0.477E+00 0.983E+00 -.254E+02   0.125E-01 -.156E-01 -.992E-02
   0.750E+00 -.280E+00 0.174E+02   -.748E+00 0.278E+00 -.174E+02   0.338E-02 -.245E-02 -.356E-02
   0.200E+00 0.646E+00 0.173E+02   -.200E+00 -.645E+00 -.173E+02   -.566E-02 0.372E-02 0.552E-02
   -.218E+01 0.266E+00 0.210E+02   0.218E+01 -.269E+00 -.210E+02   0.108E-01 0.831E-02 -.255E-02
   -.206E+01 -.828E+00 0.203E+02   0.207E+01 0.828E+00 -.203E+02   -.954E-02 0.936E-02 0.115E-02
   0.778E+00 -.158E+01 0.195E+02   -.779E+00 0.158E+01 -.195E+02   0.490E-02 0.200E-02 -.752E-02
   0.682E-01 -.697E+00 0.179E+02   -.707E-01 0.699E+00 -.179E+02   -.455E-02 0.244E-02 -.263E-02
   -.148E+01 -.151E+01 0.218E+02   0.148E+01 0.151E+01 -.218E+02   -.125E-01 -.823E-02 -.128E-01
   -.107E+01 -.201E+01 0.196E+02   0.107E+01 0.201E+01 -.196E+02   0.825E-03 -.169E-02 0.246E-02
   0.922E-01 0.416E+00 0.169E+02   -.927E-01 -.416E+00 -.169E+02   0.552E-02 -.487E-02 0.724E-02
   0.251E+00 0.386E+00 0.172E+02   -.255E+00 -.385E+00 -.172E+02   -.211E-02 0.446E-02 -.126E-02
   -.944E+00 0.170E+00 0.176E+02   0.947E+00 -.171E+00 -.176E+02   0.401E-02 -.237E-02 0.598E-02
   -.838E+00 -.377E+00 0.175E+02   0.838E+00 0.377E+00 -.175E+02   -.440E-02 0.250E-02 0.382E-02
   -.159E+01 -.850E+00 0.180E+02   0.160E+01 0.847E+00 -.180E+02   -.170E-02 0.119E-02 0.362E-02
   -.105E+01 -.841E+00 0.172E+02   0.105E+01 0.841E+00 -.173E+02   -.438E-02 0.136E-02 0.947E-02
   -.957E+00 -.121E+01 0.176E+02   0.957E+00 0.122E+01 -.176E+02   -.327E-02 0.298E-03 0.527E-02
   -.144E+00 -.332E+00 0.169E+02   0.145E+00 0.331E+00 -.169E+02   0.211E-02 0.572E-03 0.773E-02
   0.361E+00 0.905E+00 0.170E+02   -.361E+00 -.906E+00 -.170E+02   -.410E-02 0.208E-02 0.742E-02
   0.109E+01 0.167E+01 0.182E+02   -.109E+01 -.168E+01 -.182E+02   -.319E-03 -.653E-03 0.819E-02
   0.115E+00 0.150E+01 0.174E+02   -.111E+00 -.150E+01 -.174E+02   -.765E-03 0.128E-02 0.235E-02
   -.178E-01 0.220E+01 0.193E+02   0.195E-01 -.220E+01 -.193E+02   -.877E-02 0.245E-02 0.543E-02
   -.286E+00 0.535E+00 0.176E+02   0.288E+00 -.537E+00 -.176E+02   0.385E-02 -.289E-02 0.123E-02
   -.105E+01 0.131E+01 0.184E+02   0.106E+01 -.131E+01 -.184E+02   -.661E-02 0.644E-03 -.172E-02
   -.281E+00 -.657E+00 0.174E+02   0.280E+00 0.657E+00 -.174E+02   0.660E-02 -.146E-02 0.595E-02
   -.591E+00 0.211E+00 0.169E+02   0.589E+00 -.210E+00 -.169E+02   -.333E-02 0.330E-02 -.328E-02
   0.608E-01 -.405E+00 0.169E+02   -.616E-01 0.406E+00 -.169E+02   0.462E-02 -.323E-02 0.605E-02
   0.644E+00 0.460E+00 0.169E+02   -.648E+00 -.458E+00 -.169E+02   0.422E-03 0.159E-02 0.341E-02
   0.223E-02 0.222E-01 -.238E+03   -.657E-02 -.182E-01 0.238E+03   -.285E-02 0.180E-02 -.991E-03
   -.228E+03 0.155E+03 -.370E+03   0.279E+03 -.190E+03 0.374E+03   -.523E+02 0.356E+02 -.351E+01
   0.228E+03 -.155E+03 -.348E+03   -.279E+03 0.190E+03 0.345E+03   0.523E+02 -.356E+02 0.316E+01
 -----------------------------------------------------------------------------------------------
   -.787E-02 0.146E-01 0.357E+00   0.114E-12 -.114E-12 0.114E-12   0.757E-02 -.148E-01 -.353E+00
 
 
 POSITION                                       TOTAL-FORCE (eV/Angst)
 -----------------------------------------------------------------------------------
     11.98348      0.00342      0.01417         0.003406     -0.001853     -0.001374
     -0.34154      1.42665      0.01100        -0.001004     -0.000080     -0.003618
      2.12355      0.00315      0.01249        -0.002185      0.010797     -0.007153
      2.12326      1.42653      0.00641         0.013927      0.000952     -0.008406
     10.75099      2.13819      0.01213         0.000838     -0.005783     -0.000130
     -1.57382      3.56123      0.01110        -0.009350      0.004520     -0.001471
      0.89078      2.13854      0.00548         0.009704     -0.019523      0.003069
      0.89099      3.56147      0.00181        -0.012178     -0.002700      0.013752
      4.58864      0.00346      0.01135         0.003666     -0.016404     -0.003623
      4.58894      1.42623      0.00646        -0.023755      0.013456      0.015511
      9.51854      4.27281      0.01369         0.007081     -0.002922      0.000135
     -2.80632      5.69591      0.01434        -0.006951      0.003366      0.000670
      2.12300      4.27302      0.00000         0.025243     -0.004985      0.023173
      2.12335      5.69594      0.00581        -0.000659      0.009332     -0.002093
      7.05344      0.00333      0.01399         0.009434     -0.005674     -0.000566
      7.05353      1.42635      0.01368        -0.001671      0.005061     -0.004166
      8.28610      6.40752      0.01601         0.003237     -0.001246     -0.001066
     -4.03885      7.83070      0.01636        -0.002495      0.001007     -0.000442
      3.35586      6.40753      0.01007         0.005463      0.000705     -0.001227
      3.35599      7.83072      0.01320        -0.003096      0.000278     -0.000733
     -0.34146      4.27290      0.00723        -0.001721     -0.001287     -0.004235
     -0.34138      5.69591      0.00946        -0.009408      0.006525     -0.001005
      3.35624      2.13791      0.00222        -0.014545      0.012195      0.018141
      3.35573      3.56155      0.00139         0.014309     -0.016633      0.010228
     -1.57395      6.40758      0.01311         0.005662     -0.003961     -0.000611
     -1.57385      7.83068      0.01438        -0.005143      0.004012     -0.000152
      5.82093      2.13784      0.01033         0.016274      0.005021     -0.002950
      5.82114      3.56097      0.01156        -0.006280      0.008738     -0.004048
      0.89092      6.40755      0.00907         0.004610      0.002258     -0.002184
      0.89106      7.83068      0.01235        -0.006928      0.004240      0.000342
      4.58871      4.27293      0.00850        -0.013630     -0.006148     -0.011320
      4.58852      5.69606      0.01149         0.002477     -0.001370     -0.004342
      9.51845      0.00337      0.01490         0.005031     -0.004936     -0.000034
      9.51855      1.42644      0.01438        -0.005397      0.005514     -0.000481
      8.28593      2.13803      0.01453         0.007095     -0.003523      0.000392
      8.28613      3.56115      0.01464        -0.004583      0.002128     -0.000201
      7.05356      4.27269      0.01457         0.002909     -0.000936     -0.000966
      7.05362      5.69588      0.01553        -0.002575      0.001558     -0.000346
      5.82112      6.40755      0.01489        -0.003183      0.002042     -0.000300
      5.82102      7.83073      0.01579         0.003048      0.000272     -0.000586
      7.05363      8.54227      0.01631        -0.004820      0.001464      0.000799
     -5.27149      9.96549      0.01495         0.000289     -0.002154     -0.002704
     -2.80638      8.54234      0.01558         0.003316     -0.001556     -0.001586
     -2.80627      9.96553      0.01362        -0.007113      0.000020     -0.004380
     -0.34149      8.54239      0.01378         0.005898     -0.005277      0.000109
     -0.34138      9.96550      0.01354        -0.005894      0.000273     -0.001475
      2.12343      8.54232      0.01336         0.005957     -0.001801      0.000784
      2.12354      9.96544      0.01469        -0.005217      0.004231     -0.002102
      4.58846      8.54235      0.01505         0.003796     -0.002845      0.000806
      4.58853      9.96550      0.01517        -0.002784      0.003566     -0.000104
      3.04930      2.68154      7.07107        -0.007243      0.005832      0.037429
      4.02070      2.02068      7.13549        -1.425030      0.969220     -0.112554
      2.07767      3.34267      7.01161         1.432171     -0.974990      0.069393
 -----------------------------------------------------------------------------------
    total drift:                               -0.000306     -0.000191      0.004234


--------------------------------------------------------------------------------------------------------



  FREE ENERGIE OF THE ION-ELECTRON SYSTEM (eV)
  ---------------------------------------------------
  free  energy   TOTEN  =      -525.01005795 eV

  energy  without entropy=     -525.01005795  energy(sigma->0) =     -525.01005795
 


--------------------------------------------------------------------------------------------------------


    POTLOK:  cpu time    1.8841: real time    1.8943


--------------------------------------------------------------------------------------------------------


 writing wavefunctions
     LOOP+:  cpu time  925.2933: real time  933.0672
    4ORBIT:  cpu time    0.0000: real time    0.0000

 total amount of memory used by VASP MPI-rank0   698619. kBytes
=======================================================================

   base      :      30000. kBytes
   nonl-proj :     230539. kBytes
   fftplans  :      40716. kBytes
   grid      :     363125. kBytes
   one-center:        162. kBytes
   wavefun   :      34077. kBytes
 
  
  
 General timing and accounting informations for this job:
 ========================================================
  
                  Total CPU time used (sec):      970.972
                            User time (sec):      941.574
                          System time (sec):       29.398
                         Elapsed time (sec):      979.974
  
                   Maximum memory used (kb):     1278808.
                   Average memory used (kb):          N/A
  
                          Minor page faults:       149491
                          Major page faults:           68
                 Voluntary context switches:         3705
