 vasp.6.2.1 16May21 (build Nov 06 2021 14:46:37) complex                        
  
 executed on             LinuxIFC date 2025.04.06  14:37:12
 running on  112 total cores
 distrk:  each k-point on   56 cores,    2 groups
 distr:  one band on NCORE=   1 cores,   56 groups


--------------------------------------------------------------------------------------------------------


 INCAR:
   ALGO = Conjugate
   KPAR = 2
   NCORE = 32
   ISMEAR = 0
   SIGMA = 0.01
   PREC = Accurate
   EDIFF = 1E-7
   ENCUT = 1000
   ISIF = 0
   METAGGA = R2SCAN
   LASPH = .TRUE.
   IVDW = 12
   VDW_S8 = 0.7898
   VDW_A1 = 0.4948
   VDW_A2 = 5.7308
   SYMPREC = 1E-7

 POTCAR:    PAW_PBE C_h 06Feb2004                 
 POTCAR:    PAW_PBE O_h 06Feb2004                 
 -----------------------------------------------------------------------------
|                                                                             |
|           W    W    AA    RRRRR   N    N  II  N    N   GGGG   !!!           |
|           W    W   A  A   R    R  NN   N  II  NN   N  G    G  !!!           |
|           W    W  A    A  R    R  N N  N  II  N N  N  G       !!!           |
|           W WW W  AAAAAA  RRRRR   N  N N  II  N  N N  G  GGG   !            |
|           WW  WW  A    A  R   R   N   NN  II  N   NN  G    G                |
|           W    W  A    A  R    R  N    N  II  N    N   GGGG   !!!           |
|                                                                             |
|     The value NCORE = 32 specified in the INCAR file was overwritten,       |
|     because it was not compatible with the 56 processes available:          |
|     NCORE = 1                                                               |
|     was used instead, please check that this makes sense for your           |
|     machine.                                                                |
|                                                                             |
 -----------------------------------------------------------------------------

 -----------------------------------------------------------------------------
|                                                                             |
|           W    W    AA    RRRRR   N    N  II  N    N   GGGG   !!!           |
|           W    W   A  A   R    R  NN   N  II  NN   N  G    G  !!!           |
|           W    W  A    A  R    R  N N  N  II  N N  N  G       !!!           |
|           W WW W  AAAAAA  RRRRR   N  N N  II  N  N N  G  GGG   !            |
|           WW  WW  A    A  R   R   N   NN  II  N   NN  G    G                |
|           W    W  A    A  R    R  N    N  II  N    N   GGGG   !!!           |
|                                                                             |
|     For optimal performance we recommend to set                             |
|       NCORE = 2 up to number-of-cores-per-socket                            |
|     NCORE specifies how many cores store one orbital (NPAR=cpu/NCORE).      |
|     This setting can greatly improve the performance of VASP for DFT.       |
|     The default, NCORE=1 might be grossly inefficient on modern             |
|     multi-core architectures or massively parallel machines. Do your        |
|     own testing! More info at https://www.vasp.at/wiki/index.php/NCORE      |
|     Unfortunately you need to use the default for GW and RPA                |
|     calculations (for HF NCORE is supported but not extensively tested      |
|     yet).                                                                   |
|                                                                             |
 -----------------------------------------------------------------------------

 POTCAR:    PAW_PBE C_h 06Feb2004                 
   VRHFIN =C: s2p2                                                                                  
   LEXCH  = PE                                                                                      
   EATOM  =   147.1560 eV,   10.8157 Ry                                                             
                                                                                                    
   TITEL  = PAW_PBE C_h 06Feb2004                                                                   
   LULTRA =        F    use ultrasoft PP ?                                                          
   IUNSCR =        1    unscreen: 0-lin 1-nonlin 2-no                                               
   RPACOR =    0.800    partial core radius                                                         
   POMASS =   12.011; ZVAL   =    4.000    mass and valenz                                          
   RCORE  =    1.100    outmost cutoff radius                                                       
   RWIGS  =    1.630; RWIGS  =    0.863    wigner-seitz radius (au A)                               
   ENMAX  =  700.000; ENMIN  =  500.000 eV                                                          
   ICORE  =        2    local potential                                                             
   LCOR   =        T    correct aug charges                                                         
   LPAW   =        T    paw PP                                                                      
   EAUG   =  946.768                                                                                
   DEXC   =    0.000                                                                                
   RMAX   =    1.128    core radius for proj-oper                                                   
   RAUG   =    1.300    factor for augmentation sphere                                              
   RDEP   =    1.162    radius for radial grids                                                     
   RDEPT  =    1.088    core radius for aug-charge                                                  
                                                                                                    
   Atomic configuration                                                                             
    4 entries                                                                                       
     n  l   j            E        occ.                                                              
     1  0  0.50      -273.3789   2.0000                                                             
     2  0  0.50       -13.7508   2.0000                                                             
     2  1  0.50        -5.2854   2.0000                                                             
     3  2  1.50        -5.4423   0.0000                                                             
   Description                                                                                      
     l       E           TYP  RCUT    TYP  RCUT                                                     
     0    -13.7508458     23  1.100                                                                 
     0     -8.2022199     23  1.100                                                                 
     1     -5.2854383     23  1.100                                                                 
     1      1.1560700     23  1.100                                                                 
     2     -5.4423304      7  1.100                                                                 
  local pseudopotential read in
  partial core-charges read in
  partial kinetic energy density read in
  atomic valenz-charges read in
  non local Contribution for L=           0  read in
    real space projection operators read in
  non local Contribution for L=           0  read in
    real space projection operators read in
  non local Contribution for L=           1  read in
    real space projection operators read in
  non local Contribution for L=           1  read in
    real space projection operators read in
    PAW grid and wavefunctions read in
 
   number of l-projection  operators is LMAX  =           4
   number of lm-projection operators is LMMAX =           8
 
 POTCAR:    PAW_PBE O_h 06Feb2004                 
   VRHFIN =O: s2p4                                                                                  
   LEXCH  = PE                                                                                      
   EATOM  =   432.3788 eV,   31.7789 Ry                                                             
                                                                                                    
   TITEL  = PAW_PBE O_h 06Feb2004                                                                   
   LULTRA =        F    use ultrasoft PP ?                                                          
   IUNSCR =        1    unscreen: 0-lin 1-nonlin 2-no                                               
   RPACOR =    0.800    partial core radius                                                         
   POMASS =   16.000; ZVAL   =    6.000    mass and valenz                                          
   RCORE  =    1.100    outmost cutoff radius                                                       
   RWIGS  =    1.400; RWIGS  =    0.741    wigner-seitz radius (au A)                               
   ENMAX  =  700.000; ENMIN  =  500.000 eV                                                          
   ICORE  =        2    local potential                                                             
   LCOR   =        T    correct aug charges                                                         
   LPAW   =        T    paw PP                                                                      
   EAUG   =  888.804                                                                                
   DEXC   =    0.000                                                                                
   RMAX   =    1.128    core radius for proj-oper                                                   
   RAUG   =    1.300    factor for augmentation sphere                                              
   RDEP   =    1.125    radius for radial grids                                                     
   RDEPT  =    1.088    core radius for aug-charge                                                  
                                                                                                    
   Atomic configuration                                                                             
    4 entries                                                                                       
     n  l   j            E        occ.                                                              
     1  0  0.50      -514.6923   2.0000                                                             
     2  0  0.50       -23.9615   2.0000                                                             
     2  1  0.50        -9.0305   4.0000                                                             
     3  2  1.50        -9.5241   0.0000                                                             
   Description                                                                                      
     l       E           TYP  RCUT    TYP  RCUT                                                     
     0    -23.9615319     23  1.100                                                                 
     0    -25.3221145     23  1.100                                                                 
     1     -9.0304911     23  1.100                                                                 
     1     -5.4802209     23  1.100                                                                 
     2     -9.5240782      7  1.100                                                                 
  local pseudopotential read in
  partial core-charges read in
  partial kinetic energy density read in
  atomic valenz-charges read in
  non local Contribution for L=           0  read in
    real space projection operators read in
  non local Contribution for L=           0  read in
    real space projection operators read in
  non local Contribution for L=           1  read in
    real space projection operators read in
  non local Contribution for L=           1  read in
    real space projection operators read in
    PAW grid and wavefunctions read in
 
   number of l-projection  operators is LMAX  =           4
   number of lm-projection operators is LMMAX =           8
 
 -----------------------------------------------------------------------------
|                                                                             |
|               ----> ADVICE to this user running VASP <----                  |
|                                                                             |
|     You have a (more or less) 'large supercell' and for larger cells it     |
|     might be more efficient to use real-space projection operators.         |
|     Therefore, try LREAL= Auto in the INCAR file.                           |
|     Mind: For very accurate calculation, you might also keep the            |
|     reciprocal projection scheme (i.e. LREAL=.FALSE.).                      |
|                                                                             |
 -----------------------------------------------------------------------------

  PAW_PBE C_h 06Feb2004                 :
 energy of atom  1       EATOM= -147.1560
 kinetic energy error for atom=    0.0031 (will be added to EATOM!!)
  PAW_PBE O_h 06Feb2004                 :
 energy of atom  2       EATOM= -432.3788
 kinetic energy error for atom=    0.0171 (will be added to EATOM!!)
 
 
 POSCAR:  C  O
  positions in cartesian coordinates
  No initial velocities read in

 METAGGA = R2SCA    LMAXTAU =  6    LMIXTAU =  F

 exchange correlation table for  LEXCH =        8
   RHO(1)=    0.500       N(1)  =     2000
   RHO(2)=  100.500       N(2)  =     4000
 


--------------------------------------------------------------------------------------------------------


 ion  position               nearest neighbor table
   1  0.972  0.000  0.001-  50 1.42   2 1.42  42 1.42
   2  0.039  0.134  0.001-   5 1.42   7 1.42   1 1.42
   3  0.172  0.000  0.001-  42 1.42  44 1.42   4 1.42
   4  0.239  0.134  0.000-   7 1.42   3 1.42  23 1.42
   5  0.972  0.200  0.001-   6 1.42   2 1.42  34 1.42
   6  0.039  0.334  0.001-   5 1.42  21 1.42  11 1.42
   7  0.172  0.200  0.000-   8 1.42   2 1.42   4 1.42
   8  0.239  0.334  0.000-  13 1.42   7 1.42  21 1.42
   9  0.372  0.000  0.001-  10 1.42  44 1.42  46 1.42
  10  0.439  0.134  0.000-  27 1.42   9 1.42  23 1.42
  11  0.972  0.400  0.001-  12 1.42  36 1.42   6 1.42
  12  0.039  0.534  0.001-  25 1.42  11 1.42  17 1.42
  13  0.372  0.400  0.000-   8 1.42  14 1.42  24 1.42
  14  0.439  0.534  0.000-  13 1.42  29 1.42  19 1.42
  15  0.572  0.000  0.001-  46 1.42  16 1.42  48 1.42
  16  0.639  0.134  0.001-  15 1.42  35 1.42  27 1.42
  17  0.972  0.600  0.001-  38 1.42  18 1.42  12 1.42
  18  0.039  0.734  0.001-  43 1.42  41 1.42  17 1.42
  19  0.572  0.600  0.001-  14 1.42  20 1.42  32 1.42
  20  0.639  0.734  0.001-  49 1.42  19 1.42  47 1.42
  21  0.172  0.400  0.000-  22 1.42   8 1.42   6 1.42
  22  0.239  0.534  0.000-  21 1.42  29 1.42  25 1.42
  23  0.372  0.200  0.000-  10 1.42   4 1.42  24 1.42
  24  0.439  0.334  0.000-  13 1.42  31 1.42  23 1.42
  25  0.172  0.600  0.001-  26 1.42  12 1.42  22 1.42
  26  0.239  0.734  0.001-  25 1.42  45 1.42  43 1.42
  27  0.572  0.200  0.001-  10 1.42  28 1.42  16 1.42
  28  0.639  0.334  0.001-  27 1.42  37 1.42  31 1.42
  29  0.372  0.600  0.000-  22 1.42  14 1.42  30 1.42
  30  0.439  0.734  0.001-  47 1.42  29 1.42  45 1.42
  31  0.572  0.400  0.000-  32 1.42  28 1.42  24 1.42
  32  0.639  0.534  0.001-  31 1.42  39 1.42  19 1.42
  33  0.772  0.000  0.001-  34 1.42  48 1.42  50 1.42
  34  0.839  0.134  0.001-  33 1.42   5 1.42  35 1.42
  35  0.772  0.200  0.001-  36 1.42  16 1.42  34 1.42
  36  0.839  0.334  0.001-  35 1.42  11 1.42  37 1.42
  37  0.772  0.400  0.001-  28 1.42  38 1.42  36 1.42
  38  0.839  0.534  0.001-  17 1.42  37 1.42  39 1.42
  39  0.772  0.600  0.001-  40 1.42  38 1.42  32 1.42
  40  0.839  0.734  0.001-  39 1.42  49 1.42  41 1.42
  41  0.972  0.800  0.001-  18 1.42  42 1.42  40 1.42
  42  0.039  0.934  0.001-   3 1.42  41 1.42   1 1.42
  43  0.172  0.800  0.001-  18 1.42  44 1.42  26 1.42
  44  0.239  0.934  0.001-   9 1.42  43 1.42   3 1.42
  45  0.372  0.800  0.001-  26 1.42  46 1.42  30 1.42
  46  0.439  0.934  0.001-  15 1.42  45 1.42   9 1.42
  47  0.572  0.800  0.001-  30 1.42  48 1.42  20 1.42
  48  0.639  0.934  0.001-  47 1.42  33 1.42  15 1.42
  49  0.772  0.800  0.001-  50 1.42  20 1.42  40 1.42
  50  0.839  0.934  0.001-  49 1.42   1 1.42  33 1.42
  51  0.373  0.251  0.472-  52 1.18  53 1.18
  52  0.421  0.189  0.475-  51 1.18
  53  0.325  0.313  0.469-  51 1.18
 
  LATTYP: Found a hexagonal cell.
 ALAT       =    12.3250000000
 C/A-ratio  =     1.6227180527
  
  Lattice vectors:
  
 A1 = (  12.3250000000,   0.0000000000,   0.0000000000)
 A2 = (  -6.1625000000,  10.6737631016,   0.0000000000)
 A3 = (   0.0000000000,   0.0000000000,  20.0000000000)


Analysis of symmetry for initial positions (statically):
=====================================================================
 Subroutine PRICEL returns:
 Original cell was already a primitive cell.
 

 Routine SETGRP: Setting up the symmetry group for a 
 hexagonal supercell.


 Subroutine GETGRP returns: Found  1 space group operations
 (whereof  1 operations were pure point group operations)
 out of a pool of 24 trial point group operations.


The static configuration has the point symmetry C_1 .


Analysis of symmetry for dynamics (positions and initial velocities):
=====================================================================
 Subroutine PRICEL returns:
 Original cell was already a primitive cell.
 

 Routine SETGRP: Setting up the symmetry group for a 
 hexagonal supercell.


 Subroutine GETGRP returns: Found  1 space group operations
 (whereof  1 operations were pure point group operations)
 out of a pool of 24 trial point group operations.


The dynamic configuration has the point symmetry C_1 .


 Subroutine INISYM returns: Found  1 space group operations
 (whereof  1 operations are pure point group operations),
 and found     1 'primitive' translations


----------------------------------------------------------------------------------------

                                     Primitive cell                                     

  volume of cell :    2631.0826

  direct lattice vectors                    reciprocal lattice vectors
    12.325000000  0.000000000  0.000000000     0.081135903  0.046843835  0.000000000
    -6.162500000 10.673763102  0.000000000     0.000000000  0.093687670  0.000000000
     0.000000000  0.000000000 20.000000000     0.000000000  0.000000000  0.050000000

  length of vectors
    12.325000000 12.325000000 20.000000000     0.093687670  0.093687670  0.050000000

  position of ions in fractional coordinates (direct lattice)
     0.972450841  0.000320818  0.000708389
     0.039118382  0.133659505  0.000550216
     0.172443627  0.000295449  0.000624535
     0.239096278  0.133647917  0.000320585
     0.972452058  0.200322012  0.000606523
     0.039128360  0.333643771  0.000555187
     0.172451764  0.200354552  0.000273959
     0.239124359  0.333665720  0.000090325
     0.372465565  0.000324403  0.000567391
     0.439137473  0.133619939  0.000322923
     0.972449824  0.400309362  0.000684513
     0.039124981  0.533636789  0.000716763
     0.372416176  0.400329481  0.000000000
     0.439099602  0.533638981  0.000290518
     0.572443676  0.000312125  0.000699475
     0.639110207  0.133631751  0.000684093
     0.972452703  0.600305653  0.000800361
     0.039124495  0.733640359  0.000818141
     0.572433471  0.600306242  0.000503618
     0.639111888  0.733641879  0.000659881
     0.172454630  0.400318228  0.000361306
     0.239120185  0.533636548  0.000473136
     0.372459750  0.200295993  0.000111246
     0.439107096  0.333673419  0.000069702
     0.172452155  0.600311506  0.000655425
     0.239123371  0.733638574  0.000718912
     0.572431082  0.200289171  0.000516621
     0.639112773  0.333618630  0.000577970
     0.372439808  0.600308022  0.000453556
     0.439116090  0.733637858  0.000617737
     0.572469358  0.400320504  0.000424897
     0.639119408  0.533650873  0.000574513
     0.772445723  0.000315427  0.000745201
     0.839116277  0.133640203  0.000719132
     0.772440513  0.200307432  0.000726291
     0.839120241  0.333635728  0.000731834
     0.772446320  0.400298367  0.000728722
     0.839118980  0.533633964  0.000776376
     0.772456143  0.600308173  0.000744639
     0.839115033  0.733643180  0.000789390
     0.972455313  0.800305582  0.000815291
     0.039114714  0.933643289  0.000747563
     0.172457971  0.800312211  0.000779216
     0.239134551  0.933647193  0.000681063
     0.372451396  0.800316674  0.000689249
     0.439124489  0.933644769  0.000676788
     0.572441101  0.800310054  0.000668168
     0.639115067  0.933638985  0.000734556
     0.772445098  0.800313187  0.000752577
     0.839116614  0.933644338  0.000758538
     0.373021009  0.251226878  0.471937156
     0.420879805  0.189313152  0.475158249
     0.325156981  0.313167186  0.468964413

  ion indices of the primitive-cell ions
   primitive index   ion index
                 1           1
                 2           2
                 3           3
                 4           4
                 5           5
                 6           6
                 7           7
                 8           8
                 9           9
                10          10
                11          11
                12          12
                13          13
                14          14
                15          15
                16          16
                17          17
                18          18
                19          19
                20          20
                21          21
                22          22
                23          23
                24          24
                25          25
                26          26
                27          27
                28          28
                29          29
                30          30
                31          31
                32          32
                33          33
                34          34
                35          35
                36          36
                37          37
                38          38
                39          39
                40          40
                41          41
                42          42
                43          43
                44          44
                45          45
                46          46
                47          47
                48          48
                49          49
                50          50
                51          51
                52          52
                53          53

----------------------------------------------------------------------------------------

 
 
 KPOINTS: auto                                    

Automatic generation of k-mesh.
 Grid dimensions read from file:
 generate k-points for:    1    1    1

 Generating k-lattice:

  Cartesian coordinates                     Fractional coordinates (reciprocal lattice)
     0.081135903  0.046843835  0.000000000     1.000000000 -0.000000000  0.000000000
     0.000000000  0.093687670  0.000000000     0.000000000  1.000000000  0.000000000
     0.000000000  0.000000000  0.050000000     0.000000000  0.000000000  1.000000000

  Length of vectors
     0.093687670  0.093687670  0.050000000

  Shift w.r.t. Gamma in fractional coordinates (k-lattice)
     0.000000000  0.000000000  0.000000000

 
 Subroutine IBZKPT returns following result:
 ===========================================
 
 Found      1 irreducible k-points:
 
 Following reciprocal coordinates:
            Coordinates               Weight
  0.000000  0.000000  0.000000      1.000000
 
 Following cartesian coordinates:
            Coordinates               Weight
  0.000000  0.000000  0.000000      1.000000
 


--------------------------------------------------------------------------------------------------------




 Dimension of arrays:
   k-points           NKPTS =      1   k-points in BZ     NKDIM =      1   number of bands    NBANDS=    168
   number of dos      NEDOS =    301   number of ions     NIONS =     53
   non local maximal  LDIM  =      4   non local SUM 2l+1 LMDIM =      8
   total plane-waves  NPLWV = ******
   max r-space proj   IRMAX =      1   max aug-charges    IRDMAX=   9736
   dimension x,y,z NGX =   128 NGY =  128 NGZ =  210
   dimension x,y,z NGXF=   256 NGYF=  256 NGZF=  420
   support grid    NGXF=   256 NGYF=  256 NGZF=  420
   ions per type =              51   2
   NGX,Y,Z   is equivalent  to a cutoff of  17.27, 17.27, 17.46 a.u.
   NGXF,Y,Z  is equivalent  to a cutoff of  34.53, 34.53, 34.91 a.u.

 SYSTEM =  unknown system                          
 POSCAR =   C  O                                   

 Startparameter for this run:
   NWRITE =      2    write-flag & timer
   PREC   = accura    normal or accurate (medium, high low for compatibility)
   ISTART =      0    job   : 0-new  1-cont  2-samecut
   ICHARG =      2    charge: 1-file 2-atom 10-const
   ISPIN  =      1    spin polarized calculation?
   LNONCOLLINEAR =      F non collinear calculations
   LSORBIT =      F    spin-orbit coupling
   INIWAV =      1    electr: 0-lowe 1-rand  2-diag
   LASPH  =      T    aspherical Exc in radial PAW
 Electronic Relaxation 1
   ENCUT  = 1000.0 eV  73.50 Ry    8.57 a.u.  31.78 31.78 51.57*2*pi/ulx,y,z
   ENINI  = 1000.0     initial cutoff
   ENAUG  =  946.8 eV  augmentation charge cutoff
   NELM   =     60;   NELMIN=  2; NELMDL= -5     # of ELM steps 
   EDIFF  = 0.1E-06   stopping-criterion for ELM
   LREAL  =      F    real-space projection
   NLSPLINE    = F    spline interpolate recip. space projectors
   LCOMPAT=      F    compatible to vasp.4.4
   GGA_COMPAT  = T    GGA compatible to vasp.4.4-vasp.4.6
   LMAXPAW     = -100 max onsite density
   LMAXMIX     =    2 max onsite mixed and CHGCAR
   VOSKOWN=      0    Vosko Wilk Nusair interpolation
   ROPT   =    0.00000   0.00000
 Ionic relaxation
   EDIFFG = 0.1E-05   stopping-criterion for IOM
   NSW    =      0    number of steps for IOM
   NBLOCK =      1;   KBLOCK =      1    inner block; outer block 
   IBRION =     -1    ionic relax: 0-MD 1-quasi-New 2-CG
   NFREE  =      0    steps in history (QN), initial steepest desc. (CG)
   ISIF   =      0    stress and relaxation
   IWAVPR =     10    prediction:  0-non 1-charg 2-wave 3-comb
   ISYM   =      2    0-nonsym 1-usesym 2-fastsym
   LCORR  =      T    Harris-Foulkes like correction to forces

   POTIM  = 0.5000    time-step for ionic-motion
   TEIN   =    0.0    initial temperature
   TEBEG  =    0.0;   TEEND  =   0.0 temperature during run
   SMASS  =  -3.00    Nose mass-parameter (am)
   estimated Nose-frequenzy (Omega)   =  0.10E-29 period in steps = 0.13E+47 mass=  -0.347E-26a.u.
   SCALEE = 1.0000    scale energy and forces
   NPACO  =    256;   APACO  = 16.0  distance and # of slots for P.C.
   PSTRESS=    0.0 pullay stress

  Mass of Ions in am
   POMASS =  12.01 16.00
  Ionic Valenz
   ZVAL   =   4.00  6.00
  Atomic Wigner-Seitz radii
   RWIGS  =  -1.00 -1.00
  virtual crystal weights 
   VCA    =   1.00  1.00
   NELECT =     216.0000    total number of electrons
   NUPDOWN=      -1.0000    fix difference up-down

 DOS related values:
   EMIN   =  10.00;   EMAX   =-10.00  energy-range for DOS
   EFERMI =   0.00
   ISMEAR =     0;   SIGMA  =   0.01  broadening in eV -4-tet -1-fermi 0-gaus

 Electronic relaxation 2 (details)
   IALGO  =     58    algorithm
   LDIAG  =      T    sub-space diagonalisation (order eigenvalues)
   LSUBROT=      F    optimize rotation matrix (better conditioning)
   TURBO    =      0    0=normal 1=particle mesh
   IRESTART =      0    0=no restart 2=restart with 2 vectors
   NREBOOT  =      0    no. of reboots
   NMIN     =      0    reboot dimension
   EREF     =   0.00    reference energy to select bands
   IMIX   =      4    mixing-type and parameters
     AMIX     =   0.40;   BMIX     =  1.00
     AMIX_MAG =   1.60;   BMIX_MAG =  1.00
     AMIN     =   0.10
     WC   =   100.;   INIMIX=   1;  MIXPRE=   1;  MAXMIX= -45

 Intra band minimization:
   WEIMIN = 0.0000     energy-eigenvalue tresh-hold
   EBREAK =  0.15E-09  absolut break condition
   DEPER  =   0.30     relativ break condition  

   TIME   =   0.40     timestep for ELM

  volume/ion in A,a.u.               =      49.64       335.01
  Fermi-wavevector in a.u.,A,eV,Ry     =   0.711510  1.344560  6.887909  0.506247
  Thomas-Fermi vector in A             =   1.798641
 
 Write flags
   LWAVE        =      T    write WAVECAR
   LDOWNSAMPLE  =      F    k-point downsampling of WAVECAR
   LCHARG       =      T    write CHGCAR
   LVTOT        =      F    write LOCPOT, total local potential
   LVHAR        =      F    write LOCPOT, Hartree potential only
   LELF         =      F    write electronic localiz. function (ELF)
   LORBIT       =      0    0 simple, 1 ext, 2 COOP (PROOUT), +10 PAW based schemes


 Dipole corrections
   LMONO  =      F    monopole corrections only (constant potential shift)
   LDIPOL =      F    correct potential (dipole corrections)
   IDIPOL =      0    1-x, 2-y, 3-z, 4-all directions 
   EPSILON=  1.0000000 bulk dielectric constant

 Exchange correlation treatment:
   GGA     =    --    GGA type
   LEXCH   =     8    internal setting for exchange type
   VOSKOWN=      0    Vosko Wilk Nusair interpolation
   LHFCALC =     F    Hartree Fock is set to
   LHFONE  =     F    Hartree Fock one center treatment
   AEXX    =    0.0000 exact exchange contribution

 Linear response parameters
   LEPSILON=     F    determine dielectric tensor
   LRPA    =     F    only Hartree local field effects (RPA)
   LNABLA  =     F    use nabla operator in PAW spheres
   LVEL    =     F    velocity operator in full k-point grid
   LINTERFAST=   F  fast interpolation
   KINTER  =     0    interpolate to denser k-point grid
   CSHIFT  =0.1000    complex shift for real part using Kramers Kronig
   OMEGAMAX=  -1.0    maximum frequency
   DEG_THRESHOLD= 0.2000000E-02 threshold for treating states as degnerate
   RTIME   =   -0.100 relaxation time in fs
  (WPLASMAI=    0.000 imaginary part of plasma frequency in eV, 0.658/RTIME)
   DFIELD  = 0.0000000 0.0000000 0.0000000 field for delta impulse in time
 
 Orbital magnetization related:
   ORBITALMAG=     F  switch on orbital magnetization
   LCHIMAG   =     F  perturbation theory with respect to B field
   DQ        =  0.001000  dq finite difference perturbation B field
   LLRAUG    =     F  two centre corrections for induced B field



--------------------------------------------------------------------------------------------------------


 Static calculation
 charge density and potential will be updated during run
 non-spin polarized calculation
 Conjugate gradient for all bands (Freysoldt, et al. PRB 79, 241103 (2009))
 preconditioned conjugated gradient                                        
 perform sub-space diagonalisation
    before iterative eigenvector-optimisation
 modified Broyden-mixing scheme, WC =      100.0
 initial mixing is a Kerker type mixing with AMIX =  0.4000 and BMIX =      1.0000
 Hartree-type preconditioning will be used
 using additional bands           60
 reciprocal scheme for non local part
 use partial core corrections
 no Harris-corrections to forces 
 use gradient corrections 
 use of overlap-Matrix (Vanderbilt PP)
 Gauss-broadening in eV      SIGMA  =   0.01


--------------------------------------------------------------------------------------------------------


  energy-cutoff  :     1000.00
  volume of cell :     2631.08
      direct lattice vectors                 reciprocal lattice vectors
    12.325000000  0.000000000  0.000000000     0.081135903  0.046843835  0.000000000
    -6.162500000 10.673763102  0.000000000     0.000000000  0.093687670  0.000000000
     0.000000000  0.000000000 20.000000000     0.000000000  0.000000000  0.050000000

  length of vectors
    12.325000000 12.325000000 20.000000000     0.093687670  0.093687670  0.050000000


 
 k-points in units of 2pi/SCALE and weight: auto                                    
   0.00000000  0.00000000  0.00000000       1.000
 
 k-points in reciprocal lattice and weights: auto                                    
   0.00000000  0.00000000  0.00000000       1.000
 
 position of ions in fractional coordinates (direct lattice) 
   0.97245084  0.00032082  0.00070839
   0.03911838  0.13365950  0.00055022
   0.17244363  0.00029545  0.00062454
   0.23909628  0.13364792  0.00032058
   0.97245206  0.20032201  0.00060652
   0.03912836  0.33364377  0.00055519
   0.17245176  0.20035455  0.00027396
   0.23912436  0.33366572  0.00009033
   0.37246557  0.00032440  0.00056739
   0.43913747  0.13361994  0.00032292
   0.97244982  0.40030936  0.00068451
   0.03912498  0.53363679  0.00071676
   0.37241618  0.40032948  0.00000000
   0.43909960  0.53363898  0.00029052
   0.57244368  0.00031213  0.00069947
   0.63911021  0.13363175  0.00068409
   0.97245270  0.60030565  0.00080036
   0.03912449  0.73364036  0.00081814
   0.57243347  0.60030624  0.00050362
   0.63911189  0.73364188  0.00065988
   0.17245463  0.40031823  0.00036131
   0.23912018  0.53363655  0.00047314
   0.37245975  0.20029599  0.00011125
   0.43910710  0.33367342  0.00006970
   0.17245216  0.60031151  0.00065542
   0.23912337  0.73363857  0.00071891
   0.57243108  0.20028917  0.00051662
   0.63911277  0.33361863  0.00057797
   0.37243981  0.60030802  0.00045356
   0.43911609  0.73363786  0.00061774
   0.57246936  0.40032050  0.00042490
   0.63911941  0.53365087  0.00057451
   0.77244572  0.00031543  0.00074520
   0.83911628  0.13364020  0.00071913
   0.77244051  0.20030743  0.00072629
   0.83912024  0.33363573  0.00073183
   0.77244632  0.40029837  0.00072872
   0.83911898  0.53363396  0.00077638
   0.77245614  0.60030817  0.00074464
   0.83911503  0.73364318  0.00078939
   0.97245531  0.80030558  0.00081529
   0.03911471  0.93364329  0.00074756
   0.17245797  0.80031221  0.00077922
   0.23913455  0.93364719  0.00068106
   0.37245140  0.80031667  0.00068925
   0.43912449  0.93364477  0.00067679
   0.57244110  0.80031005  0.00066817
   0.63911507  0.93363899  0.00073456
   0.77244510  0.80031319  0.00075258
   0.83911661  0.93364434  0.00075854
   0.37302101  0.25122688  0.47193716
   0.42087980  0.18931315  0.47515825
   0.32515698  0.31316719  0.46896441
 
 position of ions in cartesian coordinates  (Angst):
  11.98347958  0.00342433  0.01416777
  -0.34154264  1.42664989  0.01100432
   2.12354700  0.00315355  0.01249070
   2.12325634  1.42652621  0.00641170
  10.75098721  2.13818970  0.01213047
  -1.57382270  3.56123457  0.01110375
   0.89078307  2.13853702  0.00547917
   0.89099273  3.56146885  0.00180651
   4.58863896  0.00346260  0.01134782
   4.58893648  1.42622757  0.00645846
   9.51853763  4.27280730  0.01369027
  -2.80632132  5.69591267  0.01433526
   2.12299894  4.27302204  0.00000000
   2.12335237  5.69593607  0.00581036
   7.05344483  0.00333155  0.01398950
   7.05352764  1.42635365  0.01368187
   8.28609598  6.40752033  0.01600723
  -4.03884931  7.83070339  0.01636283
   3.35585531  6.40752662  0.01007237
   3.35598594  7.83071962  0.01319763
  -0.34145776  4.27290193  0.00722612
  -0.34137895  5.69591010  0.00946273
   3.35624236  2.13791198  0.00222492
   3.35573251  3.56155103  0.00139405
  -1.57394684  6.40758280  0.01310850
  -1.57385216  7.83068434  0.01437823
   5.82093107  2.13783916  0.01033241
   5.82114012  3.56096622  0.01155939
   0.89092245  6.40754561  0.00907111
   0.89106251  7.83067670  0.01235474
   4.58870974  4.27292622  0.00849795
   4.58852320  5.69606300  0.01149026
   9.51844972  0.00336679  0.01490402
   9.51855036  1.42644387  0.01438264
   8.28593477  2.13803408  0.01452582
   8.28612680  3.56114872  0.01463668
   7.05356221  4.27268994  0.01457444
   7.05362213  5.69588251  0.01552751
   5.82112285  6.40754723  0.01489279
   5.82101669  7.83073350  0.01578780
   7.05362858  8.54227219  0.01630582
  -5.27148792  9.96548729  0.01495127
  -2.80637951  8.54234295  0.01558431
  -2.80626749  9.96552896  0.01362126
  -0.34148805  8.54239058  0.01378498
  -0.34137657  9.96550309  0.01353576
   2.12342586  8.54231992  0.01336337
   2.12354296  9.96544135  0.01469111
   4.58845581  8.54235337  0.01505154
   4.58852904  9.96549848  0.01517076
   3.04929830  2.68153618  9.43874313
   4.02070129  2.02068374  9.50316499
   2.07766701  3.34267235  9.37928826
 


--------------------------------------------------------------------------------------------------------


 k-point   1 :   0.0000 0.0000 0.0000  plane waves:  189031

 maximum and minimum number of plane-waves per node :    189031   189031

 maximum number of plane-waves:    189031
 maximum index in each direction: 
   IXMAX=   31   IYMAX=   31   IZMAX=   51
   IXMIN=  -31   IYMIN=  -31   IZMIN=  -51


 serial   3D FFT for wavefunctions
 parallel 3D FFT for charge:
    minimum data exchange during FFTs selected (reduces bandwidth)


 total amount of memory used by VASP MPI-rank0   556209. kBytes
=======================================================================

   base      :      30000. kBytes
   nonl-proj :     184518. kBytes
   fftplans  :      31725. kBytes
   grid      :     282516. kBytes
   one-center:        162. kBytes
   wavefun   :      27288. kBytes
 
     INWAV:  cpu time    0.0000: real time    0.0000
 Broyden mixing: mesh for mixing (old mesh)
   NGX = 63   NGY = 63   NGZ =103
  (NGX  =256   NGY  =256   NGZ  =420)
  gives a total of 408807 points

 initial charge density was supplied:
 charge density of overlapping atoms calculated
 number of electron     216.0000000 magnetization 
 keeping initial charge density in first step


--------------------------------------------------------------------------------------------------------


 Maximum index for augmentation-charges          459 (set IRDMAX)


--------------------------------------------------------------------------------------------------------


 First call to EWALD:  gamma=   0.128
 Maximum number of real-space cells 3x 3x 2
 Maximum number of reciprocal cells 3x 3x 4

    FEWALD:  cpu time    0.0023: real time    0.0023


--------------------------------------- Iteration      1(   1)  ---------------------------------------


    POTLOK:  cpu time    1.2811: real time    1.2903
    SETDIJ:  cpu time    0.1911: real time    0.1919
    TRIAL :  cpu time   21.8835: real time   22.0456
    CORREC:  cpu time    0.0006: real time    0.0007
    --------------------------------------------
      LOOP:  cpu time   23.3689: real time   23.5455

 eigenvalue-minimisations  :   336
 total energy-change (2. order) : 0.2411211E+04  (-0.1180603E+05)
 number of electron     216.0000000 magnetization 
 augmentation part      216.0000000 magnetization 

 Free energy of the ion-electron system (eV)
  ---------------------------------------------------
  alpha Z        PSCENC =        59.93625244
  Ewald energy   TEWEN  =     29245.76022916
  -Hartree energ DENC   =    -35421.21856181
  -exchange      EXHF   =         0.00000000
  -V(xc)+E(xc)   XCENC  =       605.05772502
  PAW double counting   =      6340.10990386    -6200.63067283
  entropy T*S    EENTRO =        -0.00000000
  eigenvalues    EBANDS =      -587.32743187
  atomic energy  EATOM  =      8369.52358910
  ---------------------------------------------------
  free energy    TOTEN  =      2411.21103306 eV

  energy without entropy =     2411.21103306  energy(sigma->0) =     2411.21103306


--------------------------------------------------------------------------------------------------------




--------------------------------------- Iteration      1(   2)  ---------------------------------------


    TRIAL :  cpu time   31.0797: real time   31.3266
    CORREC:  cpu time    0.0001: real time    0.0001
    --------------------------------------------
      LOOP:  cpu time   31.1038: real time   31.3571

 eigenvalue-minimisations  :   560
 total energy-change (2. order) :-0.2435091E+04  (-0.2304355E+04)
 number of electron     216.0000000 magnetization 
 augmentation part      216.0000000 magnetization 

 Free energy of the ion-electron system (eV)
  ---------------------------------------------------
  alpha Z        PSCENC =        59.93625244
  Ewald energy   TEWEN  =     29245.76022916
  -Hartree energ DENC   =    -35421.21856181
  -exchange      EXHF   =         0.00000000
  -V(xc)+E(xc)   XCENC  =       605.05772502
  PAW double counting   =      6340.10990386    -6200.63067283
  entropy T*S    EENTRO =        -0.00000000
  eigenvalues    EBANDS =     -3022.41853129
  atomic energy  EATOM  =      8369.52358910
  ---------------------------------------------------
  free energy    TOTEN  =       -23.88006636 eV

  energy without entropy =      -23.88006636  energy(sigma->0) =      -23.88006636


--------------------------------------------------------------------------------------------------------




--------------------------------------- Iteration      1(   3)  ---------------------------------------


    TRIAL :  cpu time   24.1243: real time   24.3138
    CORREC:  cpu time    0.0001: real time    0.0003
    --------------------------------------------
      LOOP:  cpu time   24.1348: real time   24.3454

 eigenvalue-minimisations  :   392
 total energy-change (2. order) :-0.5570250E+03  (-0.5540972E+03)
 number of electron     216.0000000 magnetization 
 augmentation part      216.0000000 magnetization 

 Free energy of the ion-electron system (eV)
  ---------------------------------------------------
  alpha Z        PSCENC =        59.93625244
  Ewald energy   TEWEN  =     29245.76022916
  -Hartree energ DENC   =    -35421.21856181
  -exchange      EXHF   =         0.00000000
  -V(xc)+E(xc)   XCENC  =       605.05772502
  PAW double counting   =      6340.10990386    -6200.63067283
  entropy T*S    EENTRO =        -0.00000000
  eigenvalues    EBANDS =     -3579.44348641
  atomic energy  EATOM  =      8369.52358910
  ---------------------------------------------------
  free energy    TOTEN  =      -580.90502148 eV

  energy without entropy =     -580.90502148  energy(sigma->0) =     -580.90502148


--------------------------------------------------------------------------------------------------------




--------------------------------------- Iteration      1(   4)  ---------------------------------------


    TRIAL :  cpu time   26.4227: real time   26.6516
    CORREC:  cpu time    0.0001: real time    0.0001
    --------------------------------------------
      LOOP:  cpu time   26.4577: real time   26.7306

 eigenvalue-minimisations  :   448
 total energy-change (2. order) :-0.2592777E+02  (-0.2576865E+02)
 number of electron     216.0000000 magnetization 
 augmentation part      216.0000000 magnetization 

 Free energy of the ion-electron system (eV)
  ---------------------------------------------------
  alpha Z        PSCENC =        59.93625244
  Ewald energy   TEWEN  =     29245.76022916
  -Hartree energ DENC   =    -35421.21856181
  -exchange      EXHF   =         0.00000000
  -V(xc)+E(xc)   XCENC  =       605.05772502
  PAW double counting   =      6340.10990386    -6200.63067283
  entropy T*S    EENTRO =        -0.00000000
  eigenvalues    EBANDS =     -3605.37125171
  atomic energy  EATOM  =      8369.52358910
  ---------------------------------------------------
  free energy    TOTEN  =      -606.83278678 eV

  energy without entropy =     -606.83278678  energy(sigma->0) =     -606.83278678


--------------------------------------------------------------------------------------------------------




--------------------------------------- Iteration      1(   5)  ---------------------------------------


    TRIAL :  cpu time   24.1178: real time   24.3204
    CORREC:  cpu time    0.0001: real time    0.0001
    CHARGE:  cpu time    2.2939: real time    2.3108
    --------------------------------------------
      LOOP:  cpu time   26.4824: real time   26.7070

 eigenvalue-minimisations  :   392
 total energy-change (2. order) :-0.9084730E+00  (-0.9076419E+00)
 number of electron     216.0000000 magnetization 
 augmentation part       -0.4468560 magnetization 

 Free energy of the ion-electron system (eV)
  ---------------------------------------------------
  alpha Z        PSCENC =        59.93625244
  Ewald energy   TEWEN  =     29245.76022916
  -Hartree energ DENC   =    -35421.21856181
  -exchange      EXHF   =         0.00000000
  -V(xc)+E(xc)   XCENC  =       605.05772502
  PAW double counting   =      6340.10990386    -6200.63067283
  entropy T*S    EENTRO =        -0.00000000
  eigenvalues    EBANDS =     -3606.27972475
  atomic energy  EATOM  =      8369.52358910
  ---------------------------------------------------
  free energy    TOTEN  =      -607.74125982 eV

  energy without entropy =     -607.74125982  energy(sigma->0) =     -607.74125982


--------------------------------------------------------------------------------------------------------




--------------------------------------- Iteration      1(   6)  ---------------------------------------


    POTLOK:  cpu time    1.2574: real time    1.2667
    SETDIJ:  cpu time    0.1789: real time    0.1796
    TRIAL :  cpu time   15.5645: real time   15.6933
    CORREC:  cpu time    6.8638: real time    6.9193
    CHARGE:  cpu time    2.2730: real time    2.2920
    --------------------------------------------
      LOOP:  cpu time   26.1760: real time   26.3936

 eigenvalue-minimisations  :     0
 total energy-change (2. order) : 0.9800882E+02  (-0.1125610E+02)
 number of electron     216.0000000 magnetization 
 augmentation part       -0.5090789 magnetization 

 Free energy of the ion-electron system (eV)
  ---------------------------------------------------
  alpha Z        PSCENC =        59.93625244
  Ewald energy   TEWEN  =     29245.76022916
  -Hartree energ DENC   =    -36735.93812576
  -exchange      EXHF   =         0.00000000
  -V(xc)+E(xc)   XCENC  =       676.78515056
  PAW double counting   =    119371.57056548  -119231.98696406
  entropy T*S    EENTRO =        -0.00000000
  eigenvalues    EBANDS =     -2265.38313331
  atomic energy  EATOM  =      8369.52358910
  ---------------------------------------------------
  free energy    TOTEN  =      -509.73243640 eV

  energy without entropy =     -509.73243640  energy(sigma->0) =     -509.73243640


--------------------------------------------------------------------------------------------------------




--------------------------------------- Iteration      1(   7)  ---------------------------------------


    POTLOK:  cpu time    1.2549: real time    1.2635
    SETDIJ:  cpu time    0.1746: real time    0.1753
    TRIAL :  cpu time   15.5357: real time   15.6706
    CORREC:  cpu time    6.8765: real time    6.9319
    CHARGE:  cpu time    2.2789: real time    2.2979
    --------------------------------------------
      LOOP:  cpu time   26.1798: real time   26.4005

 eigenvalue-minimisations  :     0
 total energy-change (2. order) :-0.1126992E+02  (-0.1490581E+01)
 number of electron     216.0000000 magnetization 
 augmentation part       -0.5423884 magnetization 

 Free energy of the ion-electron system (eV)
  ---------------------------------------------------
  alpha Z        PSCENC =        59.93625244
  Ewald energy   TEWEN  =     29245.76022916
  -Hartree energ DENC   =    -36336.20939345
  -exchange      EXHF   =         0.00000000
  -V(xc)+E(xc)   XCENC  =       659.18549974
  PAW double counting   =    138765.53278731  -138624.20810909
  entropy T*S    EENTRO =        -0.00000000
  eigenvalues    EBANDS =     -2660.52320861
  atomic energy  EATOM  =      8369.52358910
  ---------------------------------------------------
  free energy    TOTEN  =      -521.00235339 eV

  energy without entropy =     -521.00235339  energy(sigma->0) =     -521.00235339


--------------------------------------------------------------------------------------------------------




--------------------------------------- Iteration      1(   8)  ---------------------------------------


    POTLOK:  cpu time    1.2571: real time    1.2663
    SETDIJ:  cpu time    0.1665: real time    0.1671
    TRIAL :  cpu time   15.5325: real time   15.6638
    CORREC:  cpu time    6.8664: real time    6.9214
    CHARGE:  cpu time    2.2770: real time    2.2959
    --------------------------------------------
      LOOP:  cpu time   26.1683: real time   26.3862

 eigenvalue-minimisations  :     0
 total energy-change (2. order) :-0.1490085E+01  (-0.4884931E+00)
 number of electron     216.0000000 magnetization 
 augmentation part       -0.5434817 magnetization 

 Free energy of the ion-electron system (eV)
  ---------------------------------------------------
  alpha Z        PSCENC =        59.93625244
  Ewald energy   TEWEN  =     29245.76022916
  -Hartree energ DENC   =    -36305.53515187
  -exchange      EXHF   =         0.00000000
  -V(xc)+E(xc)   XCENC  =       658.09058721
  PAW double counting   =    148332.99873078  -148191.54865629
  entropy T*S    EENTRO =        -0.00000000
  eigenvalues    EBANDS =     -2691.71801901
  atomic energy  EATOM  =      8369.52358910
  ---------------------------------------------------
  free energy    TOTEN  =      -522.49243848 eV

  energy without entropy =     -522.49243848  energy(sigma->0) =     -522.49243848


--------------------------------------------------------------------------------------------------------




--------------------------------------- Iteration      1(   9)  ---------------------------------------


    POTLOK:  cpu time    1.2539: real time    1.2622
    SETDIJ:  cpu time    0.1722: real time    0.1728
    TRIAL :  cpu time   15.5729: real time   15.6856
    CORREC:  cpu time    6.8718: real time    6.9190
    CHARGE:  cpu time    2.2798: real time    2.2982
    --------------------------------------------
      LOOP:  cpu time   26.1874: real time   26.4116

 eigenvalue-minimisations  :     0
 total energy-change (2. order) :-0.4881419E+00  (-0.1976842E+00)
 number of electron     216.0000000 magnetization 
 augmentation part       -0.5402822 magnetization 

 Free energy of the ion-electron system (eV)
  ---------------------------------------------------
  alpha Z        PSCENC =        59.93625244
  Ewald energy   TEWEN  =     29245.76022916
  -Hartree energ DENC   =    -36311.78909764
  -exchange      EXHF   =         0.00000000
  -V(xc)+E(xc)   XCENC  =       658.02917171
  PAW double counting   =    156393.26645521  -156251.74313851
  entropy T*S    EENTRO =        -0.00000000
  eigenvalues    EBANDS =     -2685.96404190
  atomic energy  EATOM  =      8369.52358910
  ---------------------------------------------------
  free energy    TOTEN  =      -522.98058042 eV

  energy without entropy =     -522.98058042  energy(sigma->0) =     -522.98058042


--------------------------------------------------------------------------------------------------------




--------------------------------------- Iteration      1(  10)  ---------------------------------------


    POTLOK:  cpu time    1.2545: real time    1.2627
    SETDIJ:  cpu time    0.1750: real time    0.1756
    TRIAL :  cpu time   15.5483: real time   15.6793
    CORREC:  cpu time    6.8561: real time    6.9127
    CHARGE:  cpu time    2.2873: real time    2.3042
    --------------------------------------------
      LOOP:  cpu time   26.1558: real time   26.3743

 eigenvalue-minimisations  :     0
 total energy-change (2. order) :-0.1973915E+00  (-0.8741699E-01)
 number of electron     216.0000000 magnetization 
 augmentation part       -0.5345622 magnetization 

 Free energy of the ion-electron system (eV)
  ---------------------------------------------------
  alpha Z        PSCENC =        59.93625244
  Ewald energy   TEWEN  =     29245.76022916
  -Hartree energ DENC   =    -36311.03350052
  -exchange      EXHF   =         0.00000000
  -V(xc)+E(xc)   XCENC  =       657.92882419
  PAW double counting   =    160330.49599906  -160188.92151265
  entropy T*S    EENTRO =        -0.00000000
  eigenvalues    EBANDS =     -2686.86785272
  atomic energy  EATOM  =      8369.52358910
  ---------------------------------------------------
  free energy    TOTEN  =      -523.17797193 eV

  energy without entropy =     -523.17797193  energy(sigma->0) =     -523.17797193


--------------------------------------------------------------------------------------------------------




--------------------------------------- Iteration      1(  11)  ---------------------------------------


    POTLOK:  cpu time    1.2551: real time    1.2621
    SETDIJ:  cpu time    0.1767: real time    0.1773
    TRIAL :  cpu time   15.5627: real time   15.6701
    CORREC:  cpu time    6.8732: real time    6.9213
    CHARGE:  cpu time    2.2766: real time    2.2924
    --------------------------------------------
      LOOP:  cpu time   26.1664: real time   26.3515

 eigenvalue-minimisations  :     0
 total energy-change (2. order) :-0.8722465E-01  (-0.3367613E-01)
 number of electron     216.0000000 magnetization 
 augmentation part       -0.5306374 magnetization 

 Free energy of the ion-electron system (eV)
  ---------------------------------------------------
  alpha Z        PSCENC =        59.93625244
  Ewald energy   TEWEN  =     29245.76022916
  -Hartree energ DENC   =    -36305.07341992
  -exchange      EXHF   =         0.00000000
  -V(xc)+E(xc)   XCENC  =       657.85738827
  PAW double counting   =    160909.69362385  -160768.13987360
  entropy T*S    EENTRO =        -0.00000000
  eigenvalues    EBANDS =     -2692.82298589
  atomic energy  EATOM  =      8369.52358910
  ---------------------------------------------------
  free energy    TOTEN  =      -523.26519659 eV

  energy without entropy =     -523.26519659  energy(sigma->0) =     -523.26519659


--------------------------------------------------------------------------------------------------------




--------------------------------------- Iteration      1(  12)  ---------------------------------------


    POTLOK:  cpu time    1.2611: real time    1.2685
    SETDIJ:  cpu time    0.1675: real time    0.1680
    TRIAL :  cpu time   15.5616: real time   15.6733
    CORREC:  cpu time    6.8715: real time    6.9184
    CHARGE:  cpu time    2.2851: real time    2.3005
    --------------------------------------------
      LOOP:  cpu time   26.1738: real time   26.3610

 eigenvalue-minimisations  :     0
 total energy-change (2. order) :-0.3362036E-01  (-0.1025283E-01)
 number of electron     216.0000000 magnetization 
 augmentation part       -0.5303423 magnetization 

 Free energy of the ion-electron system (eV)
  ---------------------------------------------------
  alpha Z        PSCENC =        59.93625244
  Ewald energy   TEWEN  =     29245.76022916
  -Hartree energ DENC   =    -36300.54450199
  -exchange      EXHF   =         0.00000000
  -V(xc)+E(xc)   XCENC  =       657.78751111
  PAW double counting   =    160233.57512603  -160092.04899492
  entropy T*S    EENTRO =        -0.00000000
  eigenvalues    EBANDS =     -2697.28802788
  atomic energy  EATOM  =      8369.52358910
  ---------------------------------------------------
  free energy    TOTEN  =      -523.29881695 eV

  energy without entropy =     -523.29881695  energy(sigma->0) =     -523.29881695


--------------------------------------------------------------------------------------------------------




--------------------------------------- Iteration      1(  13)  ---------------------------------------


    POTLOK:  cpu time    1.2556: real time    1.2636
    SETDIJ:  cpu time    0.1742: real time    0.1748
    TRIAL :  cpu time   15.5609: real time   15.6752
    CORREC:  cpu time    6.8642: real time    6.9176
    CHARGE:  cpu time    2.2776: real time    2.2967
    --------------------------------------------
      LOOP:  cpu time   26.1754: real time   26.3973

 eigenvalue-minimisations  :     0
 total energy-change (2. order) :-0.1023208E-01  (-0.2819051E-02)
 number of electron     216.0000000 magnetization 
 augmentation part       -0.5308673 magnetization 

 Free energy of the ion-electron system (eV)
  ---------------------------------------------------
  alpha Z        PSCENC =        59.93625244
  Ewald energy   TEWEN  =     29245.76022916
  -Hartree energ DENC   =    -36299.38777768
  -exchange      EXHF   =         0.00000000
  -V(xc)+E(xc)   XCENC  =       657.74205694
  PAW double counting   =    159491.82838944  -159350.30689869
  entropy T*S    EENTRO =        -0.00000000
  eigenvalues    EBANDS =     -2698.40488974
  atomic energy  EATOM  =      8369.52358910
  ---------------------------------------------------
  free energy    TOTEN  =      -523.30904903 eV

  energy without entropy =     -523.30904903  energy(sigma->0) =     -523.30904903


--------------------------------------------------------------------------------------------------------




--------------------------------------- Iteration      1(  14)  ---------------------------------------


    POTLOK:  cpu time    1.2570: real time    1.2665
    SETDIJ:  cpu time    0.1728: real time    0.1734
    TRIAL :  cpu time   15.5273: real time   15.6638
    CORREC:  cpu time    6.8682: real time    6.9242
    CHARGE:  cpu time    2.2810: real time    2.3000
    --------------------------------------------
      LOOP:  cpu time   26.1402: real time   26.3659

 eigenvalue-minimisations  :     0
 total energy-change (2. order) :-0.2807898E-02  (-0.7854476E-03)
 number of electron     216.0000000 magnetization 
 augmentation part       -0.5311906 magnetization 

 Free energy of the ion-electron system (eV)
  ---------------------------------------------------
  alpha Z        PSCENC =        59.93625244
  Ewald energy   TEWEN  =     29245.76022916
  -Hartree energ DENC   =    -36299.51134684
  -exchange      EXHF   =         0.00000000
  -V(xc)+E(xc)   XCENC  =       657.73045595
  PAW double counting   =    159064.38290959  -158922.85996476
  entropy T*S    EENTRO =        -0.00000000
  eigenvalues    EBANDS =     -2698.27398157
  atomic energy  EATOM  =      8369.52358910
  ---------------------------------------------------
  free energy    TOTEN  =      -523.31185693 eV

  energy without entropy =     -523.31185693  energy(sigma->0) =     -523.31185693


--------------------------------------------------------------------------------------------------------




--------------------------------------- Iteration      1(  15)  ---------------------------------------


    POTLOK:  cpu time    1.2568: real time    1.2652
    SETDIJ:  cpu time    0.1707: real time    0.1713
    TRIAL :  cpu time   15.5537: real time   15.6836
    CORREC:  cpu time    6.8737: real time    6.9227
    CHARGE:  cpu time    2.2769: real time    2.2929
    --------------------------------------------
      LOOP:  cpu time   26.1561: real time   26.3864

 eigenvalue-minimisations  :     0
 total energy-change (2. order) :-0.7804078E-03  (-0.2438420E-03)
 number of electron     216.0000000 magnetization 
 augmentation part       -0.5314181 magnetization 

 Free energy of the ion-electron system (eV)
  ---------------------------------------------------
  alpha Z        PSCENC =        59.93625244
  Ewald energy   TEWEN  =     29245.76022916
  -Hartree energ DENC   =    -36299.44087923
  -exchange      EXHF   =         0.00000000
  -V(xc)+E(xc)   XCENC  =       657.72434079
  PAW double counting   =    158855.39589886  -158713.87165420
  entropy T*S    EENTRO =        -0.00000000
  eigenvalues    EBANDS =     -2698.34041425
  atomic energy  EATOM  =      8369.52358910
  ---------------------------------------------------
  free energy    TOTEN  =      -523.31263734 eV

  energy without entropy =     -523.31263734  energy(sigma->0) =     -523.31263734


--------------------------------------------------------------------------------------------------------




--------------------------------------- Iteration      1(  16)  ---------------------------------------


    POTLOK:  cpu time    1.2546: real time    1.2618
    SETDIJ:  cpu time    0.1760: real time    0.1765
    TRIAL :  cpu time   15.5757: real time   15.6852
    CORREC:  cpu time    6.8904: real time    6.9382
    CHARGE:  cpu time    2.2810: real time    2.2967
    --------------------------------------------
      LOOP:  cpu time   26.2179: real time   26.3998

 eigenvalue-minimisations  :     0
 total energy-change (2. order) :-0.2413942E-03  (-0.8943797E-04)
 number of electron     216.0000000 magnetization 
 augmentation part       -0.5315285 magnetization 

 Free energy of the ion-electron system (eV)
  ---------------------------------------------------
  alpha Z        PSCENC =        59.93625244
  Ewald energy   TEWEN  =     29245.76022916
  -Hartree energ DENC   =    -36299.36251003
  -exchange      EXHF   =         0.00000000
  -V(xc)+E(xc)   XCENC  =       657.71900515
  PAW double counting   =    158736.93394066  -158595.40804807
  entropy T*S    EENTRO =        -0.00000000
  eigenvalues    EBANDS =     -2698.41533714
  atomic energy  EATOM  =      8369.52358910
  ---------------------------------------------------
  free energy    TOTEN  =      -523.31287873 eV

  energy without entropy =     -523.31287873  energy(sigma->0) =     -523.31287873


--------------------------------------------------------------------------------------------------------




--------------------------------------- Iteration      1(  17)  ---------------------------------------


    POTLOK:  cpu time    1.2564: real time    1.2634
    SETDIJ:  cpu time    0.1764: real time    0.1770
    TRIAL :  cpu time   15.5596: real time   15.6705
    CORREC:  cpu time    6.8744: real time    6.9228
    CHARGE:  cpu time    2.2768: real time    2.2922
    --------------------------------------------
      LOOP:  cpu time   26.1925: real time   26.3938

 eigenvalue-minimisations  :     0
 total energy-change (2. order) :-0.8796866E-04  (-0.3544573E-04)
 number of electron     216.0000000 magnetization 
 augmentation part       -0.5315754 magnetization 

 Free energy of the ion-electron system (eV)
  ---------------------------------------------------
  alpha Z        PSCENC =        59.93625244
  Ewald energy   TEWEN  =     29245.76022916
  -Hartree energ DENC   =    -36299.53457667
  -exchange      EXHF   =         0.00000000
  -V(xc)+E(xc)   XCENC  =       657.72621298
  PAW double counting   =    158663.37438179  -158521.84837574
  entropy T*S    EENTRO =        -0.00000000
  eigenvalues    EBANDS =     -2698.25067976
  atomic energy  EATOM  =      8369.52358910
  ---------------------------------------------------
  free energy    TOTEN  =      -523.31296670 eV

  energy without entropy =     -523.31296670  energy(sigma->0) =     -523.31296670


--------------------------------------------------------------------------------------------------------




--------------------------------------- Iteration      1(  18)  ---------------------------------------


    POTLOK:  cpu time    1.2561: real time    1.2637
    SETDIJ:  cpu time    0.1738: real time    0.1744
    TRIAL :  cpu time   15.5616: real time   15.6742
    CORREC:  cpu time    6.8659: real time    6.9155
    CHARGE:  cpu time    2.2805: real time    2.2982
    --------------------------------------------
      LOOP:  cpu time   26.1859: real time   26.3791

 eigenvalue-minimisations  :     0
 total energy-change (2. order) :-0.3570048E-04  (-0.1313004E-04)
 number of electron     216.0000000 magnetization 
 augmentation part       -0.5315922 magnetization 

 Free energy of the ion-electron system (eV)
  ---------------------------------------------------
  alpha Z        PSCENC =        59.93625244
  Ewald energy   TEWEN  =     29245.76022916
  -Hartree energ DENC   =    -36299.59774592
  -exchange      EXHF   =         0.00000000
  -V(xc)+E(xc)   XCENC  =       657.72856823
  PAW double counting   =    158639.91937418  -158498.39307757
  entropy T*S    EENTRO =        -0.00000000
  eigenvalues    EBANDS =     -2698.19019202
  atomic energy  EATOM  =      8369.52358910
  ---------------------------------------------------
  free energy    TOTEN  =      -523.31300240 eV

  energy without entropy =     -523.31300240  energy(sigma->0) =     -523.31300240


--------------------------------------------------------------------------------------------------------




--------------------------------------- Iteration      1(  19)  ---------------------------------------


    POTLOK:  cpu time    1.2589: real time    1.2667
    SETDIJ:  cpu time    0.1752: real time    0.1758
    TRIAL :  cpu time   15.5699: real time   15.6890
    CORREC:  cpu time    6.8602: real time    6.9221
    CHARGE:  cpu time    2.2810: real time    2.2999
    --------------------------------------------
      LOOP:  cpu time   26.1750: real time   26.3846

 eigenvalue-minimisations  :     0
 total energy-change (2. order) :-0.1356151E-04  (-0.4815708E-05)
 number of electron     216.0000000 magnetization 
 augmentation part       -0.5315875 magnetization 

 Free energy of the ion-electron system (eV)
  ---------------------------------------------------
  alpha Z        PSCENC =        59.93625244
  Ewald energy   TEWEN  =     29245.76022916
  -Hartree energ DENC   =    -36299.59457489
  -exchange      EXHF   =         0.00000000
  -V(xc)+E(xc)   XCENC  =       657.72821757
  PAW double counting   =    158648.24355980  -158506.71701775
  entropy T*S    EENTRO =        -0.00000000
  eigenvalues    EBANDS =     -2698.19327139
  atomic energy  EATOM  =      8369.52358910
  ---------------------------------------------------
  free energy    TOTEN  =      -523.31301596 eV

  energy without entropy =     -523.31301596  energy(sigma->0) =     -523.31301596


--------------------------------------------------------------------------------------------------------




--------------------------------------- Iteration      1(  20)  ---------------------------------------


    POTLOK:  cpu time    1.2569: real time    1.2656
    SETDIJ:  cpu time    0.1762: real time    0.1769
    TRIAL :  cpu time   15.5378: real time   15.6635
    CORREC:  cpu time    6.8626: real time    6.9117
    CHARGE:  cpu time    2.2879: real time    2.3039
    --------------------------------------------
      LOOP:  cpu time   26.1607: real time   26.3629

 eigenvalue-minimisations  :     0
 total energy-change (2. order) :-0.5000737E-05  (-0.1687654E-05)
 number of electron     216.0000000 magnetization 
 augmentation part       -0.5315804 magnetization 

 Free energy of the ion-electron system (eV)
  ---------------------------------------------------
  alpha Z        PSCENC =        59.93625244
  Ewald energy   TEWEN  =     29245.76022916
  -Hartree energ DENC   =    -36299.61465332
  -exchange      EXHF   =         0.00000000
  -V(xc)+E(xc)   XCENC  =       657.72909584
  PAW double counting   =    158663.33504927  -158521.80858742
  entropy T*S    EENTRO =        -0.00000000
  eigenvalues    EBANDS =     -2698.17399604
  atomic energy  EATOM  =      8369.52358910
  ---------------------------------------------------
  free energy    TOTEN  =      -523.31302096 eV

  energy without entropy =     -523.31302096  energy(sigma->0) =     -523.31302096


--------------------------------------------------------------------------------------------------------




--------------------------------------- Iteration      1(  21)  ---------------------------------------


    POTLOK:  cpu time    1.2561: real time    1.2637
    SETDIJ:  cpu time    0.1744: real time    0.1750
    TRIAL :  cpu time   15.5562: real time   15.6764
    CORREC:  cpu time    6.8555: real time    6.9067
    CHARGE:  cpu time    2.2821: real time    2.2989
    --------------------------------------------
      LOOP:  cpu time   26.1523: real time   26.3515

 eigenvalue-minimisations  :     0
 total energy-change (2. order) :-0.1739507E-05  (-0.6340355E-06)
 number of electron     216.0000000 magnetization 
 augmentation part       -0.5315674 magnetization 

 Free energy of the ion-electron system (eV)
  ---------------------------------------------------
  alpha Z        PSCENC =        59.93625244
  Ewald energy   TEWEN  =     29245.76022916
  -Hartree energ DENC   =    -36299.61943816
  -exchange      EXHF   =         0.00000000
  -V(xc)+E(xc)   XCENC  =       657.72909443
  PAW double counting   =    158674.44702254  -158532.92060142
  entropy T*S    EENTRO =        -0.00000000
  eigenvalues    EBANDS =     -2698.16917079
  atomic energy  EATOM  =      8369.52358910
  ---------------------------------------------------
  free energy    TOTEN  =      -523.31302270 eV

  energy without entropy =     -523.31302270  energy(sigma->0) =     -523.31302270


--------------------------------------------------------------------------------------------------------




--------------------------------------- Iteration      1(  22)  ---------------------------------------


    POTLOK:  cpu time    1.2588: real time    1.2663
    SETDIJ:  cpu time    0.1731: real time    0.1737
    TRIAL :  cpu time   15.5578: real time   15.6765
    CORREC:  cpu time    6.8703: real time    6.9223
    CHARGE:  cpu time    2.2731: real time    2.2946
    --------------------------------------------
      LOOP:  cpu time   26.1753: real time   26.3804

 eigenvalue-minimisations  :     0
 total energy-change (2. order) :-0.6468326E-06  (-0.2741731E-06)
 number of electron     216.0000000 magnetization 
 augmentation part       -0.5315571 magnetization 

 Free energy of the ion-electron system (eV)
  ---------------------------------------------------
  alpha Z        PSCENC =        59.93625244
  Ewald energy   TEWEN  =     29245.76022916
  -Hartree energ DENC   =    -36299.61599674
  -exchange      EXHF   =         0.00000000
  -V(xc)+E(xc)   XCENC  =       657.72893197
  PAW double counting   =    158680.65907845  -158539.13273263
  entropy T*S    EENTRO =        -0.00000000
  eigenvalues    EBANDS =     -2698.17237509
  atomic energy  EATOM  =      8369.52358910
  ---------------------------------------------------
  free energy    TOTEN  =      -523.31302335 eV

  energy without entropy =     -523.31302335  energy(sigma->0) =     -523.31302335


--------------------------------------------------------------------------------------------------------




--------------------------------------- Iteration      1(  23)  ---------------------------------------


    POTLOK:  cpu time    1.2550: real time    1.2636
    SETDIJ:  cpu time    0.1736: real time    0.1742
    TRIAL :  cpu time   15.5309: real time   15.6787
    CORREC:  cpu time    6.8698: real time    6.9170
    CHARGE:  cpu time    2.2826: real time    2.2989
    --------------------------------------------
      LOOP:  cpu time   26.1817: real time   26.4104

 eigenvalue-minimisations  :     0
 total energy-change (2. order) :-0.2584420E-06  (-0.1684756E-06)
 number of electron     216.0000000 magnetization 
 augmentation part       -0.5315550 magnetization 

 Free energy of the ion-electron system (eV)
  ---------------------------------------------------
  alpha Z        PSCENC =        59.93625244
  Ewald energy   TEWEN  =     29245.76022916
  -Hartree energ DENC   =    -36299.61263038
  -exchange      EXHF   =         0.00000000
  -V(xc)+E(xc)   XCENC  =       657.72885738
  PAW double counting   =    158683.66038744  -158542.13410752
  entropy T*S    EENTRO =        -0.00000000
  eigenvalues    EBANDS =     -2698.17560124
  atomic energy  EATOM  =      8369.52358910
  ---------------------------------------------------
  free energy    TOTEN  =      -523.31302361 eV

  energy without entropy =     -523.31302361  energy(sigma->0) =     -523.31302361


--------------------------------------------------------------------------------------------------------




--------------------------------------- Iteration      1(  24)  ---------------------------------------


    POTLOK:  cpu time    1.2561: real time    1.2633
    SETDIJ:  cpu time    0.1759: real time    0.1765
    TRIAL :  cpu time   15.5556: real time   15.6725
    CORREC:  cpu time    6.8638: real time    6.9109
    CHARGE:  cpu time    2.2833: real time    2.2991
    --------------------------------------------
      LOOP:  cpu time   26.2085: real time   26.3994

 eigenvalue-minimisations  :     0
 total energy-change (2. order) :-0.7712515E-07  (-0.1207312E-06)
 number of electron     216.0000000 magnetization 
 augmentation part       -0.5315568 magnetization 

 Free energy of the ion-electron system (eV)
  ---------------------------------------------------
  alpha Z        PSCENC =        59.93625244
  Ewald energy   TEWEN  =     29245.76022916
  -Hartree energ DENC   =    -36299.60713675
  -exchange      EXHF   =         0.00000000
  -V(xc)+E(xc)   XCENC  =       657.72866144
  PAW double counting   =    158685.50676291  -158543.98049509
  entropy T*S    EENTRO =        -0.00000000
  eigenvalues    EBANDS =     -2698.18088690
  atomic energy  EATOM  =      8369.52358910
  ---------------------------------------------------
  free energy    TOTEN  =      -523.31302368 eV

  energy without entropy =     -523.31302368  energy(sigma->0) =     -523.31302368


--------------------------------------------------------------------------------------------------------




--------------------------------------- Iteration      1(  25)  ---------------------------------------


    POTLOK:  cpu time    1.2590: real time    1.2664
    SETDIJ:  cpu time    0.1732: real time    0.1738
    TRIAL :  cpu time   15.5540: real time   15.6702
    CORREC:  cpu time    6.8823: real time    6.9314
    EDDIAG:  cpu time    3.2074: real time    3.2318
    CHARGE:  cpu time    2.2843: real time    2.3023
    --------------------------------------------
      LOOP:  cpu time   29.3990: real time   29.6256

 eigenvalue-minimisations  :     0
 total energy-change (2. order) :-0.2945308E-07  (-0.7890138E-07)
 number of electron     216.0000000 magnetization 
 augmentation part       -0.5315606 magnetization 

 Free energy of the ion-electron system (eV)
  ---------------------------------------------------
  alpha Z        PSCENC =        59.93625244
  Ewald energy   TEWEN  =     29245.76022916
  -Hartree energ DENC   =    -36299.61049285
  -exchange      EXHF   =         0.00000000
  -V(xc)+E(xc)   XCENC  =       657.72889304
  PAW double counting   =    158684.92414598  -158543.39789780
  entropy T*S    EENTRO =        -0.00000000
  eigenvalues    EBANDS =     -2698.17774278
  atomic energy  EATOM  =      8369.52358910
  ---------------------------------------------------
  free energy    TOTEN  =      -523.31302371 eV

  energy without entropy =     -523.31302371  energy(sigma->0) =     -523.31302371


--------------------------------------------------------------------------------------------------------


  average scaling for gradient   0.8992


 average (electrostatic) potential at core
  the test charge radii are     0.5770  0.5955
  (the norm of the test charge is              1.0000)
       1 -87.6318       2 -87.6314       3 -87.6316       4 -87.6320       5 -87.6308
       6 -87.6308       7 -87.6316       8 -87.6307       9 -87.6310      10 -87.6311
      11 -87.6308      12 -87.6307      13 -87.6311      14 -87.6310      15 -87.6306
      16 -87.6308      17 -87.6312      18 -87.6314      19 -87.6316      20 -87.6312
      21 -87.6307      22 -87.6306      23 -87.6323      24 -87.6322      25 -87.6307
      26 -87.6307      27 -87.6310      28 -87.6317      29 -87.6306      30 -87.6307
      31 -87.6317      32 -87.6314      33 -87.6309      34 -87.6309      35 -87.6308
      36 -87.6309      37 -87.6313      38 -87.6315      39 -87.6313      40 -87.6314
      41 -87.6314      42 -87.6314      43 -87.6313      44 -87.6316      45 -87.6307
      46 -87.6307      47 -87.6307      48 -87.6308      49 -87.6315      50 -87.6313
      51 -91.5282      52-123.9116      53-123.9107
 
 
 
 E-fermi :  -4.0251     XC(G=0):  -2.3569     alpha+bet : -2.1113

 Fermi energy:        -4.0251239616

 k-point     1 :       0.0000    0.0000    0.0000
  band No.  band energies     occupation 
      1     -28.8081      2.00000
      2     -27.6995      2.00000
      3     -23.3378      2.00000
      4     -22.3457      2.00000
      5     -22.3442      2.00000
      6     -22.3440      2.00000
      7     -22.3438      2.00000
      8     -22.3436      2.00000
      9     -22.3429      2.00000
     10     -20.3985      2.00000
     11     -20.3984      2.00000
     12     -20.3981      2.00000
     13     -20.3974      2.00000
     14     -20.3968      2.00000
     15     -20.3966      2.00000
     16     -19.4556      2.00000
     17     -19.4554      2.00000
     18     -19.4550      2.00000
     19     -19.4548      2.00000
     20     -19.4540      2.00000
     21     -19.4537      2.00000
     22     -17.2150      2.00000
     23     -17.2146      2.00000
     24     -17.2140      2.00000
     25     -17.2138      2.00000
     26     -17.2132      2.00000
     27     -17.2130      2.00000
     28     -16.0467      2.00000
     29     -16.0467      2.00000
     30     -16.0456      2.00000
     31     -16.0454      2.00000
     32     -16.0451      2.00000
     33     -16.0450      2.00000
     34     -14.6398      2.00000
     35     -14.6397      2.00000
     36     -14.6390      2.00000
     37     -14.6389      2.00000
     38     -14.6388      2.00000
     39     -14.6385      2.00000
     40     -12.8686      2.00000
     41     -12.1479      2.00000
     42     -12.1477      2.00000
     43     -12.1472      2.00000
     44     -12.1471      2.00000
     45     -12.1460      2.00000
     46     -12.1457      2.00000
     47     -11.9404      2.00000
     48     -11.9402      2.00000
     49     -11.9395      2.00000
     50     -11.9394      2.00000
     51     -11.9394      2.00000
     52     -11.9392      2.00000
     53     -11.5233      2.00000
     54     -11.3283      2.00000
     55     -11.3282      2.00000
     56     -10.6313      2.00000
     57     -10.4779      2.00000
     58     -10.4777      2.00000
     59     -10.4761      2.00000
     60     -10.4757      2.00000
     61     -10.4755      2.00000
     62     -10.4754      2.00000
     63      -9.4548      2.00000
     64      -9.4536      2.00000
     65      -9.4534      2.00000
     66      -9.4532      2.00000
     67      -9.4531      2.00000
     68      -9.4527      2.00000
     69      -9.1463      2.00000
     70      -9.1451      2.00000
     71      -9.1447      2.00000
     72      -9.1447      2.00000
     73      -9.1443      2.00000
     74      -9.1441      2.00000
     75      -9.1397      2.00000
     76      -9.1395      2.00000
     77      -9.1386      2.00000
     78      -9.1383      2.00000
     79      -9.1382      2.00000
     80      -9.1376      2.00000
     81      -7.6907      2.00000
     82      -7.6906      2.00000
     83      -7.4012      2.00000
     84      -7.3994      2.00000
     85      -7.3993      2.00000
     86      -7.3989      2.00000
     87      -7.3980      2.00000
     88      -7.3979      2.00000
     89      -7.2066      2.00000
     90      -7.2063      2.00000
     91      -7.2062      2.00000
     92      -7.2057      2.00000
     93      -7.2053      2.00000
     94      -7.2050      2.00000
     95      -6.2611      2.00000
     96      -6.2610      2.00000
     97      -6.2607      2.00000
     98      -6.2607      2.00000
     99      -6.2599      2.00000
    100      -6.2597      2.00000
    101      -5.8291      2.00000
    102      -5.8268      2.00000
    103      -4.1616      2.00000
    104      -4.1612      2.00000
    105      -4.1607      2.00000
    106      -4.1606      2.00000
    107      -4.1600      2.00000
    108      -4.1600      2.00000
    109      -1.1677      0.00000
    110      -1.1675      0.00000
    111      -1.1673      0.00000
    112      -1.1671      0.00000
    113      -1.1664      0.00000
    114      -1.1661      0.00000
    115       0.8242      0.00000
    116       0.8244      0.00000
    117       0.8248      0.00000
    118       0.8248      0.00000
    119       0.8252      0.00000
    120       0.8264      0.00000
    121       1.0652      0.00000
    122       1.3383      0.00000
    123       1.5307      0.00000
    124       1.5311      0.00000
    125       1.8079      0.00000
    126       2.3351      0.00000
    127       2.3815      0.00000
    128       2.3885      0.00000
    129       2.3913      0.00000
    130       2.3942      0.00000
    131       2.3950      0.00000
    132       2.4956      0.00000
    133       2.6914      0.00000
    134       2.6915      0.00000
    135       2.6919      0.00000
    136       2.6922      0.00000
    137       2.6925      0.00000
    138       2.6929      0.00000
    139       2.8901      0.00000
    140       3.0228      0.00000
    141       3.0944      0.00000
    142       3.0981      0.00000
    143       3.1134      0.00000
    144       3.1293      0.00000
    145       3.1346      0.00000
    146       3.1371      0.00000
    147       3.2108      0.00000
    148       3.2287      0.00000
    149       3.2588      0.00000
    150       3.3347      0.00000
    151       3.3561      0.00000
    152       4.3648      0.00000
    153       4.5549      0.00000
    154       4.7599      0.00000
    155       4.9479      0.00000
    156       4.9685      0.00000
    157       5.1118      0.00000
    158       5.1862      0.00000
    159       5.2026      0.00000
    160       5.2196      0.00000
    161       5.2208      0.00000
    162       5.2212      0.00000
    163       5.2216      0.00000
    164       5.2220      0.00000
    165       5.2629      0.00000
    166       5.2836      0.00000
    167       5.3105      0.00000
    168       5.3253      0.00000


--------------------------------------------------------------------------------------------------------


 soft charge-density along one line, spin component           1
         0         1         2         3         4         5         6         7         8         9
 total charge-density along one line
 
 pseudopotential strength for first ion, spin component:           1
 12.626  21.244   0.000   0.000   0.000   0.000   0.000   0.000
 21.244  35.745   0.000   0.000   0.000   0.000   0.000   0.000
  0.000   0.000  -3.230  -0.000   0.000  -5.784   0.000   0.000
  0.000   0.000  -0.000  -3.230  -0.000   0.000  -5.784  -0.000
  0.000   0.000   0.000  -0.000  -3.230   0.000  -0.000  -5.784
  0.000   0.000  -5.784   0.000   0.000 -10.336   0.000   0.000
  0.000   0.000   0.000  -5.784  -0.000   0.000 -10.335  -0.000
  0.000   0.000   0.000  -0.000  -5.784   0.000  -0.000 -10.336
 total augmentation occupancy for first ion, spin component:           1
 10.264  -3.894  -0.000  -0.002  -0.000   0.000   0.001   0.000
 -3.894   1.507   0.000   0.001   0.000  -0.000  -0.000  -0.000
 -0.000   0.000   8.469  -0.009   0.000  -3.024   0.003  -0.000
 -0.002   0.001  -0.009   4.016  -0.000   0.003  -1.207   0.000
 -0.000   0.000   0.000  -0.000   8.468  -0.000   0.000  -3.024
  0.000  -0.000  -3.024   0.003  -0.000   1.093  -0.001   0.000
  0.001  -0.000   0.003  -1.207   0.000  -0.001   0.368  -0.000
  0.000  -0.000  -0.000   0.000  -3.024   0.000  -0.000   1.093


------------------------ aborting loop because EDIFF is reached ----------------------------------------


    FORLOC:  cpu time    0.1070: real time    0.1077
    FORNL :  cpu time    2.9655: real time    2.9911
    FORCOR:  cpu time    1.2661: real time    1.2734
    OFIELD:  cpu time    0.0024: real time    0.0025
 WARNING: Using user supplied parameters
     VDW_A1 = 0.495
     VDW_A2 = 5.731
     VDW_S8 = 0.79
     because the xc functional is not supported. Required parameters not
     defined in the INCAR file will be replaced with PBE defaults ones.


 ---------------------------------------------------------------------------------------------

         DFTD3 V3.0 Rev 1        
 IVDW         = 12
 DF unknown   
 parameters
 VDW_S6       =    1.0000
 VDW_S8       =    0.7898
 VDW_A1       =    0.4948
 VDW_A2       =    5.7308
 k1-k3        =   16.0000    1.3333   -4.0000
 VDW_RADIUS   =   50.2022 A
 VDW_CNRADIUS =   21.1671 A
 Edisp (eV)   -1.69247

 E6    (eV) :    -1.3068
 E8    (eV) :    -0.3856
 % E8        : 22.79
    FORVDW:  cpu time    0.1538: real time    0.1556

 VOLUME and BASIS-vectors are now :
 -----------------------------------------------------------------------------
  energy-cutoff  :     1000.00
  volume of cell :     2631.08
      direct lattice vectors                 reciprocal lattice vectors
    12.325000000  0.000000000  0.000000000     0.081135903  0.046843835  0.000000000
    -6.162500000 10.673763102  0.000000000     0.000000000  0.093687670  0.000000000
     0.000000000  0.000000000 20.000000000     0.000000000  0.000000000  0.050000000

  length of vectors
    12.325000000 12.325000000 20.000000000     0.093687670  0.093687670  0.050000000


 FORCES acting on ions:
    Electron-Ion                     Ewald-Force                    Non-Local-Force
 -----------------------------------------------------------------------------------------------
   0.514E+00 0.458E+00 0.186E+01   -.515E+00 -.460E+00 -.187E+01   0.431E-02 -.685E-03 0.584E-02
   0.696E+00 0.405E+00 0.254E+01   -.699E+00 -.402E+00 -.253E+01   0.253E-02 -.314E-02 -.617E-02
   0.280E+00 0.752E+00 0.220E+01   -.281E+00 -.752E+00 -.221E+01   -.336E-03 0.111E-01 -.272E-02
   0.350E+00 0.502E+00 0.384E+01   -.347E+00 -.501E+00 -.383E+01   0.114E-01 0.442E-03 -.184E-01
   0.586E+00 0.160E+00 0.233E+01   -.584E+00 -.161E+00 -.234E+01   -.773E-03 -.513E-02 0.444E-02
   0.597E+00 -.141E+00 0.250E+01   -.600E+00 0.142E+00 -.250E+01   -.644E-02 0.342E-02 -.140E-02
   0.652E+00 0.315E+00 0.412E+01   -.653E+00 -.316E+00 -.411E+01   0.113E-01 -.191E-01 -.798E-02
   0.688E+00 -.201E+00 0.528E+01   -.692E+00 0.203E+00 -.526E+01   -.772E-02 -.512E-02 -.641E-02
   -.318E+00 0.771E+00 0.268E+01   0.321E+00 -.774E+00 -.268E+01   0.276E-03 -.136E-01 -.527E-02
   -.377E+00 0.345E+00 0.427E+01   0.377E+00 -.345E+00 -.426E+01   -.254E-01 0.144E-01 0.153E-02
   0.150E+00 -.161E+00 0.194E+01   -.147E+00 0.160E+00 -.194E+01   0.411E-02 -.264E-02 0.170E-02
   0.160E+00 -.131E+00 0.187E+01   -.160E+00 0.132E+00 -.187E+01   -.645E-02 0.321E-02 0.773E-02
   0.156E+00 -.518E+00 0.589E+01   -.156E+00 0.520E+00 -.586E+01   0.260E-01 -.724E-02 -.345E-02
   0.106E+00 -.841E+00 0.385E+01   -.110E+00 0.843E+00 -.384E+01   0.322E-02 0.724E-02 -.169E-01
   -.568E+00 0.337E+00 0.199E+01   0.571E+00 -.339E+00 -.200E+01   0.753E-02 -.424E-02 0.926E-02
   -.696E+00 0.177E+00 0.197E+01   0.695E+00 -.177E+00 -.197E+01   -.102E-02 0.486E-02 -.364E-02
   -.986E-01 -.422E-01 0.148E+01   0.101E+00 0.404E-01 -.149E+01   0.296E-03 0.371E-03 0.269E-02
   0.495E-01 0.344E+00 0.146E+01   -.492E-01 -.344E+00 -.147E+01   -.276E-02 0.143E-02 0.974E-02
   -.150E+00 -.790E+00 0.278E+01   0.150E+00 0.792E+00 -.278E+01   0.559E-02 -.119E-02 -.121E-03
   -.936E-01 -.497E+00 0.203E+01   0.907E-01 0.497E+00 -.203E+01   -.260E-03 -.564E-03 -.341E-03
   0.759E+00 -.313E+00 0.343E+01   -.759E+00 0.313E+00 -.342E+01   -.227E-02 -.183E-02 -.159E-01
   0.557E+00 -.438E+00 0.289E+01   -.560E+00 0.439E+00 -.289E+01   -.695E-02 0.536E-02 -.588E-03
   -.112E+00 0.193E+00 0.543E+01   0.108E+00 -.191E+00 -.541E+01   -.103E-01 0.102E-01 -.195E-02
   -.182E+00 -.320E+00 0.546E+01   0.184E+00 0.318E+00 -.543E+01   0.120E-01 -.146E-01 -.140E-01
   0.296E+00 -.102E+00 0.203E+01   -.294E+00 0.101E+00 -.203E+01   0.382E-02 -.268E-02 -.129E-02
   0.978E-01 0.256E+00 0.183E+01   -.981E-01 -.255E+00 -.183E+01   -.483E-02 0.314E-02 0.732E-02
   -.813E+00 0.473E-01 0.297E+01   0.817E+00 -.495E-01 -.297E+01   0.125E-01 0.750E-02 -.302E-02
   -.728E+00 -.322E+00 0.247E+01   0.729E+00 0.322E+00 -.247E+01   -.799E-02 0.900E-02 -.220E-03
   0.287E+00 -.621E+00 0.293E+01   -.286E+00 0.621E+00 -.293E+01   0.379E-02 0.252E-02 -.553E-02
   0.283E-01 -.268E+00 0.218E+01   -.304E-01 0.270E+00 -.218E+01   -.491E-02 0.246E-02 -.548E-03
   -.515E+00 -.508E+00 0.314E+01   0.513E+00 0.509E+00 -.314E+01   -.116E-01 -.766E-02 -.159E-01
   -.389E+00 -.762E+00 0.241E+01   0.390E+00 0.761E+00 -.242E+01   0.700E-03 -.519E-03 0.618E-03
   0.198E-01 0.182E+00 0.174E+01   -.195E-01 -.183E+00 -.175E+01   0.478E-02 -.458E-02 0.858E-02
   0.896E-01 0.147E+00 0.179E+01   -.925E-01 -.146E+00 -.179E+01   -.236E-02 0.461E-02 0.458E-03
   -.374E+00 0.719E-01 0.181E+01   0.377E+00 -.728E-01 -.182E+01   0.441E-02 -.254E-02 0.769E-02
   -.326E+00 -.161E+00 0.178E+01   0.325E+00 0.161E+00 -.178E+01   -.337E-02 0.211E-02 0.528E-02
   -.596E+00 -.342E+00 0.176E+01   0.599E+00 0.340E+00 -.176E+01   -.208E-03 0.104E-02 0.356E-02
   -.403E+00 -.330E+00 0.162E+01   0.404E+00 0.330E+00 -.163E+01   -.344E-02 0.131E-02 0.926E-02
   -.370E+00 -.466E+00 0.170E+01   0.370E+00 0.467E+00 -.170E+01   -.266E-02 0.656E-03 0.427E-02
   -.510E-01 -.139E+00 0.158E+01   0.521E-01 0.138E+00 -.159E+01   0.187E-02 0.870E-03 0.711E-02
   0.147E+00 0.353E+00 0.146E+01   -.148E+00 -.353E+00 -.147E+01   -.389E-02 0.151E-02 0.673E-02
   0.435E+00 0.629E+00 0.170E+01   -.433E+00 -.630E+00 -.171E+01   -.104E-02 -.118E-02 0.676E-02
   0.587E-01 0.578E+00 0.154E+01   -.558E-01 -.580E+00 -.154E+01   0.188E-03 0.216E-03 0.293E-02
   0.161E-01 0.811E+00 0.203E+01   -.156E-01 -.812E+00 -.204E+01   -.778E-02 0.125E-02 0.471E-02
   -.118E+00 0.214E+00 0.191E+01   0.119E+00 -.215E+00 -.192E+01   0.416E-02 -.327E-02 0.350E-02
   -.387E+00 0.516E+00 0.203E+01   0.386E+00 -.515E+00 -.203E+01   -.554E-02 -.177E-03 0.162E-03
   -.136E+00 -.257E+00 0.206E+01   0.136E+00 0.257E+00 -.206E+01   0.578E-02 -.118E-02 0.761E-02
   -.243E+00 0.821E-01 0.171E+01   0.241E+00 -.814E-01 -.171E+01   -.364E-02 0.334E-02 -.137E-02
   0.166E-01 -.154E+00 0.170E+01   -.167E-01 0.154E+00 -.171E+01   0.397E-02 -.293E-02 0.602E-02
   0.249E+00 0.181E+00 0.165E+01   -.251E+00 -.180E+00 -.166E+01   -.591E-03 0.185E-02 0.370E-02
   -.612E-02 0.318E-01 -.304E+02   0.169E-02 -.277E-01 0.305E+02   -.287E-02 0.185E-02 -.937E-03
   -.228E+03 0.155E+03 -.573E+02   0.279E+03 -.190E+03 0.607E+02   -.523E+02 0.356E+02 -.351E+01
   0.228E+03 -.155E+03 -.376E+02   -.279E+03 0.190E+03 0.345E+02   0.523E+02 -.356E+02 0.316E+01
 -----------------------------------------------------------------------------------------------
   -.817E-02 0.144E-01 0.357E+00   0.000E+00 0.568E-13 -.426E-13   0.765E-02 -.149E-01 -.348E+00
 
 
 POSITION                                       TOTAL-FORCE (eV/Angst)
 -----------------------------------------------------------------------------------
     11.98348      0.00342      0.01417         0.003521     -0.001930     -0.001416
     -0.34154      1.42665      0.01100        -0.000742     -0.000137     -0.003689
      2.12355      0.00315      0.01249        -0.002244      0.011106     -0.007247
      2.12326      1.42653      0.00641         0.014228      0.001055     -0.008689
     10.75099      2.13819      0.01213         0.000959     -0.005921     -0.000152
     -1.57382      3.56123      0.01110        -0.009487      0.004503     -0.001454
      0.89078      2.13854      0.00548         0.010018     -0.019823      0.002838
      0.89099      3.56147      0.00181        -0.011883     -0.002834      0.013399
      4.58864      0.00346      0.01135         0.003493     -0.016138     -0.003933
      4.58894      1.42623      0.00646        -0.024125      0.013657      0.015336
      9.51854      4.27281      0.01369         0.007071     -0.002879      0.000058
     -2.80632      5.69591      0.01434        -0.007128      0.003424      0.000660
      2.12300      4.27302      0.00000         0.025671     -0.005264      0.022903
      2.12335      5.69594      0.00581        -0.000466      0.009157     -0.002521
      7.05344      0.00333      0.01399         0.009492     -0.005738     -0.000601
      7.05353      1.42635      0.01368        -0.001840      0.005192     -0.004087
      8.28610      6.40752      0.01601         0.003081     -0.001177     -0.001135
     -4.03885      7.83070      0.01636        -0.002616      0.001059     -0.000451
      3.35586      6.40753      0.01007         0.005689      0.000662     -0.001186
      3.35599      7.83072      0.01320        -0.002977      0.000156     -0.000855
     -0.34146      4.27290      0.00723        -0.001608     -0.001452     -0.004349
     -0.34138      5.69591      0.00946        -0.009476      0.006598     -0.001079
      3.35624      2.13791      0.00222        -0.014663      0.012327      0.017786
      3.35573      3.56155      0.00139         0.014448     -0.016797      0.009817
     -1.57395      6.40758      0.01311         0.005610     -0.003907     -0.000576
     -1.57385      7.83068      0.01438        -0.005299      0.004113     -0.000232
      5.82093      2.13784      0.01033         0.016003      0.005135     -0.003256
      5.82114      3.56097      0.01156        -0.006513      0.008924     -0.004294
      0.89092      6.40755      0.00907         0.004829      0.002287     -0.002060
      0.89106      7.83068      0.01235        -0.006917      0.004310      0.000249
      4.58871      4.27293      0.00850        -0.013829     -0.006268     -0.011533
      4.58852      5.69606      0.01149         0.002568     -0.001612     -0.004406
      9.51845      0.00337      0.01490         0.005167     -0.005028     -0.000061
      9.51855      1.42644      0.01438        -0.005418      0.005487     -0.000450
      8.28593      2.13803      0.01453         0.007193     -0.003506      0.000308
      8.28613      3.56115      0.01464        -0.004762      0.002196     -0.000164
      7.05356      4.27269      0.01457         0.002619     -0.000928     -0.001144
      7.05362      5.69588      0.01553        -0.002661      0.001549     -0.000327
      5.82112      6.40755      0.01489        -0.003327      0.002008     -0.000398
      5.82102      7.83073      0.01579         0.003133      0.000231     -0.000576
      7.05363      8.54227      0.01631        -0.004860      0.001575      0.000782
     -5.27149      9.96549      0.01495         0.000500     -0.002057     -0.002759
     -2.80638      8.54234      0.01558         0.003159     -0.001401     -0.001601
     -2.80627      9.96553      0.01362        -0.007316      0.000134     -0.004488
     -0.34149      8.54239      0.01378         0.005868     -0.005341      0.000150
     -0.34138      9.96550      0.01354        -0.006085      0.000371     -0.001445
      2.12343      8.54232      0.01336         0.006095     -0.001838      0.000803
      2.12354      9.96544      0.01469        -0.005123      0.004241     -0.002160
      4.58846      8.54235      0.01505         0.003877     -0.002867      0.000840
      4.58853      9.96550      0.01517        -0.002615      0.003558     -0.000136
      3.04930      2.68154      9.43874        -0.007318      0.005892      0.039684
      4.02070      2.02068      9.50316        -1.425053      0.969127     -0.111377
      2.07767      3.34267      9.37929         1.432059     -0.975190      0.070674
 -----------------------------------------------------------------------------------
    total drift:                               -0.000524     -0.000528      0.008772


--------------------------------------------------------------------------------------------------------



  FREE ENERGIE OF THE ION-ELECTRON SYSTEM (eV)
  ---------------------------------------------------
  free  energy   TOTEN  =      -525.00549285 eV

  energy  without entropy=     -525.00549285  energy(sigma->0) =     -525.00549285
 


--------------------------------------------------------------------------------------------------------


    POTLOK:  cpu time    1.4309: real time    1.4389


--------------------------------------------------------------------------------------------------------


 writing wavefunctions
     LOOP+:  cpu time  688.2121: real time  694.0902
    4ORBIT:  cpu time    0.0000: real time    0.0000

 total amount of memory used by VASP MPI-rank0   556209. kBytes
=======================================================================

   base      :      30000. kBytes
   nonl-proj :     184518. kBytes
   fftplans  :      31725. kBytes
   grid      :     282516. kBytes
   one-center:        162. kBytes
   wavefun   :      27288. kBytes
 
  
  
 General timing and accounting informations for this job:
 ========================================================
  
                  Total CPU time used (sec):      722.426
                            User time (sec):      702.293
                          System time (sec):       20.133
                         Elapsed time (sec):      729.360
  
                   Maximum memory used (kb):     1034832.
                   Average memory used (kb):          N/A
  
                          Minor page faults:       145650
                          Major page faults:           98
                 Voluntary context switches:         3781
