 vasp.6.2.1 16May21 (build Nov 06 2021 14:46:37) complex                        
  
 executed on             LinuxIFC date 2025.03.03  16:59:12
 running on  112 total cores
 distrk:  each k-point on   56 cores,    2 groups
 distr:  one band on NCORE=   1 cores,   56 groups


--------------------------------------------------------------------------------------------------------


 INCAR:
   ALGO = Conjugate
   KPAR = 2
   NCORE = 32
   PREC = Accurate
   EDIFF = 1E-7
   ENCUT = 1000
   ISMEAR = 0
   SIGMA = 0.01
   ISIF = 0
   GGA = PE
   IVDW = 202
   LVDWEXPANSION = .TRUE.
   LWAVE = .FALSE.
   LCHARGE = .FALSE.
   SYMPREC = 1E-7

 POTCAR:    PAW_PBE C_h 06Feb2004                 
 POTCAR:    PAW_PBE O_h 06Feb2004                 
 -----------------------------------------------------------------------------
|                                                                             |
|           W    W    AA    RRRRR   N    N  II  N    N   GGGG   !!!           |
|           W    W   A  A   R    R  NN   N  II  NN   N  G    G  !!!           |
|           W    W  A    A  R    R  N N  N  II  N N  N  G       !!!           |
|           W WW W  AAAAAA  RRRRR   N  N N  II  N  N N  G  GGG   !            |
|           WW  WW  A    A  R   R   N   NN  II  N   NN  G    G                |
|           W    W  A    A  R    R  N    N  II  N    N   GGGG   !!!           |
|                                                                             |
|     The value NCORE = 32 specified in the INCAR file was overwritten,       |
|     because it was not compatible with the 56 processes available:          |
|     NCORE = 1                                                               |
|     was used instead, please check that this makes sense for your           |
|     machine.                                                                |
|                                                                             |
 -----------------------------------------------------------------------------

 -----------------------------------------------------------------------------
|                                                                             |
|           W    W    AA    RRRRR   N    N  II  N    N   GGGG   !!!           |
|           W    W   A  A   R    R  NN   N  II  NN   N  G    G  !!!           |
|           W    W  A    A  R    R  N N  N  II  N N  N  G       !!!           |
|           W WW W  AAAAAA  RRRRR   N  N N  II  N  N N  G  GGG   !            |
|           WW  WW  A    A  R   R   N   NN  II  N   NN  G    G                |
|           W    W  A    A  R    R  N    N  II  N    N   GGGG   !!!           |
|                                                                             |
|     For optimal performance we recommend to set                             |
|       NCORE = 2 up to number-of-cores-per-socket                            |
|     NCORE specifies how many cores store one orbital (NPAR=cpu/NCORE).      |
|     This setting can greatly improve the performance of VASP for DFT.       |
|     The default, NCORE=1 might be grossly inefficient on modern             |
|     multi-core architectures or massively parallel machines. Do your        |
|     own testing! More info at https://www.vasp.at/wiki/index.php/NCORE      |
|     Unfortunately you need to use the default for GW and RPA                |
|     calculations (for HF NCORE is supported but not extensively tested      |
|     yet).                                                                   |
|                                                                             |
 -----------------------------------------------------------------------------

 POTCAR:    PAW_PBE C_h 06Feb2004                 
   VRHFIN =C: s2p2                                                                                  
   LEXCH  = PE                                                                                      
   EATOM  =   147.1560 eV,   10.8157 Ry                                                             
                                                                                                    
   TITEL  = PAW_PBE C_h 06Feb2004                                                                   
   LULTRA =        F    use ultrasoft PP ?                                                          
   IUNSCR =        1    unscreen: 0-lin 1-nonlin 2-no                                               
   RPACOR =    0.800    partial core radius                                                         
   POMASS =   12.011; ZVAL   =    4.000    mass and valenz                                          
   RCORE  =    1.100    outmost cutoff radius                                                       
   RWIGS  =    1.630; RWIGS  =    0.863    wigner-seitz radius (au A)                               
   ENMAX  =  700.000; ENMIN  =  500.000 eV                                                          
   ICORE  =        2    local potential                                                             
   LCOR   =        T    correct aug charges                                                         
   LPAW   =        T    paw PP                                                                      
   EAUG   =  946.768                                                                                
   DEXC   =    0.000                                                                                
   RMAX   =    1.128    core radius for proj-oper                                                   
   RAUG   =    1.300    factor for augmentation sphere                                              
   RDEP   =    1.162    radius for radial grids                                                     
   RDEPT  =    1.088    core radius for aug-charge                                                  
                                                                                                    
   Atomic configuration                                                                             
    4 entries                                                                                       
     n  l   j            E        occ.                                                              
     1  0  0.50      -273.3789   2.0000                                                             
     2  0  0.50       -13.7508   2.0000                                                             
     2  1  0.50        -5.2854   2.0000                                                             
     3  2  1.50        -5.4423   0.0000                                                             
   Description                                                                                      
     l       E           TYP  RCUT    TYP  RCUT                                                     
     0    -13.7508458     23  1.100                                                                 
     0     -8.2022199     23  1.100                                                                 
     1     -5.2854383     23  1.100                                                                 
     1      1.1560700     23  1.100                                                                 
     2     -5.4423304      7  1.100                                                                 
  local pseudopotential read in
  partial core-charges read in
  partial kinetic energy density read in
  atomic valenz-charges read in
  non local Contribution for L=           0  read in
    real space projection operators read in
  non local Contribution for L=           0  read in
    real space projection operators read in
  non local Contribution for L=           1  read in
    real space projection operators read in
  non local Contribution for L=           1  read in
    real space projection operators read in
    PAW grid and wavefunctions read in
 
   number of l-projection  operators is LMAX  =           4
   number of lm-projection operators is LMMAX =           8
 
 POTCAR:    PAW_PBE O_h 06Feb2004                 
   VRHFIN =O: s2p4                                                                                  
   LEXCH  = PE                                                                                      
   EATOM  =   432.3788 eV,   31.7789 Ry                                                             
                                                                                                    
   TITEL  = PAW_PBE O_h 06Feb2004                                                                   
   LULTRA =        F    use ultrasoft PP ?                                                          
   IUNSCR =        1    unscreen: 0-lin 1-nonlin 2-no                                               
   RPACOR =    0.800    partial core radius                                                         
   POMASS =   16.000; ZVAL   =    6.000    mass and valenz                                          
   RCORE  =    1.100    outmost cutoff radius                                                       
   RWIGS  =    1.400; RWIGS  =    0.741    wigner-seitz radius (au A)                               
   ENMAX  =  700.000; ENMIN  =  500.000 eV                                                          
   ICORE  =        2    local potential                                                             
   LCOR   =        T    correct aug charges                                                         
   LPAW   =        T    paw PP                                                                      
   EAUG   =  888.804                                                                                
   DEXC   =    0.000                                                                                
   RMAX   =    1.128    core radius for proj-oper                                                   
   RAUG   =    1.300    factor for augmentation sphere                                              
   RDEP   =    1.125    radius for radial grids                                                     
   RDEPT  =    1.088    core radius for aug-charge                                                  
                                                                                                    
   Atomic configuration                                                                             
    4 entries                                                                                       
     n  l   j            E        occ.                                                              
     1  0  0.50      -514.6923   2.0000                                                             
     2  0  0.50       -23.9615   2.0000                                                             
     2  1  0.50        -9.0305   4.0000                                                             
     3  2  1.50        -9.5241   0.0000                                                             
   Description                                                                                      
     l       E           TYP  RCUT    TYP  RCUT                                                     
     0    -23.9615319     23  1.100                                                                 
     0    -25.3221145     23  1.100                                                                 
     1     -9.0304911     23  1.100                                                                 
     1     -5.4802209     23  1.100                                                                 
     2     -9.5240782      7  1.100                                                                 
  local pseudopotential read in
  partial core-charges read in
  partial kinetic energy density read in
  atomic valenz-charges read in
  non local Contribution for L=           0  read in
    real space projection operators read in
  non local Contribution for L=           0  read in
    real space projection operators read in
  non local Contribution for L=           1  read in
    real space projection operators read in
  non local Contribution for L=           1  read in
    real space projection operators read in
    PAW grid and wavefunctions read in
 
   number of l-projection  operators is LMAX  =           4
   number of lm-projection operators is LMMAX =           8
 
 -----------------------------------------------------------------------------
|                                                                             |
|               ----> ADVICE to this user running VASP <----                  |
|                                                                             |
|     You have a (more or less) 'large supercell' and for larger cells it     |
|     might be more efficient to use real-space projection operators.         |
|     Therefore, try LREAL= Auto in the INCAR file.                           |
|     Mind: For very accurate calculation, you might also keep the            |
|     reciprocal projection scheme (i.e. LREAL=.FALSE.).                      |
|                                                                             |
 -----------------------------------------------------------------------------

  PAW_PBE C_h 06Feb2004                 :
 energy of atom  1       EATOM= -147.1560
 kinetic energy error for atom=    0.0031 (will be added to EATOM!!)
  PAW_PBE O_h 06Feb2004                 :
 energy of atom  2       EATOM= -432.3788
 kinetic energy error for atom=    0.0171 (will be added to EATOM!!)
 
 
 POSCAR:  C  O
  positions in cartesian coordinates
  No initial velocities read in
 exchange correlation table for  LEXCH =        8
   RHO(1)=    0.500       N(1)  =     2000
   RHO(2)=  100.500       N(2)  =     4000
 


--------------------------------------------------------------------------------------------------------


 ion  position               nearest neighbor table
   1  0.972  0.000  0.001-  50 1.42   2 1.42  42 1.42
   2  0.039  0.134  0.001-   5 1.42   7 1.42   1 1.42
   3  0.172  0.000  0.001-  42 1.42  44 1.42   4 1.42
   4  0.239  0.134  0.000-   7 1.42   3 1.42  23 1.42
   5  0.972  0.200  0.001-   6 1.42   2 1.42  34 1.42
   6  0.039  0.334  0.001-   5 1.42  21 1.42  11 1.42
   7  0.172  0.200  0.000-   8 1.42   2 1.42   4 1.42
   8  0.239  0.334  0.000-  13 1.42   7 1.42  21 1.42
   9  0.372  0.000  0.001-  10 1.42  44 1.42  46 1.42
  10  0.439  0.134  0.000-  27 1.42   9 1.42  23 1.42
  11  0.972  0.400  0.001-  12 1.42  36 1.42   6 1.42
  12  0.039  0.534  0.001-  25 1.42  11 1.42  17 1.42
  13  0.372  0.400  0.000-   8 1.42  14 1.42  24 1.42
  14  0.439  0.534  0.000-  13 1.42  29 1.42  19 1.42
  15  0.572  0.000  0.001-  46 1.42  16 1.42  48 1.42
  16  0.639  0.134  0.001-  15 1.42  35 1.42  27 1.42
  17  0.972  0.600  0.001-  38 1.42  18 1.42  12 1.42
  18  0.039  0.734  0.001-  43 1.42  41 1.42  17 1.42
  19  0.572  0.600  0.001-  14 1.42  20 1.42  32 1.42
  20  0.639  0.734  0.001-  49 1.42  19 1.42  47 1.42
  21  0.172  0.400  0.000-  22 1.42   8 1.42   6 1.42
  22  0.239  0.534  0.000-  21 1.42  29 1.42  25 1.42
  23  0.372  0.200  0.000-  10 1.42   4 1.42  24 1.42
  24  0.439  0.334  0.000-  13 1.42  31 1.42  23 1.42
  25  0.172  0.600  0.001-  26 1.42  12 1.42  22 1.42
  26  0.239  0.734  0.001-  25 1.42  45 1.42  43 1.42
  27  0.572  0.200  0.001-  10 1.42  28 1.42  16 1.42
  28  0.639  0.334  0.001-  27 1.42  37 1.42  31 1.42
  29  0.372  0.600  0.000-  22 1.42  14 1.42  30 1.42
  30  0.439  0.734  0.001-  47 1.42  29 1.42  45 1.42
  31  0.572  0.400  0.000-  32 1.42  28 1.42  24 1.42
  32  0.639  0.534  0.001-  31 1.42  39 1.42  19 1.42
  33  0.772  0.000  0.001-  34 1.42  48 1.42  50 1.42
  34  0.839  0.134  0.001-  33 1.42   5 1.42  35 1.42
  35  0.772  0.200  0.001-  36 1.42  16 1.42  34 1.42
  36  0.839  0.334  0.001-  35 1.42  11 1.42  37 1.42
  37  0.772  0.400  0.001-  28 1.42  38 1.42  36 1.42
  38  0.839  0.534  0.001-  17 1.42  37 1.42  39 1.42
  39  0.772  0.600  0.001-  40 1.42  38 1.42  32 1.42
  40  0.839  0.734  0.001-  39 1.42  49 1.42  41 1.42
  41  0.972  0.800  0.001-  18 1.42  42 1.42  40 1.42
  42  0.039  0.934  0.001-   3 1.42  41 1.42   1 1.42
  43  0.172  0.800  0.001-  18 1.42  44 1.42  26 1.42
  44  0.239  0.934  0.001-   9 1.42  43 1.42   3 1.42
  45  0.372  0.800  0.001-  26 1.42  46 1.42  30 1.42
  46  0.439  0.934  0.001-  15 1.42  45 1.42   9 1.42
  47  0.572  0.800  0.001-  30 1.42  48 1.42  20 1.42
  48  0.639  0.934  0.001-  47 1.42  33 1.42  15 1.42
  49  0.772  0.800  0.001-  50 1.42  20 1.42  40 1.42
  50  0.839  0.934  0.001-  49 1.42   1 1.42  33 1.42
  51  0.373  0.251  0.125-  52 1.18  53 1.18
  52  0.421  0.189  0.128-  51 1.18
  53  0.325  0.313  0.122-  51 1.18
 
  LATTYP: Found a hexagonal cell.
 ALAT       =    12.3250000000
 C/A-ratio  =     1.6227180527
  
  Lattice vectors:
  
 A1 = (  12.3250000000,   0.0000000000,   0.0000000000)
 A2 = (  -6.1625000000,  10.6737631016,   0.0000000000)
 A3 = (   0.0000000000,   0.0000000000,  20.0000000000)


Analysis of symmetry for initial positions (statically):
=====================================================================
 Subroutine PRICEL returns:
 Original cell was already a primitive cell.
 

 Routine SETGRP: Setting up the symmetry group for a 
 hexagonal supercell.


 Subroutine GETGRP returns: Found  1 space group operations
 (whereof  1 operations were pure point group operations)
 out of a pool of 24 trial point group operations.


The static configuration has the point symmetry C_1 .


Analysis of symmetry for dynamics (positions and initial velocities):
=====================================================================
 Subroutine PRICEL returns:
 Original cell was already a primitive cell.
 

 Routine SETGRP: Setting up the symmetry group for a 
 hexagonal supercell.


 Subroutine GETGRP returns: Found  1 space group operations
 (whereof  1 operations were pure point group operations)
 out of a pool of 24 trial point group operations.


The dynamic configuration has the point symmetry C_1 .


 Subroutine INISYM returns: Found  1 space group operations
 (whereof  1 operations are pure point group operations),
 and found     1 'primitive' translations


----------------------------------------------------------------------------------------

                                     Primitive cell                                     

  volume of cell :    2631.0826

  direct lattice vectors                    reciprocal lattice vectors
    12.325000000  0.000000000  0.000000000     0.081135903  0.046843835  0.000000000
    -6.162500000 10.673763102  0.000000000     0.000000000  0.093687670  0.000000000
     0.000000000  0.000000000 20.000000000     0.000000000  0.000000000  0.050000000

  length of vectors
    12.325000000 12.325000000 20.000000000     0.093687670  0.093687670  0.050000000

  position of ions in fractional coordinates (direct lattice)
     0.972450841  0.000320818  0.000708389
     0.039118382  0.133659505  0.000550216
     0.172443627  0.000295449  0.000624535
     0.239096278  0.133647917  0.000320585
     0.972452058  0.200322012  0.000606523
     0.039128360  0.333643771  0.000555187
     0.172451764  0.200354552  0.000273959
     0.239124359  0.333665720  0.000090325
     0.372465565  0.000324403  0.000567391
     0.439137473  0.133619939  0.000322923
     0.972449824  0.400309362  0.000684513
     0.039124981  0.533636789  0.000716763
     0.372416176  0.400329481  0.000000000
     0.439099602  0.533638981  0.000290518
     0.572443676  0.000312125  0.000699475
     0.639110207  0.133631751  0.000684093
     0.972452703  0.600305653  0.000800361
     0.039124495  0.733640359  0.000818141
     0.572433471  0.600306242  0.000503618
     0.639111888  0.733641879  0.000659881
     0.172454630  0.400318228  0.000361306
     0.239120185  0.533636548  0.000473136
     0.372459750  0.200295993  0.000111246
     0.439107096  0.333673419  0.000069702
     0.172452155  0.600311506  0.000655425
     0.239123371  0.733638574  0.000718912
     0.572431082  0.200289171  0.000516621
     0.639112773  0.333618630  0.000577970
     0.372439808  0.600308022  0.000453556
     0.439116090  0.733637858  0.000617737
     0.572469358  0.400320504  0.000424897
     0.639119408  0.533650873  0.000574513
     0.772445723  0.000315427  0.000745201
     0.839116277  0.133640203  0.000719132
     0.772440513  0.200307432  0.000726291
     0.839120241  0.333635728  0.000731834
     0.772446320  0.400298367  0.000728722
     0.839118980  0.533633964  0.000776376
     0.772456143  0.600308173  0.000744639
     0.839115033  0.733643180  0.000789390
     0.972455313  0.800305582  0.000815291
     0.039114714  0.933643289  0.000747563
     0.172457971  0.800312211  0.000779216
     0.239134551  0.933647193  0.000681063
     0.372451396  0.800316674  0.000689249
     0.439124489  0.933644769  0.000676788
     0.572441101  0.800310054  0.000668168
     0.639115067  0.933638985  0.000734556
     0.772445098  0.800313187  0.000752577
     0.839116614  0.933644338  0.000758538
     0.373021009  0.251226878  0.125000000
     0.420879805  0.189313152  0.128221093
     0.325156981  0.313167186  0.122027256

  ion indices of the primitive-cell ions
   primitive index   ion index
                 1           1
                 2           2
                 3           3
                 4           4
                 5           5
                 6           6
                 7           7
                 8           8
                 9           9
                10          10
                11          11
                12          12
                13          13
                14          14
                15          15
                16          16
                17          17
                18          18
                19          19
                20          20
                21          21
                22          22
                23          23
                24          24
                25          25
                26          26
                27          27
                28          28
                29          29
                30          30
                31          31
                32          32
                33          33
                34          34
                35          35
                36          36
                37          37
                38          38
                39          39
                40          40
                41          41
                42          42
                43          43
                44          44
                45          45
                46          46
                47          47
                48          48
                49          49
                50          50
                51          51
                52          52
                53          53

----------------------------------------------------------------------------------------

 
 
 KPOINTS: auto                                    

Automatic generation of k-mesh.
 Grid dimensions read from file:
 generate k-points for:    1    1    1

 Generating k-lattice:

  Cartesian coordinates                     Fractional coordinates (reciprocal lattice)
     0.081135903  0.046843835  0.000000000     1.000000000 -0.000000000  0.000000000
     0.000000000  0.093687670  0.000000000     0.000000000  1.000000000  0.000000000
     0.000000000  0.000000000  0.050000000     0.000000000  0.000000000  1.000000000

  Length of vectors
     0.093687670  0.093687670  0.050000000

  Shift w.r.t. Gamma in fractional coordinates (k-lattice)
     0.000000000  0.000000000  0.000000000

 
 Subroutine IBZKPT returns following result:
 ===========================================
 
 Found      1 irreducible k-points:
 
 Following reciprocal coordinates:
            Coordinates               Weight
  0.000000  0.000000  0.000000      1.000000
 
 Following cartesian coordinates:
            Coordinates               Weight
  0.000000  0.000000  0.000000      1.000000
 


--------------------------------------------------------------------------------------------------------




 Dimension of arrays:
   k-points           NKPTS =      1   k-points in BZ     NKDIM =      1   number of bands    NBANDS=    168
   number of dos      NEDOS =    301   number of ions     NIONS =     53
   non local maximal  LDIM  =      4   non local SUM 2l+1 LMDIM =      8
   total plane-waves  NPLWV = ******
   max r-space proj   IRMAX =      1   max aug-charges    IRDMAX=   9736
   dimension x,y,z NGX =   128 NGY =  128 NGZ =  210
   dimension x,y,z NGXF=   256 NGYF=  256 NGZF=  420
   support grid    NGXF=   256 NGYF=  256 NGZF=  420
   ions per type =              51   2
   NGX,Y,Z   is equivalent  to a cutoff of  17.27, 17.27, 17.46 a.u.
   NGXF,Y,Z  is equivalent  to a cutoff of  34.53, 34.53, 34.91 a.u.

 SYSTEM =  unknown system                          
 POSCAR =   C  O                                   

 Startparameter for this run:
   NWRITE =      2    write-flag & timer
   PREC   = accura    normal or accurate (medium, high low for compatibility)
   ISTART =      0    job   : 0-new  1-cont  2-samecut
   ICHARG =      2    charge: 1-file 2-atom 10-const
   ISPIN  =      1    spin polarized calculation?
   LNONCOLLINEAR =      F non collinear calculations
   LSORBIT =      F    spin-orbit coupling
   INIWAV =      1    electr: 0-lowe 1-rand  2-diag
   LASPH  =      F    aspherical Exc in radial PAW
 Electronic Relaxation 1
   ENCUT  = 1000.0 eV  73.50 Ry    8.57 a.u.  31.78 31.78 51.57*2*pi/ulx,y,z
   ENINI  = 1000.0     initial cutoff
   ENAUG  =  946.8 eV  augmentation charge cutoff
   NELM   =     60;   NELMIN=  2; NELMDL= -5     # of ELM steps 
   EDIFF  = 0.1E-06   stopping-criterion for ELM
   LREAL  =      F    real-space projection
   NLSPLINE    = F    spline interpolate recip. space projectors
   LCOMPAT=      F    compatible to vasp.4.4
   GGA_COMPAT  = T    GGA compatible to vasp.4.4-vasp.4.6
   LMAXPAW     = -100 max onsite density
   LMAXMIX     =    2 max onsite mixed and CHGCAR
   VOSKOWN=      0    Vosko Wilk Nusair interpolation
   ROPT   =    0.00000   0.00000
 Ionic relaxation
   EDIFFG = 0.1E-05   stopping-criterion for IOM
   NSW    =      0    number of steps for IOM
   NBLOCK =      1;   KBLOCK =      1    inner block; outer block 
   IBRION =     -1    ionic relax: 0-MD 1-quasi-New 2-CG
   NFREE  =      0    steps in history (QN), initial steepest desc. (CG)
   ISIF   =      0    stress and relaxation
   IWAVPR =     10    prediction:  0-non 1-charg 2-wave 3-comb
   ISYM   =      2    0-nonsym 1-usesym 2-fastsym
   LCORR  =      T    Harris-Foulkes like correction to forces

   POTIM  = 0.5000    time-step for ionic-motion
   TEIN   =    0.0    initial temperature
   TEBEG  =    0.0;   TEEND  =   0.0 temperature during run
   SMASS  =  -3.00    Nose mass-parameter (am)
   estimated Nose-frequenzy (Omega)   =  0.10E-29 period in steps = 0.13E+47 mass=  -0.347E-26a.u.
   SCALEE = 1.0000    scale energy and forces
   NPACO  =    256;   APACO  = 16.0  distance and # of slots for P.C.
   PSTRESS=    0.0 pullay stress

  Mass of Ions in am
   POMASS =  12.01 16.00
  Ionic Valenz
   ZVAL   =   4.00  6.00
  Atomic Wigner-Seitz radii
   RWIGS  =  -1.00 -1.00
  virtual crystal weights 
   VCA    =   1.00  1.00
   NELECT =     216.0000    total number of electrons
   NUPDOWN=      -1.0000    fix difference up-down

 DOS related values:
   EMIN   =  10.00;   EMAX   =-10.00  energy-range for DOS
   EFERMI =   0.00
   ISMEAR =     0;   SIGMA  =   0.01  broadening in eV -4-tet -1-fermi 0-gaus

 Electronic relaxation 2 (details)
   IALGO  =     58    algorithm
   LDIAG  =      T    sub-space diagonalisation (order eigenvalues)
   LSUBROT=      F    optimize rotation matrix (better conditioning)
   TURBO    =      0    0=normal 1=particle mesh
   IRESTART =      0    0=no restart 2=restart with 2 vectors
   NREBOOT  =      0    no. of reboots
   NMIN     =      0    reboot dimension
   EREF     =   0.00    reference energy to select bands
   IMIX   =      4    mixing-type and parameters
     AMIX     =   0.40;   BMIX     =  1.00
     AMIX_MAG =   1.60;   BMIX_MAG =  1.00
     AMIN     =   0.10
     WC   =   100.;   INIMIX=   1;  MIXPRE=   1;  MAXMIX= -45

 Intra band minimization:
   WEIMIN = 0.0000     energy-eigenvalue tresh-hold
   EBREAK =  0.15E-09  absolut break condition
   DEPER  =   0.30     relativ break condition  

   TIME   =   0.40     timestep for ELM

  volume/ion in A,a.u.               =      49.64       335.01
  Fermi-wavevector in a.u.,A,eV,Ry     =   0.711510  1.344560  6.887909  0.506247
  Thomas-Fermi vector in A             =   1.798641
 
 Write flags
   LWAVE        =      F    write WAVECAR
   LDOWNSAMPLE  =      F    k-point downsampling of WAVECAR
   LCHARG       =      T    write CHGCAR
   LVTOT        =      F    write LOCPOT, total local potential
   LVHAR        =      F    write LOCPOT, Hartree potential only
   LELF         =      F    write electronic localiz. function (ELF)
   LORBIT       =      0    0 simple, 1 ext, 2 COOP (PROOUT), +10 PAW based schemes


 Dipole corrections
   LMONO  =      F    monopole corrections only (constant potential shift)
   LDIPOL =      F    correct potential (dipole corrections)
   IDIPOL =      0    1-x, 2-y, 3-z, 4-all directions 
   EPSILON=  1.0000000 bulk dielectric constant

 Exchange correlation treatment:
   GGA     =    PE    GGA type
   LEXCH   =     8    internal setting for exchange type
   VOSKOWN=      0    Vosko Wilk Nusair interpolation
   LHFCALC =     F    Hartree Fock is set to
   LHFONE  =     F    Hartree Fock one center treatment
   AEXX    =    0.0000 exact exchange contribution

 Linear response parameters
   LEPSILON=     F    determine dielectric tensor
   LRPA    =     F    only Hartree local field effects (RPA)
   LNABLA  =     F    use nabla operator in PAW spheres
   LVEL    =     F    velocity operator in full k-point grid
   LINTERFAST=   F  fast interpolation
   KINTER  =     0    interpolate to denser k-point grid
   CSHIFT  =0.1000    complex shift for real part using Kramers Kronig
   OMEGAMAX=  -1.0    maximum frequency
   DEG_THRESHOLD= 0.2000000E-02 threshold for treating states as degnerate
   RTIME   =   -0.100 relaxation time in fs
  (WPLASMAI=    0.000 imaginary part of plasma frequency in eV, 0.658/RTIME)
   DFIELD  = 0.0000000 0.0000000 0.0000000 field for delta impulse in time
 
 Orbital magnetization related:
   ORBITALMAG=     F  switch on orbital magnetization
   LCHIMAG   =     F  perturbation theory with respect to B field
   DQ        =  0.001000  dq finite difference perturbation B field
   LLRAUG    =     F  two centre corrections for induced B field



--------------------------------------------------------------------------------------------------------


 Static calculation
 charge density and potential will be updated during run
 non-spin polarized calculation
 Conjugate gradient for all bands (Freysoldt, et al. PRB 79, 241103 (2009))
 preconditioned conjugated gradient                                        
 perform sub-space diagonalisation
    before iterative eigenvector-optimisation
 modified Broyden-mixing scheme, WC =      100.0
 initial mixing is a Kerker type mixing with AMIX =  0.4000 and BMIX =      1.0000
 Hartree-type preconditioning will be used
 using additional bands           60
 reciprocal scheme for non local part
 use partial core corrections
 no Harris-corrections to forces 
 use gradient corrections 
 use of overlap-Matrix (Vanderbilt PP)
 Gauss-broadening in eV      SIGMA  =   0.01


--------------------------------------------------------------------------------------------------------


  energy-cutoff  :     1000.00
  volume of cell :     2631.08
      direct lattice vectors                 reciprocal lattice vectors
    12.325000000  0.000000000  0.000000000     0.081135903  0.046843835  0.000000000
    -6.162500000 10.673763102  0.000000000     0.000000000  0.093687670  0.000000000
     0.000000000  0.000000000 20.000000000     0.000000000  0.000000000  0.050000000

  length of vectors
    12.325000000 12.325000000 20.000000000     0.093687670  0.093687670  0.050000000


 
 k-points in units of 2pi/SCALE and weight: auto                                    
   0.00000000  0.00000000  0.00000000       1.000
 
 k-points in reciprocal lattice and weights: auto                                    
   0.00000000  0.00000000  0.00000000       1.000
 
 position of ions in fractional coordinates (direct lattice) 
   0.97245084  0.00032082  0.00070839
   0.03911838  0.13365950  0.00055022
   0.17244363  0.00029545  0.00062454
   0.23909628  0.13364792  0.00032058
   0.97245206  0.20032201  0.00060652
   0.03912836  0.33364377  0.00055519
   0.17245176  0.20035455  0.00027396
   0.23912436  0.33366572  0.00009033
   0.37246557  0.00032440  0.00056739
   0.43913747  0.13361994  0.00032292
   0.97244982  0.40030936  0.00068451
   0.03912498  0.53363679  0.00071676
   0.37241618  0.40032948  0.00000000
   0.43909960  0.53363898  0.00029052
   0.57244368  0.00031213  0.00069947
   0.63911021  0.13363175  0.00068409
   0.97245270  0.60030565  0.00080036
   0.03912449  0.73364036  0.00081814
   0.57243347  0.60030624  0.00050362
   0.63911189  0.73364188  0.00065988
   0.17245463  0.40031823  0.00036131
   0.23912018  0.53363655  0.00047314
   0.37245975  0.20029599  0.00011125
   0.43910710  0.33367342  0.00006970
   0.17245216  0.60031151  0.00065542
   0.23912337  0.73363857  0.00071891
   0.57243108  0.20028917  0.00051662
   0.63911277  0.33361863  0.00057797
   0.37243981  0.60030802  0.00045356
   0.43911609  0.73363786  0.00061774
   0.57246936  0.40032050  0.00042490
   0.63911941  0.53365087  0.00057451
   0.77244572  0.00031543  0.00074520
   0.83911628  0.13364020  0.00071913
   0.77244051  0.20030743  0.00072629
   0.83912024  0.33363573  0.00073183
   0.77244632  0.40029837  0.00072872
   0.83911898  0.53363396  0.00077638
   0.77245614  0.60030817  0.00074464
   0.83911503  0.73364318  0.00078939
   0.97245531  0.80030558  0.00081529
   0.03911471  0.93364329  0.00074756
   0.17245797  0.80031221  0.00077922
   0.23913455  0.93364719  0.00068106
   0.37245140  0.80031667  0.00068925
   0.43912449  0.93364477  0.00067679
   0.57244110  0.80031005  0.00066817
   0.63911507  0.93363899  0.00073456
   0.77244510  0.80031319  0.00075258
   0.83911661  0.93364434  0.00075854
   0.37302101  0.25122688  0.12500000
   0.42087980  0.18931315  0.12822109
   0.32515698  0.31316719  0.12202726
 
 position of ions in cartesian coordinates  (Angst):
  11.98347958  0.00342433  0.01416777
  -0.34154264  1.42664989  0.01100432
   2.12354700  0.00315355  0.01249070
   2.12325634  1.42652621  0.00641170
  10.75098721  2.13818970  0.01213047
  -1.57382270  3.56123457  0.01110375
   0.89078307  2.13853702  0.00547917
   0.89099273  3.56146885  0.00180651
   4.58863896  0.00346260  0.01134782
   4.58893648  1.42622757  0.00645846
   9.51853763  4.27280730  0.01369027
  -2.80632132  5.69591267  0.01433526
   2.12299894  4.27302204  0.00000000
   2.12335237  5.69593607  0.00581036
   7.05344483  0.00333155  0.01398950
   7.05352764  1.42635365  0.01368187
   8.28609598  6.40752033  0.01600723
  -4.03884931  7.83070339  0.01636283
   3.35585531  6.40752662  0.01007237
   3.35598594  7.83071962  0.01319763
  -0.34145776  4.27290193  0.00722612
  -0.34137895  5.69591010  0.00946273
   3.35624236  2.13791198  0.00222492
   3.35573251  3.56155103  0.00139405
  -1.57394684  6.40758280  0.01310850
  -1.57385216  7.83068434  0.01437823
   5.82093107  2.13783916  0.01033241
   5.82114012  3.56096622  0.01155939
   0.89092245  6.40754561  0.00907111
   0.89106251  7.83067670  0.01235474
   4.58870974  4.27292622  0.00849795
   4.58852320  5.69606300  0.01149026
   9.51844972  0.00336679  0.01490402
   9.51855036  1.42644387  0.01438264
   8.28593477  2.13803408  0.01452582
   8.28612680  3.56114872  0.01463668
   7.05356221  4.27268994  0.01457444
   7.05362213  5.69588251  0.01552751
   5.82112285  6.40754723  0.01489279
   5.82101669  7.83073350  0.01578780
   7.05362858  8.54227219  0.01630582
  -5.27148792  9.96548729  0.01495127
  -2.80637951  8.54234295  0.01558431
  -2.80626749  9.96552896  0.01362126
  -0.34148805  8.54239058  0.01378498
  -0.34137657  9.96550309  0.01353576
   2.12342586  8.54231992  0.01336337
   2.12354296  9.96544135  0.01469111
   4.58845581  8.54235337  0.01505154
   4.58852904  9.96549848  0.01517076
   3.04929830  2.68153618  2.50000000
   4.02070129  2.02068374  2.56442186
   2.07766701  3.34267235  2.44054513
 


--------------------------------------------------------------------------------------------------------


 k-point   1 :   0.0000 0.0000 0.0000  plane waves:  189031

 maximum and minimum number of plane-waves per node :    189031   189031

 maximum number of plane-waves:    189031
 maximum index in each direction: 
   IXMAX=   31   IYMAX=   31   IZMAX=   51
   IXMIN=  -31   IYMIN=  -31   IZMIN=  -51


 serial   3D FFT for wavefunctions
 parallel 3D FFT for charge:
    minimum data exchange during FFTs selected (reduces bandwidth)


 total amount of memory used by VASP MPI-rank0   441788. kBytes
=======================================================================

   base      :      30000. kBytes
   nonl-proj :     184518. kBytes
   fftplans  :      31725. kBytes
   grid      :     168095. kBytes
   one-center:        162. kBytes
   wavefun   :      27288. kBytes
 
     INWAV:  cpu time    0.0000: real time    0.0000
 Broyden mixing: mesh for mixing (old mesh)
   NGX = 63   NGY = 63   NGZ =103
  (NGX  =256   NGY  =256   NGZ  =420)
  gives a total of 408807 points

 initial charge density was supplied:
 charge density of overlapping atoms calculated
 number of electron     216.0000000 magnetization 
 keeping initial charge density in first step


--------------------------------------------------------------------------------------------------------


 Maximum index for augmentation-charges          459 (set IRDMAX)


--------------------------------------------------------------------------------------------------------


 First call to EWALD:  gamma=   0.128
 Maximum number of real-space cells 3x 3x 2
 Maximum number of reciprocal cells 3x 3x 4

    FEWALD:  cpu time    0.0050: real time    0.0050


--------------------------------------- Iteration      1(   1)  ---------------------------------------


    POTLOK:  cpu time    0.5734: real time    0.5793
    SETDIJ:  cpu time    0.0032: real time    0.0245
    TRIAL :  cpu time   11.9965: real time   12.1218
    CORREC:  cpu time    0.0008: real time    0.0009
    --------------------------------------------
      LOOP:  cpu time   12.5776: real time   12.8254

 eigenvalue-minimisations  :   336
 total energy-change (2. order) : 0.2495863E+04  (-0.1172915E+05)
 number of electron     216.0000000 magnetization 
 augmentation part      216.0000000 magnetization 

 Free energy of the ion-electron system (eV)
  ---------------------------------------------------
  alpha Z        PSCENC =        59.93625244
  Ewald energy   TEWEN  =     35411.26856477
  -Hartree energ DENC   =    -41583.62027119
  -exchange      EXHF   =         0.00000000
  -V(xc)+E(xc)   XCENC  =       421.67839845
  PAW double counting   =      6525.96553977    -6260.36035765
  entropy T*S    EENTRO =        -0.00000285
  eigenvalues    EBANDS =      -448.52911919
  atomic energy  EATOM  =      8369.52358910
  ---------------------------------------------------
  free energy    TOTEN  =      2495.86259366 eV

  energy without entropy =     2495.86259650  energy(sigma->0) =     2495.86259508


--------------------------------------------------------------------------------------------------------




--------------------------------------- Iteration      1(   2)  ---------------------------------------


    TRIAL :  cpu time   18.0018: real time   18.1621
    CORREC:  cpu time    0.0001: real time    0.0001
    --------------------------------------------
      LOOP:  cpu time   18.0437: real time   18.2059

 eigenvalue-minimisations  :   560
 total energy-change (2. order) :-0.2406353E+04  (-0.2267016E+04)
 number of electron     216.0000000 magnetization 
 augmentation part      216.0000000 magnetization 

 Free energy of the ion-electron system (eV)
  ---------------------------------------------------
  alpha Z        PSCENC =        59.93625244
  Ewald energy   TEWEN  =     35411.26856477
  -Hartree energ DENC   =    -41583.62027119
  -exchange      EXHF   =         0.00000000
  -V(xc)+E(xc)   XCENC  =       421.67839845
  PAW double counting   =      6525.96553977    -6260.36035765
  entropy T*S    EENTRO =        -0.00000000
  eigenvalues    EBANDS =     -2854.88235918
  atomic energy  EATOM  =      8369.52358910
  ---------------------------------------------------
  free energy    TOTEN  =        89.50935652 eV

  energy without entropy =       89.50935652  energy(sigma->0) =       89.50935652


--------------------------------------------------------------------------------------------------------




--------------------------------------- Iteration      1(   3)  ---------------------------------------


    TRIAL :  cpu time   13.4560: real time   13.5728
    CORREC:  cpu time    0.0001: real time    0.0001
    --------------------------------------------
      LOOP:  cpu time   13.5066: real time   13.6390

 eigenvalue-minimisations  :   392
 total energy-change (2. order) :-0.5767776E+03  (-0.5737426E+03)
 number of electron     216.0000000 magnetization 
 augmentation part      216.0000000 magnetization 

 Free energy of the ion-electron system (eV)
  ---------------------------------------------------
  alpha Z        PSCENC =        59.93625244
  Ewald energy   TEWEN  =     35411.26856477
  -Hartree energ DENC   =    -41583.62027119
  -exchange      EXHF   =         0.00000000
  -V(xc)+E(xc)   XCENC  =       421.67839845
  PAW double counting   =      6525.96553977    -6260.36035765
  entropy T*S    EENTRO =        -0.00000000
  eigenvalues    EBANDS =     -3431.65996912
  atomic energy  EATOM  =      8369.52358910
  ---------------------------------------------------
  free energy    TOTEN  =      -487.26825343 eV

  energy without entropy =     -487.26825343  energy(sigma->0) =     -487.26825343


--------------------------------------------------------------------------------------------------------




--------------------------------------- Iteration      1(   4)  ---------------------------------------


    TRIAL :  cpu time   14.9843: real time   15.1199
    CORREC:  cpu time    0.0001: real time    0.0001
    --------------------------------------------
      LOOP:  cpu time   15.0078: real time   15.1702

 eigenvalue-minimisations  :   448
 total energy-change (2. order) :-0.2874825E+02  (-0.2854869E+02)
 number of electron     216.0000000 magnetization 
 augmentation part      216.0000000 magnetization 

 Free energy of the ion-electron system (eV)
  ---------------------------------------------------
  alpha Z        PSCENC =        59.93625244
  Ewald energy   TEWEN  =     35411.26856477
  -Hartree energ DENC   =    -41583.62027119
  -exchange      EXHF   =         0.00000000
  -V(xc)+E(xc)   XCENC  =       421.67839845
  PAW double counting   =      6525.96553977    -6260.36035765
  entropy T*S    EENTRO =        -0.00000000
  eigenvalues    EBANDS =     -3460.40821464
  atomic energy  EATOM  =      8369.52358910
  ---------------------------------------------------
  free energy    TOTEN  =      -516.01649895 eV

  energy without entropy =     -516.01649895  energy(sigma->0) =     -516.01649895


--------------------------------------------------------------------------------------------------------




--------------------------------------- Iteration      1(   5)  ---------------------------------------


    TRIAL :  cpu time   14.9823: real time   15.1128
    CORREC:  cpu time    0.0001: real time    0.0003
    CHARGE:  cpu time    0.6173: real time    0.6217
    --------------------------------------------
      LOOP:  cpu time   15.6565: real time   15.8032

 eigenvalue-minimisations  :   448
 total energy-change (2. order) :-0.1072289E+01  (-0.1066980E+01)
 number of electron     216.0000000 magnetization 
 augmentation part       -0.2782979 magnetization 

 Free energy of the ion-electron system (eV)
  ---------------------------------------------------
  alpha Z        PSCENC =        59.93625244
  Ewald energy   TEWEN  =     35411.26856477
  -Hartree energ DENC   =    -41583.62027119
  -exchange      EXHF   =         0.00000000
  -V(xc)+E(xc)   XCENC  =       421.67839845
  PAW double counting   =      6525.96553977    -6260.36035765
  entropy T*S    EENTRO =        -0.00000000
  eigenvalues    EBANDS =     -3461.48050341
  atomic energy  EATOM  =      8369.52358910
  ---------------------------------------------------
  free energy    TOTEN  =      -517.08878771 eV

  energy without entropy =     -517.08878771  energy(sigma->0) =     -517.08878771


--------------------------------------------------------------------------------------------------------




--------------------------------------- Iteration      1(   6)  ---------------------------------------


    POTLOK:  cpu time    0.5463: real time    0.5500
    SETDIJ:  cpu time    0.0098: real time    0.0099
    TRIAL :  cpu time    5.3984: real time    5.4476
    CORREC:  cpu time    1.7206: real time    1.7403
    CHARGE:  cpu time    0.6100: real time    0.6143
    --------------------------------------------
      LOOP:  cpu time    8.3699: real time    8.4530

 eigenvalue-minimisations  :     0
 total energy-change (2. order) : 0.5074545E+02  (-0.1518406E+02)
 number of electron     216.0000000 magnetization 
 augmentation part       -0.3773265 magnetization 

 Free energy of the ion-electron system (eV)
  ---------------------------------------------------
  alpha Z        PSCENC =        59.93625244
  Ewald energy   TEWEN  =     35411.26856477
  -Hartree energ DENC   =    -42997.90899235
  -exchange      EXHF   =         0.00000000
  -V(xc)+E(xc)   XCENC  =       469.19884655
  PAW double counting   =     90439.26022945   -90181.89469892
  entropy T*S    EENTRO =        -0.00000000
  eigenvalues    EBANDS =     -2035.72713147
  atomic energy  EATOM  =      8369.52358910
  ---------------------------------------------------
  free energy    TOTEN  =      -466.34334044 eV

  energy without entropy =     -466.34334044  energy(sigma->0) =     -466.34334044


--------------------------------------------------------------------------------------------------------




--------------------------------------- Iteration      1(   7)  ---------------------------------------


    POTLOK:  cpu time    0.5521: real time    0.5560
    SETDIJ:  cpu time    0.0110: real time    0.0110
    TRIAL :  cpu time    5.3978: real time    5.4417
    CORREC:  cpu time    1.7314: real time    1.7446
    CHARGE:  cpu time    0.6075: real time    0.6118
    --------------------------------------------
      LOOP:  cpu time    8.3598: real time    8.4281

 eigenvalue-minimisations  :     0
 total energy-change (2. order) :-0.1520190E+02  (-0.1744285E+01)
 number of electron     216.0000000 magnetization 
 augmentation part       -0.4232847 magnetization 

 Free energy of the ion-electron system (eV)
  ---------------------------------------------------
  alpha Z        PSCENC =        59.93625244
  Ewald energy   TEWEN  =     35411.26856477
  -Hartree energ DENC   =    -42501.58541171
  -exchange      EXHF   =         0.00000000
  -V(xc)+E(xc)   XCENC  =       452.87748761
  PAW double counting   =    106878.91587128  -106618.75576841
  entropy T*S    EENTRO =        -0.00000000
  eigenvalues    EBANDS =     -2533.72582949
  atomic energy  EATOM  =      8369.52358910
  ---------------------------------------------------
  free energy    TOTEN  =      -481.54524441 eV

  energy without entropy =     -481.54524441  energy(sigma->0) =     -481.54524441


--------------------------------------------------------------------------------------------------------




--------------------------------------- Iteration      1(   8)  ---------------------------------------


    POTLOK:  cpu time    0.5496: real time    0.5555
    SETDIJ:  cpu time    0.0109: real time    0.0109
    TRIAL :  cpu time    5.3974: real time    5.4458
    CORREC:  cpu time    1.7227: real time    1.7375
    CHARGE:  cpu time    0.6087: real time    0.6134
    --------------------------------------------
      LOOP:  cpu time    8.3375: real time    8.4128

 eigenvalue-minimisations  :     0
 total energy-change (2. order) :-0.1745499E+01  (-0.4949912E+00)
 number of electron     216.0000000 magnetization 
 augmentation part       -0.4356273 magnetization 

 Free energy of the ion-electron system (eV)
  ---------------------------------------------------
  alpha Z        PSCENC =        59.93625244
  Ewald energy   TEWEN  =     35411.26856477
  -Hartree energ DENC   =    -42484.24223324
  -exchange      EXHF   =         0.00000000
  -V(xc)+E(xc)   XCENC  =       452.30317875
  PAW double counting   =    111312.26455426  -111051.69727534
  entropy T*S    EENTRO =        -0.00000000
  eigenvalues    EBANDS =     -2552.64737367
  atomic energy  EATOM  =      8369.52358910
  ---------------------------------------------------
  free energy    TOTEN  =      -483.29074293 eV

  energy without entropy =     -483.29074293  energy(sigma->0) =     -483.29074293


--------------------------------------------------------------------------------------------------------




--------------------------------------- Iteration      1(   9)  ---------------------------------------


    POTLOK:  cpu time    0.5486: real time    0.5523
    SETDIJ:  cpu time    0.0113: real time    0.0113
    TRIAL :  cpu time    5.3971: real time    5.4460
    CORREC:  cpu time    1.7249: real time    1.7382
    CHARGE:  cpu time    0.6094: real time    0.6147
    --------------------------------------------
      LOOP:  cpu time    8.3456: real time    8.4219

 eigenvalue-minimisations  :     0
 total energy-change (2. order) :-0.4947018E+00  (-0.1833785E+00)
 number of electron     216.0000000 magnetization 
 augmentation part       -0.4395609 magnetization 

 Free energy of the ion-electron system (eV)
  ---------------------------------------------------
  alpha Z        PSCENC =        59.93625244
  Ewald energy   TEWEN  =     35411.26856477
  -Hartree energ DENC   =    -42493.84445733
  -exchange      EXHF   =         0.00000000
  -V(xc)+E(xc)   XCENC  =       452.32877954
  PAW double counting   =    113952.98644012  -113692.26377032
  entropy T*S    EENTRO =        -0.00000000
  eigenvalues    EBANDS =     -2543.72084301
  atomic energy  EATOM  =      8369.52358910
  ---------------------------------------------------
  free energy    TOTEN  =      -483.78544469 eV

  energy without entropy =     -483.78544469  energy(sigma->0) =     -483.78544469


--------------------------------------------------------------------------------------------------------




--------------------------------------- Iteration      1(  10)  ---------------------------------------


    POTLOK:  cpu time    0.5494: real time    0.5532
    SETDIJ:  cpu time    0.0112: real time    0.0113
    TRIAL :  cpu time    5.3958: real time    5.4461
    CORREC:  cpu time    1.7152: real time    1.7299
    CHARGE:  cpu time    0.6092: real time    0.6134
    --------------------------------------------
      LOOP:  cpu time    8.3279: real time    8.4189

 eigenvalue-minimisations  :     0
 total energy-change (2. order) :-0.1829438E+00  (-0.8209219E-01)
 number of electron     216.0000000 magnetization 
 augmentation part       -0.4383089 magnetization 

 Free energy of the ion-electron system (eV)
  ---------------------------------------------------
  alpha Z        PSCENC =        59.93625244
  Ewald energy   TEWEN  =     35411.26856477
  -Hartree energ DENC   =    -42489.97302974
  -exchange      EXHF   =         0.00000000
  -V(xc)+E(xc)   XCENC  =       452.17858000
  PAW double counting   =    114205.86197123  -113945.06551205
  entropy T*S    EENTRO =        -0.00000000
  eigenvalues    EBANDS =     -2547.69880421
  atomic energy  EATOM  =      8369.52358910
  ---------------------------------------------------
  free energy    TOTEN  =      -483.96838847 eV

  energy without entropy =     -483.96838847  energy(sigma->0) =     -483.96838847


--------------------------------------------------------------------------------------------------------




--------------------------------------- Iteration      1(  11)  ---------------------------------------


    POTLOK:  cpu time    0.5479: real time    0.5522
    SETDIJ:  cpu time    0.0108: real time    0.0108
    TRIAL :  cpu time    5.3957: real time    5.4481
    CORREC:  cpu time    1.7194: real time    1.7339
    CHARGE:  cpu time    0.6082: real time    0.6129
    --------------------------------------------
      LOOP:  cpu time    8.2849: real time    8.4225

 eigenvalue-minimisations  :     0
 total energy-change (2. order) :-0.8166035E-01  (-0.3060856E-01)
 number of electron     216.0000000 magnetization 
 augmentation part       -0.4368352 magnetization 

 Free energy of the ion-electron system (eV)
  ---------------------------------------------------
  alpha Z        PSCENC =        59.93625244
  Ewald energy   TEWEN  =     35411.26856477
  -Hartree energ DENC   =    -42482.74451851
  -exchange      EXHF   =         0.00000000
  -V(xc)+E(xc)   XCENC  =       452.06099129
  PAW double counting   =    113490.55995783  -113229.77495720
  entropy T*S    EENTRO =        -0.00000000
  eigenvalues    EBANDS =     -2554.87992852
  atomic energy  EATOM  =      8369.52358910
  ---------------------------------------------------
  free energy    TOTEN  =      -484.05004881 eV

  energy without entropy =     -484.05004881  energy(sigma->0) =     -484.05004881


--------------------------------------------------------------------------------------------------------




--------------------------------------- Iteration      1(  12)  ---------------------------------------


    POTLOK:  cpu time    0.5455: real time    0.5492
    SETDIJ:  cpu time    0.0109: real time    0.0110
    TRIAL :  cpu time    5.4021: real time    5.4470
    CORREC:  cpu time    1.7186: real time    1.7352
    CHARGE:  cpu time    0.6092: real time    0.6134
    --------------------------------------------
      LOOP:  cpu time    8.3443: real time    8.4258

 eigenvalue-minimisations  :     0
 total energy-change (2. order) :-0.3051893E-01  (-0.9311191E-02)
 number of electron     216.0000000 magnetization 
 augmentation part       -0.4366273 magnetization 

 Free energy of the ion-electron system (eV)
  ---------------------------------------------------
  alpha Z        PSCENC =        59.93625244
  Ewald energy   TEWEN  =     35411.26856477
  -Hartree energ DENC   =    -42479.03703743
  -exchange      EXHF   =         0.00000000
  -V(xc)+E(xc)   XCENC  =       451.99557190
  PAW double counting   =    113002.92417492  -112742.16636397
  entropy T*S    EENTRO =        -0.00000000
  eigenvalues    EBANDS =     -2558.52531949
  atomic energy  EATOM  =      8369.52358910
  ---------------------------------------------------
  free energy    TOTEN  =      -484.08056775 eV

  energy without entropy =     -484.08056775  energy(sigma->0) =     -484.08056775


--------------------------------------------------------------------------------------------------------




--------------------------------------- Iteration      1(  13)  ---------------------------------------


    POTLOK:  cpu time    0.5416: real time    0.5453
    SETDIJ:  cpu time    0.0108: real time    0.0108
    TRIAL :  cpu time    5.3922: real time    5.4395
    CORREC:  cpu time    1.7138: real time    1.7273
    CHARGE:  cpu time    0.6046: real time    0.6112
    --------------------------------------------
      LOOP:  cpu time    8.3092: real time    8.4093

 eigenvalue-minimisations  :     0
 total energy-change (2. order) :-0.9302218E-02  (-0.2468211E-02)
 number of electron     216.0000000 magnetization 
 augmentation part       -0.4363442 magnetization 

 Free energy of the ion-electron system (eV)
  ---------------------------------------------------
  alpha Z        PSCENC =        59.93625244
  Ewald energy   TEWEN  =     35411.26856477
  -Hartree energ DENC   =    -42478.10224892
  -exchange      EXHF   =         0.00000000
  -V(xc)+E(xc)   XCENC  =       451.96700923
  PAW double counting   =    112871.14244895  -112610.39414016
  entropy T*S    EENTRO =        -0.00000000
  eigenvalues    EBANDS =     -2559.43134537
  atomic energy  EATOM  =      8369.52358910
  ---------------------------------------------------
  free energy    TOTEN  =      -484.08986996 eV

  energy without entropy =     -484.08986996  energy(sigma->0) =     -484.08986996


--------------------------------------------------------------------------------------------------------




--------------------------------------- Iteration      1(  14)  ---------------------------------------


    POTLOK:  cpu time    0.5416: real time    0.5461
    SETDIJ:  cpu time    0.0106: real time    0.0107
    TRIAL :  cpu time    5.3840: real time    5.4400
    CORREC:  cpu time    1.7103: real time    1.7255
    CHARGE:  cpu time    0.6092: real time    0.6143
    --------------------------------------------
      LOOP:  cpu time    8.3226: real time    8.4049

 eigenvalue-minimisations  :     0
 total energy-change (2. order) :-0.2467937E-02  (-0.6368944E-03)
 number of electron     216.0000000 magnetization 
 augmentation part       -0.4361241 magnetization 

 Free energy of the ion-electron system (eV)
  ---------------------------------------------------
  alpha Z        PSCENC =        59.93625244
  Ewald energy   TEWEN  =     35411.26856477
  -Hartree energ DENC   =    -42478.05264357
  -exchange      EXHF   =         0.00000000
  -V(xc)+E(xc)   XCENC  =       451.96478878
  PAW double counting   =    112897.54918714  -112636.80396859
  entropy T*S    EENTRO =        -0.00000000
  eigenvalues    EBANDS =     -2559.47810797
  atomic energy  EATOM  =      8369.52358910
  ---------------------------------------------------
  free energy    TOTEN  =      -484.09233790 eV

  energy without entropy =     -484.09233790  energy(sigma->0) =     -484.09233790


--------------------------------------------------------------------------------------------------------




--------------------------------------- Iteration      1(  15)  ---------------------------------------


    POTLOK:  cpu time    0.5413: real time    0.5451
    SETDIJ:  cpu time    0.0107: real time    0.0108
    TRIAL :  cpu time    5.3898: real time    5.4394
    CORREC:  cpu time    1.7154: real time    1.7291
    CHARGE:  cpu time    0.6078: real time    0.6122
    --------------------------------------------
      LOOP:  cpu time    8.3022: real time    8.3789

 eigenvalue-minimisations  :     0
 total energy-change (2. order) :-0.6376667E-03  (-0.1953362E-03)
 number of electron     216.0000000 magnetization 
 augmentation part       -0.4359478 magnetization 

 Free energy of the ion-electron system (eV)
  ---------------------------------------------------
  alpha Z        PSCENC =        59.93625244
  Ewald energy   TEWEN  =     35411.26856477
  -Hartree energ DENC   =    -42477.89061089
  -exchange      EXHF   =         0.00000000
  -V(xc)+E(xc)   XCENC  =       451.95992020
  PAW double counting   =    112926.47590112  -112665.73047642
  entropy T*S    EENTRO =        -0.00000000
  eigenvalues    EBANDS =     -2559.63611589
  atomic energy  EATOM  =      8369.52358910
  ---------------------------------------------------
  free energy    TOTEN  =      -484.09297557 eV

  energy without entropy =     -484.09297557  energy(sigma->0) =     -484.09297557


--------------------------------------------------------------------------------------------------------




--------------------------------------- Iteration      1(  16)  ---------------------------------------


    POTLOK:  cpu time    0.5411: real time    0.5446
    SETDIJ:  cpu time    0.0109: real time    0.0110
    TRIAL :  cpu time    5.4092: real time    5.4571
    CORREC:  cpu time    1.7113: real time    1.7264
    CHARGE:  cpu time    0.6069: real time    0.6114
    --------------------------------------------
      LOOP:  cpu time    8.3510: real time    8.4230

 eigenvalue-minimisations  :     0
 total energy-change (2. order) :-0.1961437E-03  (-0.6644425E-04)
 number of electron     216.0000000 magnetization 
 augmentation part       -0.4357973 magnetization 

 Free energy of the ion-electron system (eV)
  ---------------------------------------------------
  alpha Z        PSCENC =        59.93625244
  Ewald energy   TEWEN  =     35411.26856477
  -Hartree energ DENC   =    -42477.95576128
  -exchange      EXHF   =         0.00000000
  -V(xc)+E(xc)   XCENC  =       451.96058339
  PAW double counting   =    112920.46774828  -112659.72217763
  entropy T*S    EENTRO =        -0.00000000
  eigenvalues    EBANDS =     -2559.57197078
  atomic energy  EATOM  =      8369.52358910
  ---------------------------------------------------
  free energy    TOTEN  =      -484.09317171 eV

  energy without entropy =     -484.09317171  energy(sigma->0) =     -484.09317171


--------------------------------------------------------------------------------------------------------




--------------------------------------- Iteration      1(  17)  ---------------------------------------


    POTLOK:  cpu time    0.5397: real time    0.5433
    SETDIJ:  cpu time    0.0145: real time    0.0145
    TRIAL :  cpu time    5.3874: real time    5.4489
    CORREC:  cpu time    1.7132: real time    1.7265
    CHARGE:  cpu time    0.6090: real time    0.6131
    --------------------------------------------
      LOOP:  cpu time    8.3351: real time    8.4213

 eigenvalue-minimisations  :     0
 total energy-change (2. order) :-0.6696010E-04  (-0.2519939E-04)
 number of electron     216.0000000 magnetization 
 augmentation part       -0.4357772 magnetization 

 Free energy of the ion-electron system (eV)
  ---------------------------------------------------
  alpha Z        PSCENC =        59.93625244
  Ewald energy   TEWEN  =     35411.26856477
  -Hartree energ DENC   =    -42478.15411114
  -exchange      EXHF   =         0.00000000
  -V(xc)+E(xc)   XCENC  =       451.96594151
  PAW double counting   =    112904.68809252  -112643.94301769
  entropy T*S    EENTRO =        -0.00000000
  eigenvalues    EBANDS =     -2559.37855019
  atomic energy  EATOM  =      8369.52358910
  ---------------------------------------------------
  free energy    TOTEN  =      -484.09323867 eV

  energy without entropy =     -484.09323867  energy(sigma->0) =     -484.09323867


--------------------------------------------------------------------------------------------------------




--------------------------------------- Iteration      1(  18)  ---------------------------------------


    POTLOK:  cpu time    0.5406: real time    0.5441
    SETDIJ:  cpu time    0.0105: real time    0.0106
    TRIAL :  cpu time    5.3861: real time    5.4474
    CORREC:  cpu time    1.7080: real time    1.7239
    CHARGE:  cpu time    0.6049: real time    0.6092
    --------------------------------------------
      LOOP:  cpu time    8.2953: real time    8.3906

 eigenvalue-minimisations  :     0
 total energy-change (2. order) :-0.2549378E-04  (-0.9243419E-05)
 number of electron     216.0000000 magnetization 
 augmentation part       -0.4358025 magnetization 

 Free energy of the ion-electron system (eV)
  ---------------------------------------------------
  alpha Z        PSCENC =        59.93625244
  Ewald energy   TEWEN  =     35411.26856477
  -Hartree energ DENC   =    -42478.18917153
  -exchange      EXHF   =         0.00000000
  -V(xc)+E(xc)   XCENC  =       451.96606249
  PAW double counting   =    112900.33670828  -112639.59123078
  entropy T*S    EENTRO =        -0.00000000
  eigenvalues    EBANDS =     -2559.34403892
  atomic energy  EATOM  =      8369.52358910
  ---------------------------------------------------
  free energy    TOTEN  =      -484.09326417 eV

  energy without entropy =     -484.09326417  energy(sigma->0) =     -484.09326417


--------------------------------------------------------------------------------------------------------




--------------------------------------- Iteration      1(  19)  ---------------------------------------


    POTLOK:  cpu time    0.5382: real time    0.5416
    SETDIJ:  cpu time    0.0107: real time    0.0107
    TRIAL :  cpu time    5.3935: real time    5.4378
    CORREC:  cpu time    1.7104: real time    1.7269
    CHARGE:  cpu time    0.6092: real time    0.6133
    --------------------------------------------
      LOOP:  cpu time    8.3356: real time    8.4049

 eigenvalue-minimisations  :     0
 total energy-change (2. order) :-0.9162948E-05  (-0.3513093E-05)
 number of electron     216.0000000 magnetization 
 augmentation part       -0.4358334 magnetization 

 Free energy of the ion-electron system (eV)
  ---------------------------------------------------
  alpha Z        PSCENC =        59.93625244
  Ewald energy   TEWEN  =     35411.26856477
  -Hartree energ DENC   =    -42478.21965390
  -exchange      EXHF   =         0.00000000
  -V(xc)+E(xc)   XCENC  =       451.96674323
  PAW double counting   =    112905.60661057  -112644.86090981
  entropy T*S    EENTRO =        -0.00000000
  eigenvalues    EBANDS =     -2559.31446973
  atomic energy  EATOM  =      8369.52358910
  ---------------------------------------------------
  free energy    TOTEN  =      -484.09327333 eV

  energy without entropy =     -484.09327333  energy(sigma->0) =     -484.09327333


--------------------------------------------------------------------------------------------------------




--------------------------------------- Iteration      1(  20)  ---------------------------------------


    POTLOK:  cpu time    0.5383: real time    0.5420
    SETDIJ:  cpu time    0.0109: real time    0.0110
    TRIAL :  cpu time    5.4001: real time    5.4490
    CORREC:  cpu time    1.7134: real time    1.7269
    CHARGE:  cpu time    0.6073: real time    0.6115
    --------------------------------------------
      LOOP:  cpu time    8.3189: real time    8.3902

 eigenvalue-minimisations  :     0
 total energy-change (2. order) :-0.3272042E-05  (-0.1255084E-05)
 number of electron     216.0000000 magnetization 
 augmentation part       -0.4358511 magnetization 

 Free energy of the ion-electron system (eV)
  ---------------------------------------------------
  alpha Z        PSCENC =        59.93625244
  Ewald energy   TEWEN  =     35411.26856477
  -Hartree energ DENC   =    -42478.24241795
  -exchange      EXHF   =         0.00000000
  -V(xc)+E(xc)   XCENC  =       451.96737150
  PAW double counting   =    112911.26250234  -112650.51672518
  entropy T*S    EENTRO =        -0.00000000
  eigenvalues    EBANDS =     -2559.29241362
  atomic energy  EATOM  =      8369.52358910
  ---------------------------------------------------
  free energy    TOTEN  =      -484.09327660 eV

  energy without entropy =     -484.09327660  energy(sigma->0) =     -484.09327660


--------------------------------------------------------------------------------------------------------




--------------------------------------- Iteration      1(  21)  ---------------------------------------


    POTLOK:  cpu time    0.5406: real time    0.5442
    SETDIJ:  cpu time    0.0106: real time    0.0107
    TRIAL :  cpu time    5.3795: real time    5.4457
    CORREC:  cpu time    1.7048: real time    1.7220
    CHARGE:  cpu time    0.6282: real time    0.6325
    --------------------------------------------
      LOOP:  cpu time    8.3192: real time    8.4117

 eigenvalue-minimisations  :     0
 total energy-change (2. order) :-0.1066335E-05  (-0.5384741E-06)
 number of electron     216.0000000 magnetization 
 augmentation part       -0.4358477 magnetization 

 Free energy of the ion-electron system (eV)
  ---------------------------------------------------
  alpha Z        PSCENC =        59.93625244
  Ewald energy   TEWEN  =     35411.26856477
  -Hartree energ DENC   =    -42478.23789626
  -exchange      EXHF   =         0.00000000
  -V(xc)+E(xc)   XCENC  =       451.96706376
  PAW double counting   =    112912.58014693  -112651.83433455
  entropy T*S    EENTRO =        -0.00000000
  eigenvalues    EBANDS =     -2559.29666386
  atomic energy  EATOM  =      8369.52358910
  ---------------------------------------------------
  free energy    TOTEN  =      -484.09327767 eV

  energy without entropy =     -484.09327767  energy(sigma->0) =     -484.09327767


--------------------------------------------------------------------------------------------------------




--------------------------------------- Iteration      1(  22)  ---------------------------------------


    POTLOK:  cpu time    0.5387: real time    0.5422
    SETDIJ:  cpu time    0.0106: real time    0.0107
    TRIAL :  cpu time    5.3859: real time    5.4358
    CORREC:  cpu time    1.7102: real time    1.7235
    CHARGE:  cpu time    0.6088: real time    0.6130
    --------------------------------------------
      LOOP:  cpu time    8.3041: real time    8.3760

 eigenvalue-minimisations  :     0
 total energy-change (2. order) :-0.4313624E-06  (-0.2249493E-06)
 number of electron     216.0000000 magnetization 
 augmentation part       -0.4358468 magnetization 

 Free energy of the ion-electron system (eV)
  ---------------------------------------------------
  alpha Z        PSCENC =        59.93625244
  Ewald energy   TEWEN  =     35411.26856477
  -Hartree energ DENC   =    -42478.23528407
  -exchange      EXHF   =         0.00000000
  -V(xc)+E(xc)   XCENC  =       451.96713256
  PAW double counting   =    112911.13748746  -112650.39178020
  entropy T*S    EENTRO =        -0.00000000
  eigenvalues    EBANDS =     -2559.29924016
  atomic energy  EATOM  =      8369.52358910
  ---------------------------------------------------
  free energy    TOTEN  =      -484.09327810 eV

  energy without entropy =     -484.09327810  energy(sigma->0) =     -484.09327810


--------------------------------------------------------------------------------------------------------




--------------------------------------- Iteration      1(  23)  ---------------------------------------


    POTLOK:  cpu time    0.5368: real time    0.5404
    SETDIJ:  cpu time    0.0109: real time    0.0109
    TRIAL :  cpu time    5.3951: real time    5.4432
    CORREC:  cpu time    1.7136: real time    1.7265
    CHARGE:  cpu time    0.6072: real time    0.6120
    --------------------------------------------
      LOOP:  cpu time    8.3107: real time    8.3933

 eigenvalue-minimisations  :     0
 total energy-change (2. order) :-0.1847948E-06  (-0.1282822E-06)
 number of electron     216.0000000 magnetization 
 augmentation part       -0.4358462 magnetization 

 Free energy of the ion-electron system (eV)
  ---------------------------------------------------
  alpha Z        PSCENC =        59.93625244
  Ewald energy   TEWEN  =     35411.26856477
  -Hartree energ DENC   =    -42478.22825007
  -exchange      EXHF   =         0.00000000
  -V(xc)+E(xc)   XCENC  =       451.96690550
  PAW double counting   =    112909.80857165  -112649.06287285
  entropy T*S    EENTRO =        -0.00000000
  eigenvalues    EBANDS =     -2559.30603882
  atomic energy  EATOM  =      8369.52358910
  ---------------------------------------------------
  free energy    TOTEN  =      -484.09327828 eV

  energy without entropy =     -484.09327828  energy(sigma->0) =     -484.09327828


--------------------------------------------------------------------------------------------------------




--------------------------------------- Iteration      1(  24)  ---------------------------------------


    POTLOK:  cpu time    0.5362: real time    0.5404
    SETDIJ:  cpu time    0.0113: real time    0.0114
    TRIAL :  cpu time    5.3888: real time    5.4408
    CORREC:  cpu time    6.8522: real time    6.9040
    CHARGE:  cpu time    0.6088: real time    0.6131
    --------------------------------------------
      LOOP:  cpu time   13.4105: real time   13.5577

 eigenvalue-minimisations  :     0
 total energy-change (2. order) :-0.8160714E-07  (-0.3542149E-06)
 number of electron     216.0000000 magnetization 
 augmentation part       -0.4358473 magnetization 

 Free energy of the ion-electron system (eV)
  ---------------------------------------------------
  alpha Z        PSCENC =        59.93625244
  Ewald energy   TEWEN  =     35411.26856477
  -Hartree energ DENC   =    -42478.22384875
  -exchange      EXHF   =         0.00000000
  -V(xc)+E(xc)   XCENC  =       451.96683241
  PAW double counting   =    112909.15174333  -112648.40604215
  entropy T*S    EENTRO =        -0.00000000
  eigenvalues    EBANDS =     -2559.31036951
  atomic energy  EATOM  =      8369.52358910
  ---------------------------------------------------
  free energy    TOTEN  =      -484.09327836 eV

  energy without entropy =     -484.09327836  energy(sigma->0) =     -484.09327836


--------------------------------------------------------------------------------------------------------




--------------------------------------- Iteration      1(  25)  ---------------------------------------


    POTLOK:  cpu time    0.5373: real time    0.5408
    SETDIJ:  cpu time    0.0113: real time    0.0114
    TRIAL :  cpu time    5.3897: real time    5.4401
    CORREC:  cpu time    1.7148: real time    1.7284
    CHARGE:  cpu time    0.6098: real time    0.6145
    --------------------------------------------
      LOOP:  cpu time    8.3277: real time    8.4010

 eigenvalue-minimisations  :     0
 total energy-change (2. order) : 0.6547634E-06  (-0.5545391E-06)
 number of electron     216.0000000 magnetization 
 augmentation part       -0.4358501 magnetization 

 Free energy of the ion-electron system (eV)
  ---------------------------------------------------
  alpha Z        PSCENC =        59.93625244
  Ewald energy   TEWEN  =     35411.26856477
  -Hartree energ DENC   =    -42478.22367509
  -exchange      EXHF   =         0.00000000
  -V(xc)+E(xc)   XCENC  =       451.96710340
  PAW double counting   =    112909.16386212  -112648.41815479
  entropy T*S    EENTRO =        -0.00000000
  eigenvalues    EBANDS =     -2559.31081966
  atomic energy  EATOM  =      8369.52358910
  ---------------------------------------------------
  free energy    TOTEN  =      -484.09327771 eV

  energy without entropy =     -484.09327771  energy(sigma->0) =     -484.09327771


--------------------------------------------------------------------------------------------------------




--------------------------------------- Iteration      1(  26)  ---------------------------------------


    POTLOK:  cpu time    0.5386: real time    0.5422
    SETDIJ:  cpu time    0.0106: real time    0.0107
    TRIAL :  cpu time    5.3927: real time    5.4433
    CORREC:  cpu time    1.7134: real time    1.7267
    CHARGE:  cpu time    0.6060: real time    0.6104
    --------------------------------------------
      LOOP:  cpu time    8.2991: real time    8.3730

 eigenvalue-minimisations  :     0
 total energy-change (2. order) :-0.5422335E-06  (-0.1280500E-06)
 number of electron     216.0000000 magnetization 
 augmentation part       -0.4358480 magnetization 

 Free energy of the ion-electron system (eV)
  ---------------------------------------------------
  alpha Z        PSCENC =        59.93625244
  Ewald energy   TEWEN  =     35411.26856477
  -Hartree energ DENC   =    -42478.21935216
  -exchange      EXHF   =         0.00000000
  -V(xc)+E(xc)   XCENC  =       451.96675549
  PAW double counting   =    112909.11271735  -112648.36695805
  entropy T*S    EENTRO =        -0.00000000
  eigenvalues    EBANDS =     -2559.31484718
  atomic energy  EATOM  =      8369.52358910
  ---------------------------------------------------
  free energy    TOTEN  =      -484.09327825 eV

  energy without entropy =     -484.09327825  energy(sigma->0) =     -484.09327825


--------------------------------------------------------------------------------------------------------




--------------------------------------- Iteration      1(  27)  ---------------------------------------


    POTLOK:  cpu time    0.5361: real time    0.5397
    SETDIJ:  cpu time    0.0109: real time    0.0109
    TRIAL :  cpu time    5.3695: real time    5.4352
    CORREC:  cpu time    1.6942: real time    1.7235
    CHARGE:  cpu time    0.6087: real time    0.6176
    --------------------------------------------
      LOOP:  cpu time    8.3226: real time    8.4321

 eigenvalue-minimisations  :     0
 total energy-change (2. order) :-0.1162989E-06  (-0.8818067E-07)
 number of electron     216.0000000 magnetization 
 augmentation part       -0.4358455 magnetization 

 Free energy of the ion-electron system (eV)
  ---------------------------------------------------
  alpha Z        PSCENC =        59.93625244
  Ewald energy   TEWEN  =     35411.26856477
  -Hartree energ DENC   =    -42478.22119211
  -exchange      EXHF   =         0.00000000
  -V(xc)+E(xc)   XCENC  =       451.96680392
  PAW double counting   =    112909.09765580  -112648.35191862
  entropy T*S    EENTRO =        -0.00000000
  eigenvalues    EBANDS =     -2559.31303367
  atomic energy  EATOM  =      8369.52358910
  ---------------------------------------------------
  free energy    TOTEN  =      -484.09327837 eV

  energy without entropy =     -484.09327837  energy(sigma->0) =     -484.09327837


--------------------------------------------------------------------------------------------------------




--------------------------------------- Iteration      1(  28)  ---------------------------------------


    POTLOK:  cpu time    0.5383: real time    0.5420
    SETDIJ:  cpu time    0.0106: real time    0.0106
    TRIAL :  cpu time    5.3996: real time    5.4445
    CORREC:  cpu time    1.7224: real time    1.7386
    EDDIAG:  cpu time    0.8553: real time    0.8623
    CHARGE:  cpu time    0.6079: real time    0.6122
    --------------------------------------------
      LOOP:  cpu time    9.1939: real time    9.2743

 eigenvalue-minimisations  :     0
 total energy-change (2. order) :-0.6257324E-08  (-0.5803459E-07)
 number of electron     216.0000000 magnetization 
 augmentation part       -0.4358474 magnetization 

 Free energy of the ion-electron system (eV)
  ---------------------------------------------------
  alpha Z        PSCENC =        59.93625244
  Ewald energy   TEWEN  =     35411.26856477
  -Hartree energ DENC   =    -42478.22918260
  -exchange      EXHF   =         0.00000000
  -V(xc)+E(xc)   XCENC  =       451.96701253
  PAW double counting   =    112909.35374978  -112648.60805894
  entropy T*S    EENTRO =        -0.00000000
  eigenvalues    EBANDS =     -2559.30520546
  atomic energy  EATOM  =      8369.52358910
  ---------------------------------------------------
  free energy    TOTEN  =      -484.09327837 eV

  energy without entropy =     -484.09327837  energy(sigma->0) =     -484.09327837


--------------------------------------------------------------------------------------------------------


  average scaling for gradient   0.7126


 average (electrostatic) potential at core
[...]
     30     C        0.00058785
     31     C       -0.00328679
     32     C       -0.00117527
     33     C        0.00105844
     34     C        0.00046381
     35     C        0.00047191
     36     C        0.00063431
     37     C        0.00011843
     38     C        0.00020012
     39     C       -0.00014277
     40     C       -0.00021825
     41     C       -0.00005786
     42     C       -0.00048130
     43     C        0.00023793
     44     C        0.00015895
     45     C        0.00055391
     46     C        0.00112557
     47     C        0.00089544
     48     C        0.00050566
     49     C        0.00017116
     50     C       -0.00002021
     51     C        0.28171554
     52     O       -0.12875927
     53     O       -0.12206883

  Atomic reference data used in the T-S method for vdW correction:
            C6at              R0at           ALPHAat      REFSTATE
            (au)              (au)            (au)                
   ---------------------------------------------------------------
   C          46.600          3.590         12.000         0
   O          15.600          3.194          5.400         0
 
 Nth order contribution to Edisp (eV)
 Edisp(N=2):  -4.67911691297686     
 Edisp(N=3):  0.335361415906670     
 Edisp(N=4): -0.479525384359111     
 Edisp(N=5):  0.202237315276762     
 Edisp(N=6): -0.190000059910091     
 Edisp(N=inf):  -4.74116701494910     

  Tkatchenko/Scheffler method for vdW energy calculation
  ---------------------------------------------------------------------------------------------

  Parameters of vdW forcefield:
            C6ts              R0ts          ALPHAts         R0scs        ALPHAscs        RELVOL 
            (au)              (au)           (au)            (au)          (au)                 
   ---------------------------------------------------------------------------------------------
   C          32.945          3.389         10.090          3.266          9.029          0.841
   C          33.088          3.391         10.112          3.268          9.046          0.843
   C          33.268          3.394         10.139          3.277          9.122          0.845
   C          33.982          3.406         10.247          3.258          8.968          0.854
   C          32.939          3.389         10.089          3.267          9.037          0.841
   C          32.945          3.389         10.090          3.266          9.033          0.841
   C          33.805          3.403         10.221          3.272          9.080          0.852
   C          34.029          3.407         10.254          3.278          9.132          0.855
   C          33.432          3.397         10.164          3.275          9.108          0.847
   C          34.225          3.410         10.284          3.247          8.874          0.857
   C          32.875          3.388         10.079          3.267          9.043          0.840
   C          32.867          3.388         10.078          3.269          9.059          0.840
   C          34.266          3.411         10.290          3.256          8.953          0.858
   C          33.337          3.396         10.150          3.272          9.083          0.846
   C          32.929          3.389         10.087          3.262          9.001          0.841
   C          33.026          3.390         10.102          3.264          9.013          0.842
   C          32.882          3.388         10.080          3.270          9.064          0.840
   C          32.896          3.388         10.082          3.264          9.017          0.840
   C          33.056          3.391         10.107          3.274          9.101          0.842
   C          32.903          3.388         10.083          3.262          8.995          0.840
   C          33.172          3.393         10.125          3.260          8.980          0.844
   C          32.979          3.389         10.095          3.264          9.017          0.841
   C          34.691          3.418         10.354          3.244          8.848          0.863
   C          34.446          3.414         10.317          3.239          8.811          0.860
   C          32.876          3.388         10.079          3.266          9.036          0.840
   C          32.880          3.388         10.080          3.262          9.001          0.840
   C          33.609          3.400         10.191          3.277          9.125          0.849
   C          33.383          3.396         10.157          3.283          9.177          0.846
   C          33.009          3.390         10.100          3.270          9.064          0.842
   C          32.884          3.388         10.080          3.266          9.035          0.840
   C          33.555          3.399         10.183          3.273          9.091          0.849
   C          33.084          3.391         10.111          3.276          9.114          0.843
   C          32.867          3.388         10.078          3.267          9.040          0.840
   C          32.877          3.388         10.079          3.267          9.040          0.840
   C          32.897          3.388         10.082          3.265          9.026          0.840
   C          32.892          3.388         10.082          3.263          9.005          0.840
   C          32.965          3.389         10.093          3.261          8.994          0.841
   C          32.908          3.388         10.084          3.261          8.991          0.840
   C          32.928          3.389         10.087          3.263          9.004          0.841
   C          32.901          3.388         10.083          3.268          9.047          0.840
   C          32.907          3.388         10.084          3.265          9.026          0.840
   C          32.972          3.389         10.094          3.267          9.041          0.841
   C          32.923          3.388         10.086          3.261          8.989          0.841
   C          33.188          3.393         10.127          3.279          9.141          0.844
   C          32.885          3.388         10.081          3.266          9.031          0.840
   C          32.990          3.390         10.097          3.267          9.038          0.841
   C          32.872          3.388         10.079          3.263          9.008          0.840
   C          32.866          3.388         10.078          3.267          9.042          0.840
   C          32.892          3.388         10.082          3.266          9.034          0.840
   C          32.887          3.388         10.081          3.266          9.035          0.840
   C          29.316          3.324          9.518          3.164          8.212          0.793
   O          12.339          3.071          4.802          2.920          4.128          0.889
   O          12.272          3.068          4.789          2.910          4.087          0.887

  vdW correction parametrized for the method pbe       

  IVDW = 202
  VDW_RADIUS =    50.000 A
  VDW_SR =     0.830
  VDW_D =     6.000
  SCSRAD =   120.000 A
  LVDWSCS = T
  LSCSGRAD = T
  LSCALER0 = T
  ITIM = -1
  Edisp (eV):   -4.74117
    FORVDW:  cpu time   17.8999: real time   18.0293

 VOLUME and BASIS-vectors are now :
 -----------------------------------------------------------------------------
  energy-cutoff  :     1000.00
  volume of cell :     2631.08
      direct lattice vectors                 reciprocal lattice vectors
    12.325000000  0.000000000  0.000000000     0.081135903  0.046843835  0.000000000
    -6.162500000 10.673763102  0.000000000     0.000000000  0.093687670  0.000000000
     0.000000000  0.000000000 20.000000000     0.000000000  0.000000000  0.050000000

  length of vectors
    12.325000000 12.325000000 20.000000000     0.093687670  0.093687670  0.050000000


 FORCES acting on ions:
    Electron-Ion                     Ewald-Force                    Non-Local-Force
 -----------------------------------------------------------------------------------------------
   0.147E+02 0.130E+02 0.216E+02   -.147E+02 -.130E+02 -.217E+02   0.125E-01 -.111E-01 0.189E-01
   0.257E+02 0.130E+02 0.311E+02   -.257E+02 -.129E+02 -.311E+02   0.291E-01 -.154E-01 -.647E-02
   0.137E+02 0.341E+02 0.417E+02   -.137E+02 -.342E+02 -.417E+02   0.175E-02 0.774E-01 0.566E-01
   0.247E+02 0.365E+02 0.801E+02   -.249E+02 -.366E+02 -.803E+02   0.140E+00 0.647E-01 0.853E-01
   0.162E+02 0.387E+01 0.217E+02   -.162E+02 -.385E+01 -.217E+02   -.984E-03 -.244E-01 -.340E-02
   0.172E+02 -.278E+01 0.224E+02   -.172E+02 0.280E+01 -.224E+02   -.368E-01 -.934E-02 -.902E-02
   0.398E+02 0.176E+02 0.652E+02   -.400E+02 -.175E+02 -.651E+02   0.635E-01 -.130E+00 -.121E+00
   0.408E+02 -.131E+02 0.727E+02   -.408E+02 0.132E+02 -.725E+02   -.744E-01 -.321E-01 -.403E+00
   -.148E+02 0.327E+02 0.445E+02   0.148E+02 -.326E+02 -.445E+02   -.244E-01 -.467E-02 -.903E-01
   -.307E+02 0.267E+02 0.808E+02   0.308E+02 -.267E+02 -.807E+02   -.619E-01 0.125E-01 -.479E+00
   0.386E+01 -.330E+01 0.163E+02   -.384E+01 0.327E+01 -.162E+02   -.106E-01 0.785E-02 -.702E-02
   0.299E+01 -.240E+01 0.148E+02   -.299E+01 0.240E+01 -.148E+02   -.189E-01 0.798E-02 0.166E-02
   0.146E+02 -.393E+02 0.872E+02   -.148E+02 0.394E+02 -.871E+02   0.151E+00 0.688E-01 -.507E+00
   0.600E+01 -.351E+02 0.428E+02   -.605E+01 0.351E+02 -.428E+02   0.355E-01 -.196E-01 -.652E-01
   -.146E+02 0.923E+01 0.214E+02   0.146E+02 -.922E+01 -.214E+02   0.245E-01 -.135E-01 -.422E-02
   -.225E+02 0.619E+01 0.267E+02   0.225E+02 -.619E+01 -.267E+02   0.535E-02 0.315E-02 -.269E-01
   -.201E+01 -.838E+00 0.140E+02   0.202E+01 0.833E+00 -.140E+02   -.477E-03 -.755E-02 0.177E-02
   0.117E+01 0.758E+01 0.153E+02   -.117E+01 -.757E+01 -.153E+02   -.110E-01 0.528E-02 0.818E-02
   -.475E+01 -.266E+02 0.290E+02   0.473E+01 0.266E+02 -.291E+02   0.457E-01 0.375E-02 0.292E-01
   -.183E+01 -.119E+02 0.175E+02   0.183E+01 0.119E+02 -.175E+02   -.460E-03 -.425E-02 -.125E-02
   0.278E+02 -.120E+02 0.350E+02   -.277E+02 0.119E+02 -.350E+02   -.978E-02 -.619E-02 -.576E-01
   0.154E+02 -.134E+02 0.247E+02   -.153E+02 0.134E+02 -.247E+02   -.215E-01 0.325E-01 -.768E-02
   -.709E+01 0.189E+02 0.117E+03   0.730E+01 -.191E+02 -.117E+03   -.244E+00 0.155E+00 -.291E+00
   -.161E+02 -.304E+02 0.106E+03   0.160E+02 0.306E+02 -.106E+03   0.166E+00 -.160E+00 -.210E+00
   0.665E+01 -.303E+01 0.164E+02   -.661E+01 0.302E+01 -.164E+02   -.194E-01 0.428E-02 -.968E-02
   0.114E+01 0.601E+01 0.167E+02   -.113E+01 -.601E+01 -.167E+02   -.144E-01 0.573E-02 -.241E-02
   -.385E+02 0.379E+01 0.516E+02   0.385E+02 -.387E+01 -.515E+02   0.111E-01 0.389E-01 -.126E+00
   -.335E+02 -.150E+02 0.435E+02   0.335E+02 0.149E+02 -.435E+02   -.561E-01 0.548E-01 0.311E-01
   0.940E+01 -.195E+02 0.263E+02   -.941E+01 0.195E+02 -.263E+02   0.505E-02 0.226E-01 -.151E-01
   0.866E+00 -.673E+01 0.179E+02   -.891E+00 0.670E+01 -.178E+02   0.897E-02 0.167E-01 -.984E-02
   -.287E+02 -.316E+02 0.577E+02   0.288E+02 0.316E+02 -.578E+02   -.991E-01 -.703E-01 0.116E+00
   -.146E+02 -.264E+02 0.319E+02   0.146E+02 0.265E+02 -.319E+02   -.384E-02 -.458E-01 0.320E-01
   0.738E+00 0.310E+01 0.147E+02   -.735E+00 -.310E+01 -.147E+02   0.106E-01 -.119E-01 0.334E-02
   0.218E+01 0.318E+01 0.162E+02   -.219E+01 -.314E+01 -.162E+02   0.124E-02 -.136E-01 -.700E-02
   -.100E+02 0.113E+01 0.185E+02   0.100E+02 -.114E+01 -.185E+02   0.152E-01 0.877E-03 -.396E-02
   -.850E+01 -.334E+01 0.177E+02   0.851E+01 0.334E+01 -.177E+02   -.123E-01 0.112E-01 -.568E-02
   -.178E+02 -.933E+01 0.225E+02   0.178E+02 0.932E+01 -.225E+02   -.216E-01 0.142E-02 -.137E-02
   -.979E+01 -.799E+01 0.174E+02   0.979E+01 0.799E+01 -.174E+02   -.117E-01 0.321E-02 0.106E-01
   -.931E+01 -.122E+02 0.191E+02   0.932E+01 0.122E+02 -.191E+02   -.129E-01 -.148E-01 0.546E-02
   -.135E+01 -.281E+01 0.152E+02   0.134E+01 0.282E+01 -.152E+02   -.273E-02 -.895E-03 0.698E-02
   0.349E+01 0.821E+01 0.162E+02   -.348E+01 -.823E+01 -.162E+02   -.139E-02 0.145E-01 0.689E-02
   0.121E+02 0.189E+02 0.237E+02   -.121E+02 -.189E+02 -.237E+02   0.185E-01 0.245E-01 0.140E-01
   0.939E+00 0.151E+02 0.190E+02   -.931E+00 -.151E+02 -.190E+02   -.648E-02 0.134E-01 -.169E-02
   0.506E+00 0.311E+02 0.339E+02   -.477E+00 -.311E+02 -.340E+02   -.560E-01 0.118E-01 0.282E-01
   -.287E+01 0.577E+01 0.179E+02   0.288E+01 -.576E+01 -.179E+02   0.248E-02 -.870E-02 -.792E-02
   -.127E+02 0.164E+02 0.250E+02   0.127E+02 -.164E+02 -.250E+02   0.607E-03 -.369E-02 -.196E-01
   -.193E+01 -.555E+01 0.160E+02   0.192E+01 0.555E+01 -.160E+02   0.172E-01 0.449E-02 0.563E-03
   -.522E+01 0.217E+01 0.152E+02   0.520E+01 -.217E+01 -.152E+02   0.140E-01 -.187E-02 -.811E-02
   0.377E+00 -.344E+01 0.149E+02   -.362E+00 0.342E+01 -.149E+02   0.708E-02 -.168E-02 0.366E-02
   0.543E+01 0.401E+01 0.151E+02   -.543E+01 -.401E+01 -.151E+02   -.608E-03 0.112E-01 0.372E-02
   0.545E+00 -.268E+00 -.411E+03   -.545E+00 0.257E+00 0.412E+03   -.465E-01 0.171E-01 -.173E+00
   -.229E+03 0.155E+03 -.630E+03   0.279E+03 -.189E+03 0.633E+03   -.504E+02 0.345E+02 -.169E+01
   0.229E+03 -.155E+03 -.608E+03   -.279E+03 0.189E+03 0.605E+03   0.504E+02 -.347E+02 0.456E+01
 -----------------------------------------------------------------------------------------------
   0.652E-01 0.579E-01 -.656E+00   0.114E-12 0.000E+00 0.227E-12   -.647E-01 -.582E-01 0.657E+00
 
 
 POSITION                                       TOTAL-FORCE (eV/Angst)
 -----------------------------------------------------------------------------------
     11.98348      0.00342      0.01417        -0.002115     -0.007050      0.000529
     -0.34154      1.42665      0.01100         0.027245      0.020624     -0.000353
      2.12355      0.00315      0.01249         0.015327     -0.026910      0.011194
      2.12326      1.42653      0.00641        -0.024284     -0.001764     -0.119961
     10.75099      2.13819      0.01213        -0.003862     -0.004283      0.004404
     -1.57382      3.56123      0.01110        -0.010882      0.009941      0.003944
      0.89078      2.13854      0.00548        -0.044797      0.007361     -0.096259
      0.89099      3.56147      0.00181        -0.063610      0.040262     -0.239891
      4.58864      0.00346      0.01135         0.015042      0.077737     -0.025573
      4.58894      1.42623      0.00646         0.089142     -0.075069     -0.319433
      9.51854      4.27281      0.01369         0.010367     -0.021658      0.000392
     -2.80632      5.69591      0.01434        -0.024432      0.014168      0.001063
      2.12300      4.27302      0.00000        -0.045416      0.144346     -0.394849
      2.12335      5.69594      0.00581        -0.010991     -0.094335     -0.023551
      7.05344      0.00333      0.01399         0.001631     -0.000162      0.005040
      7.05353      1.42635      0.01368        -0.009599      0.009110      0.001744
      8.28610      6.40752      0.01601         0.009577     -0.012232     -0.000203
     -4.03885      7.83070      0.01636        -0.014734      0.011281      0.000072
      3.35586      6.40753      0.01007         0.025796      0.006906      0.008068
      3.35599      7.83072      0.01320        -0.003006     -0.013702      0.000836
     -0.34146      4.27290      0.00723         0.052852     -0.032666     -0.008561
     -0.34138      5.69591      0.00946        -0.007393      0.012665      0.008953
      3.35624      2.13791      0.00222        -0.031394     -0.037574     -0.646472
      3.35573      3.56155      0.00139         0.068923      0.085369     -0.453241
     -1.57395      6.40758      0.01311         0.022046      0.000158     -0.001047
     -1.57385      7.83068      0.01438        -0.005359      0.001241      0.000178
      5.82093      2.13784      0.01033        -0.043602     -0.039624     -0.050518
      5.82114      3.56097      0.01156        -0.003212      0.002529      0.009373
      0.89092      6.40755      0.00907        -0.003736      0.001915      0.008101
      0.89106      7.83068      0.01235        -0.018072     -0.010148      0.000200
      4.58871      4.27293      0.00850         0.000048     -0.026585     -0.009600
      4.58852      5.69606      0.01149        -0.007439      0.026548      0.006006
      9.51845      0.00337      0.01490         0.013129     -0.012294      0.000446
      9.51855      1.42644      0.01438        -0.004363      0.021847     -0.000490
      8.28593      2.13803      0.01453         0.001837     -0.015389      0.001682
      8.28613      3.56115      0.01464        -0.002066      0.005234      0.000381
      7.05356      4.27269      0.01457        -0.008371     -0.008799      0.001983
      7.05362      5.69588      0.01553        -0.000729      0.006016     -0.000184
      5.82112      6.40755      0.01489        -0.005299     -0.005372     -0.001148
      5.82102      7.83073      0.01579        -0.012819      0.010650     -0.000044
      7.05363      8.54227      0.01631         0.009232     -0.007357      0.000808
     -5.27149      9.96549      0.01495         0.003493      0.004567     -0.002187
     -2.80638      8.54234      0.01558         0.001693      0.011049     -0.000010
     -2.80627      9.96553      0.01362        -0.025703     -0.001972      0.010790
     -0.34149      8.54239      0.01378         0.011077      0.004732      0.000814
     -0.34138      9.96550      0.01354        -0.009871      0.004295      0.004874
      2.12343      8.54232      0.01336         0.009558      0.004336      0.000730
      2.12354      9.96544      0.01469        -0.010171     -0.000510     -0.002216
      4.58846      8.54235      0.01505         0.021811     -0.013692      0.001322
      4.58853      9.96550      0.01517        -0.001116      0.012804      0.001084
      3.04930      2.68154      2.50000        -0.046968      0.006810      0.453681
      4.02070      2.02068      2.56442        -0.488720      0.407633      0.816987
      2.07767      3.34267      2.44055         0.584304     -0.502989      1.030114
 -----------------------------------------------------------------------------------
    total drift:                                0.000486     -0.000361      0.000859


--------------------------------------------------------------------------------------------------------



  FREE ENERGIE OF THE ION-ELECTRON SYSTEM (eV)
  ---------------------------------------------------
  free  energy   TOTEN  =      -488.83444539 eV

  energy  without entropy=     -488.83444539  energy(sigma->0) =     -488.83444539
 


--------------------------------------------------------------------------------------------------------


    POTLOK:  cpu time    0.5559: real time    0.5600


--------------------------------------------------------------------------------------------------------


     LOOP+:  cpu time  316.1177: real time  319.7680
    4ORBIT:  cpu time    0.0000: real time    0.0000

 total amount of memory used by VASP MPI-rank0   441788. kBytes
=======================================================================

   base      :      30000. kBytes
   nonl-proj :     184518. kBytes
   fftplans  :      31725. kBytes
   grid      :     168095. kBytes
   one-center:        162. kBytes
   wavefun   :      27288. kBytes
 
  
  
 General timing and accounting informations for this job:
 ========================================================
  
                  Total CPU time used (sec):      349.842
                            User time (sec):      330.917
                          System time (sec):       18.925
                         Elapsed time (sec):      355.875
  
                   Maximum memory used (kb):      845072.
                   Average memory used (kb):          N/A
  
                          Minor page faults:       162702
                          Major page faults:          497
                 Voluntary context switches:         4459
