 vasp.6.2.1 16May21 (build Nov 06 2021 14:46:37) complex                        
  
 executed on             LinuxIFC date 2025.04.16  19:08:46
 running on  112 total cores
 distrk:  each k-point on   56 cores,    2 groups
 distr:  one band on NCORE=   1 cores,   56 groups


--------------------------------------------------------------------------------------------------------


 INCAR:
   ALGO = Conjugate
   KPAR = 2
   NCORE = 32
   PREC = Accurate
   EDIFF = 1E-7
   ENCUT = 1000
   ISMEAR = 0
   SIGMA = 0.01
   ISIF = 0
   GGA = PE
   IVDW = 202
   LVDWEXPANSION = .TRUE.
   LWAVE = .FALSE.
   LCHARGE = .FALSE.
   SYMPREC = 1E-7

 POTCAR:    PAW_PBE C_h 06Feb2004                 
 POTCAR:    PAW_PBE O_h 06Feb2004                 
 -----------------------------------------------------------------------------
|                                                                             |
|           W    W    AA    RRRRR   N    N  II  N    N   GGGG   !!!           |
|           W    W   A  A   R    R  NN   N  II  NN   N  G    G  !!!           |
|           W    W  A    A  R    R  N N  N  II  N N  N  G       !!!           |
|           W WW W  AAAAAA  RRRRR   N  N N  II  N  N N  G  GGG   !            |
|           WW  WW  A    A  R   R   N   NN  II  N   NN  G    G                |
|           W    W  A    A  R    R  N    N  II  N    N   GGGG   !!!           |
|                                                                             |
|     The value NCORE = 32 specified in the INCAR file was overwritten,       |
|     because it was not compatible with the 56 processes available:          |
|     NCORE = 1                                                               |
|     was used instead, please check that this makes sense for your           |
|     machine.                                                                |
|                                                                             |
 -----------------------------------------------------------------------------

 -----------------------------------------------------------------------------
|                                                                             |
|           W    W    AA    RRRRR   N    N  II  N    N   GGGG   !!!           |
|           W    W   A  A   R    R  NN   N  II  NN   N  G    G  !!!           |
|           W    W  A    A  R    R  N N  N  II  N N  N  G       !!!           |
|           W WW W  AAAAAA  RRRRR   N  N N  II  N  N N  G  GGG   !            |
|           WW  WW  A    A  R   R   N   NN  II  N   NN  G    G                |
|           W    W  A    A  R    R  N    N  II  N    N   GGGG   !!!           |
|                                                                             |
|     For optimal performance we recommend to set                             |
|       NCORE = 2 up to number-of-cores-per-socket                            |
|     NCORE specifies how many cores store one orbital (NPAR=cpu/NCORE).      |
|     This setting can greatly improve the performance of VASP for DFT.       |
|     The default, NCORE=1 might be grossly inefficient on modern             |
|     multi-core architectures or massively parallel machines. Do your        |
|     own testing! More info at https://www.vasp.at/wiki/index.php/NCORE      |
|     Unfortunately you need to use the default for GW and RPA                |
|     calculations (for HF NCORE is supported but not extensively tested      |
|     yet).                                                                   |
|                                                                             |
 -----------------------------------------------------------------------------

 POTCAR:    PAW_PBE C_h 06Feb2004                 
   VRHFIN =C: s2p2                                                                                  
   LEXCH  = PE                                                                                      
   EATOM  =   147.1560 eV,   10.8157 Ry                                                             
                                                                                                    
   TITEL  = PAW_PBE C_h 06Feb2004                                                                   
   LULTRA =        F    use ultrasoft PP ?                                                          
   IUNSCR =        1    unscreen: 0-lin 1-nonlin 2-no                                               
   RPACOR =    0.800    partial core radius                                                         
   POMASS =   12.011; ZVAL   =    4.000    mass and valenz                                          
   RCORE  =    1.100    outmost cutoff radius                                                       
   RWIGS  =    1.630; RWIGS  =    0.863    wigner-seitz radius (au A)                               
   ENMAX  =  700.000; ENMIN  =  500.000 eV                                                          
   ICORE  =        2    local potential                                                             
   LCOR   =        T    correct aug charges                                                         
   LPAW   =        T    paw PP                                                                      
   EAUG   =  946.768                                                                                
   DEXC   =    0.000                                                                                
   RMAX   =    1.128    core radius for proj-oper                                                   
   RAUG   =    1.300    factor for augmentation sphere                                              
   RDEP   =    1.162    radius for radial grids                                                     
   RDEPT  =    1.088    core radius for aug-charge                                                  
                                                                                                    
   Atomic configuration                                                                             
    4 entries                                                                                       
     n  l   j            E        occ.                                                              
     1  0  0.50      -273.3789   2.0000                                                             
     2  0  0.50       -13.7508   2.0000                                                             
     2  1  0.50        -5.2854   2.0000                                                             
     3  2  1.50        -5.4423   0.0000                                                             
   Description                                                                                      
     l       E           TYP  RCUT    TYP  RCUT                                                     
     0    -13.7508458     23  1.100                                                                 
     0     -8.2022199     23  1.100                                                                 
     1     -5.2854383     23  1.100                                                                 
     1      1.1560700     23  1.100                                                                 
     2     -5.4423304      7  1.100                                                                 
  local pseudopotential read in
  partial core-charges read in
  partial kinetic energy density read in
  atomic valenz-charges read in
  non local Contribution for L=           0  read in
    real space projection operators read in
  non local Contribution for L=           0  read in
    real space projection operators read in
  non local Contribution for L=           1  read in
    real space projection operators read in
  non local Contribution for L=           1  read in
    real space projection operators read in
    PAW grid and wavefunctions read in
 
   number of l-projection  operators is LMAX  =           4
   number of lm-projection operators is LMMAX =           8
 
 POTCAR:    PAW_PBE O_h 06Feb2004                 
   VRHFIN =O: s2p4                                                                                  
   LEXCH  = PE                                                                                      
   EATOM  =   432.3788 eV,   31.7789 Ry                                                             
                                                                                                    
   TITEL  = PAW_PBE O_h 06Feb2004                                                                   
   LULTRA =        F    use ultrasoft PP ?                                                          
   IUNSCR =        1    unscreen: 0-lin 1-nonlin 2-no                                               
   RPACOR =    0.800    partial core radius                                                         
   POMASS =   16.000; ZVAL   =    6.000    mass and valenz                                          
   RCORE  =    1.100    outmost cutoff radius                                                       
   RWIGS  =    1.400; RWIGS  =    0.741    wigner-seitz radius (au A)                               
   ENMAX  =  700.000; ENMIN  =  500.000 eV                                                          
   ICORE  =        2    local potential                                                             
   LCOR   =        T    correct aug charges                                                         
   LPAW   =        T    paw PP                                                                      
   EAUG   =  888.804                                                                                
   DEXC   =    0.000                                                                                
   RMAX   =    1.128    core radius for proj-oper                                                   
   RAUG   =    1.300    factor for augmentation sphere                                              
   RDEP   =    1.125    radius for radial grids                                                     
   RDEPT  =    1.088    core radius for aug-charge                                                  
                                                                                                    
   Atomic configuration                                                                             
    4 entries                                                                                       
     n  l   j            E        occ.                                                              
     1  0  0.50      -514.6923   2.0000                                                             
     2  0  0.50       -23.9615   2.0000                                                             
     2  1  0.50        -9.0305   4.0000                                                             
     3  2  1.50        -9.5241   0.0000                                                             
   Description                                                                                      
     l       E           TYP  RCUT    TYP  RCUT                                                     
     0    -23.9615319     23  1.100                                                                 
     0    -25.3221145     23  1.100                                                                 
     1     -9.0304911     23  1.100                                                                 
     1     -5.4802209     23  1.100                                                                 
     2     -9.5240782      7  1.100                                                                 
  local pseudopotential read in
  partial core-charges read in
  partial kinetic energy density read in
  atomic valenz-charges read in
  non local Contribution for L=           0  read in
    real space projection operators read in
  non local Contribution for L=           0  read in
    real space projection operators read in
  non local Contribution for L=           1  read in
    real space projection operators read in
  non local Contribution for L=           1  read in
    real space projection operators read in
    PAW grid and wavefunctions read in
 
   number of l-projection  operators is LMAX  =           4
   number of lm-projection operators is LMMAX =           8
 
 -----------------------------------------------------------------------------
|                                                                             |
|               ----> ADVICE to this user running VASP <----                  |
|                                                                             |
|     You have a (more or less) 'large supercell' and for larger cells it     |
|     might be more efficient to use real-space projection operators.         |
|     Therefore, try LREAL= Auto in the INCAR file.                           |
|     Mind: For very accurate calculation, you might also keep the            |
|     reciprocal projection scheme (i.e. LREAL=.FALSE.).                      |
|                                                                             |
 -----------------------------------------------------------------------------

  PAW_PBE C_h 06Feb2004                 :
 energy of atom  1       EATOM= -147.1560
 kinetic energy error for atom=    0.0031 (will be added to EATOM!!)
  PAW_PBE O_h 06Feb2004                 :
 energy of atom  2       EATOM= -432.3788
 kinetic energy error for atom=    0.0171 (will be added to EATOM!!)
 
 
 POSCAR:  C  O
  positions in cartesian coordinates
  No initial velocities read in
 exchange correlation table for  LEXCH =        8
   RHO(1)=    0.500       N(1)  =     2000
   RHO(2)=  100.500       N(2)  =     4000
 


--------------------------------------------------------------------------------------------------------


 ion  position               nearest neighbor table
   1  0.972  0.000  0.001-  50 1.42   2 1.42  42 1.42
   2  0.039  0.134  0.000-   5 1.42   7 1.42   1 1.42
   3  0.172  0.000  0.000-  42 1.42  44 1.42   4 1.42
   4  0.239  0.134  0.000-   7 1.42   3 1.42  23 1.42
   5  0.972  0.200  0.000-   6 1.42   2 1.42  34 1.42
   6  0.039  0.334  0.000-   5 1.42  21 1.42  11 1.42
   7  0.172  0.200  0.000-   8 1.42   2 1.42   4 1.42
   8  0.239  0.334  0.000-  13 1.42   7 1.42  21 1.42
   9  0.372  0.000  0.000-  10 1.42  44 1.42  46 1.42
  10  0.439  0.134  0.000-  27 1.42   9 1.42  23 1.42
  11  0.972  0.400  0.001-  12 1.42  36 1.42   6 1.42
  12  0.039  0.534  0.001-  25 1.42  11 1.42  17 1.42
  13  0.372  0.400  0.000-   8 1.42  14 1.42  24 1.42
  14  0.439  0.534  0.000-  13 1.42  29 1.42  19 1.42
  15  0.572  0.000  0.001-  46 1.42  16 1.42  48 1.42
  16  0.639  0.134  0.001-  15 1.42  35 1.42  27 1.42
  17  0.972  0.600  0.001-  38 1.42  18 1.42  12 1.42
  18  0.039  0.734  0.001-  43 1.42  41 1.42  17 1.42
  19  0.572  0.600  0.000-  14 1.42  20 1.42  32 1.42
  20  0.639  0.734  0.001-  49 1.42  19 1.42  47 1.42
  21  0.172  0.400  0.000-  22 1.42   8 1.42   6 1.42
  22  0.239  0.534  0.000-  21 1.42  29 1.42  25 1.42
  23  0.372  0.200  0.000-  10 1.42   4 1.42  24 1.42
  24  0.439  0.334  0.000-  13 1.42  31 1.42  23 1.42
  25  0.172  0.600  0.001-  26 1.42  12 1.42  22 1.42
  26  0.239  0.734  0.001-  25 1.42  45 1.42  43 1.42
  27  0.572  0.200  0.000-  10 1.42  28 1.42  16 1.42
  28  0.639  0.334  0.000-  27 1.42  37 1.42  31 1.42
  29  0.372  0.600  0.000-  22 1.42  14 1.42  30 1.42
  30  0.439  0.734  0.000-  47 1.42  29 1.42  45 1.42
  31  0.572  0.400  0.000-  32 1.42  28 1.42  24 1.42
  32  0.639  0.534  0.000-  31 1.42  39 1.42  19 1.42
  33  0.772  0.000  0.001-  34 1.42  48 1.42  50 1.42
  34  0.839  0.134  0.001-  33 1.42   5 1.42  35 1.42
  35  0.772  0.200  0.001-  36 1.42  16 1.42  34 1.42
  36  0.839  0.334  0.001-  35 1.42  11 1.42  37 1.42
  37  0.772  0.400  0.001-  28 1.42  38 1.42  36 1.42
  38  0.839  0.534  0.001-  17 1.42  37 1.42  39 1.42
  39  0.772  0.600  0.001-  40 1.42  38 1.42  32 1.42
  40  0.839  0.734  0.001-  39 1.42  49 1.42  41 1.42
  41  0.972  0.800  0.001-  18 1.42  42 1.42  40 1.42
  42  0.039  0.934  0.001-   3 1.42  41 1.42   1 1.42
  43  0.172  0.800  0.001-  18 1.42  44 1.42  26 1.42
  44  0.239  0.934  0.001-   9 1.42  43 1.42   3 1.42
  45  0.372  0.800  0.001-  26 1.42  46 1.42  30 1.42
  46  0.439  0.934  0.001-  15 1.42  45 1.42   9 1.42
  47  0.572  0.800  0.001-  30 1.42  48 1.42  20 1.42
  48  0.639  0.934  0.001-  47 1.42  33 1.42  15 1.42
  49  0.772  0.800  0.001-  50 1.42  20 1.42  40 1.42
  50  0.839  0.934  0.001-  49 1.42   1 1.42  33 1.42
  51  0.373  0.251  0.283-  52 1.18  53 1.18
  52  0.421  0.189  0.285-  51 1.18
  53  0.325  0.313  0.280-  51 1.18
 
  LATTYP: Found a hexagonal cell.
 ALAT       =    12.3250000000
 C/A-ratio  =     2.0283975659
  
  Lattice vectors:
  
 A1 = (  12.3250000000,   0.0000000000,   0.0000000000)
 A2 = (  -6.1625000000,  10.6737631016,   0.0000000000)
 A3 = (   0.0000000000,   0.0000000000,  25.0000000000)


Analysis of symmetry for initial positions (statically):
=====================================================================
 Subroutine PRICEL returns:
 Original cell was already a primitive cell.
 

 Routine SETGRP: Setting up the symmetry group for a 
 hexagonal supercell.


 Subroutine GETGRP returns: Found  1 space group operations
 (whereof  1 operations were pure point group operations)
 out of a pool of 24 trial point group operations.


The static configuration has the point symmetry C_1 .


Analysis of symmetry for dynamics (positions and initial velocities):
=====================================================================
 Subroutine PRICEL returns:
 Original cell was already a primitive cell.
 

 Routine SETGRP: Setting up the symmetry group for a 
 hexagonal supercell.


 Subroutine GETGRP returns: Found  1 space group operations
 (whereof  1 operations were pure point group operations)
 out of a pool of 24 trial point group operations.


The dynamic configuration has the point symmetry C_1 .


 Subroutine INISYM returns: Found  1 space group operations
 (whereof  1 operations are pure point group operations),
 and found     1 'primitive' translations


----------------------------------------------------------------------------------------

                                     Primitive cell                                     

  volume of cell :    3288.8533

  direct lattice vectors                    reciprocal lattice vectors
    12.325000000  0.000000000  0.000000000     0.081135903  0.046843835  0.000000000
    -6.162500000 10.673763102  0.000000000     0.000000000  0.093687670  0.000000000
     0.000000000  0.000000000 25.000000000     0.000000000  0.000000000  0.040000000

  length of vectors
    12.325000000 12.325000000 25.000000000     0.093687670  0.093687670  0.040000000

  position of ions in fractional coordinates (direct lattice)
     0.972450841  0.000320818  0.000566711
     0.039118382  0.133659505  0.000440173
     0.172443627  0.000295449  0.000499628
     0.239096278  0.133647917  0.000256468
     0.972452058  0.200322012  0.000485219
     0.039128360  0.333643771  0.000444150
     0.172451764  0.200354552  0.000219167
     0.239124359  0.333665720  0.000072260
     0.372465565  0.000324403  0.000453913
     0.439137473  0.133619939  0.000258338
     0.972449824  0.400309362  0.000547611
     0.039124981  0.533636789  0.000573410
     0.372416176  0.400329481  0.000000000
     0.439099602  0.533638981  0.000232414
     0.572443676  0.000312125  0.000559580
     0.639110207  0.133631751  0.000547275
     0.972452703  0.600305653  0.000640289
     0.039124495  0.733640359  0.000654513
     0.572433471  0.600306242  0.000402895
     0.639111888  0.733641879  0.000527905
     0.172454630  0.400318228  0.000289045
     0.239120185  0.533636548  0.000378509
     0.372459750  0.200295993  0.000088997
     0.439107096  0.333673419  0.000055762
     0.172452155  0.600311506  0.000524340
     0.239123371  0.733638574  0.000575129
     0.572431082  0.200289171  0.000413296
     0.639112773  0.333618630  0.000462376
     0.372439808  0.600308022  0.000362844
     0.439116090  0.733637858  0.000494190
     0.572469358  0.400320504  0.000339918
     0.639119408  0.533650873  0.000459610
     0.772445723  0.000315427  0.000596161
     0.839116277  0.133640203  0.000575306
     0.772440513  0.200307432  0.000581033
     0.839120241  0.333635728  0.000585467
     0.772446320  0.400298367  0.000582978
     0.839118980  0.533633964  0.000621100
     0.772456143  0.600308173  0.000595712
     0.839115033  0.733643180  0.000631512
     0.972455313  0.800305582  0.000652233
     0.039114714  0.933643289  0.000598051
     0.172457971  0.800312211  0.000623372
     0.239134551  0.933647193  0.000544850
     0.372451396  0.800316674  0.000551399
     0.439124489  0.933644769  0.000541430
     0.572441101  0.800310054  0.000534535
     0.639115067  0.933638985  0.000587644
     0.772445098  0.800313187  0.000602062
     0.839116614  0.933644338  0.000606830
     0.373021009  0.251226878  0.282842712
     0.420879805  0.189313152  0.285419587
     0.325156981  0.313167186  0.280464518

  ion indices of the primitive-cell ions
   primitive index   ion index
                 1           1
                 2           2
                 3           3
                 4           4
                 5           5
                 6           6
                 7           7
                 8           8
                 9           9
                10          10
                11          11
                12          12
                13          13
                14          14
                15          15
                16          16
                17          17
                18          18
                19          19
                20          20
                21          21
                22          22
                23          23
                24          24
                25          25
                26          26
                27          27
                28          28
                29          29
                30          30
                31          31
                32          32
                33          33
                34          34
                35          35
                36          36
                37          37
                38          38
                39          39
                40          40
                41          41
                42          42
                43          43
                44          44
                45          45
                46          46
                47          47
                48          48
                49          49
                50          50
                51          51
                52          52
                53          53

----------------------------------------------------------------------------------------

 
 
 KPOINTS: auto                                    

Automatic generation of k-mesh.
 Grid dimensions read from file:
 generate k-points for:    1    1    1

 Generating k-lattice:

  Cartesian coordinates                     Fractional coordinates (reciprocal lattice)
     0.081135903  0.046843835  0.000000000     1.000000000 -0.000000000  0.000000000
     0.000000000  0.093687670  0.000000000     0.000000000  1.000000000  0.000000000
     0.000000000  0.000000000  0.040000000     0.000000000  0.000000000  1.000000000

  Length of vectors
     0.093687670  0.093687670  0.040000000

  Shift w.r.t. Gamma in fractional coordinates (k-lattice)
     0.000000000  0.000000000  0.000000000

 
 Subroutine IBZKPT returns following result:
 ===========================================
 
 Found      1 irreducible k-points:
 
 Following reciprocal coordinates:
            Coordinates               Weight
  0.000000  0.000000  0.000000      1.000000
 
 Following cartesian coordinates:
            Coordinates               Weight
  0.000000  0.000000  0.000000      1.000000
 


--------------------------------------------------------------------------------------------------------




 Dimension of arrays:
   k-points           NKPTS =      1   k-points in BZ     NKDIM =      1   number of bands    NBANDS=    168
   number of dos      NEDOS =    301   number of ions     NIONS =     53
   non local maximal  LDIM  =      4   non local SUM 2l+1 LMDIM =      8
   total plane-waves  NPLWV = ******
   max r-space proj   IRMAX =      1   max aug-charges    IRDMAX=  10008
   dimension x,y,z NGX =   128 NGY =  128 NGZ =  270
   dimension x,y,z NGXF=   256 NGYF=  256 NGZF=  540
   support grid    NGXF=   256 NGYF=  256 NGZF=  540
   ions per type =              51   2
   NGX,Y,Z   is equivalent  to a cutoff of  17.27, 17.27, 17.95 a.u.
   NGXF,Y,Z  is equivalent  to a cutoff of  34.53, 34.53, 35.91 a.u.

 SYSTEM =  unknown system                          
 POSCAR =   C  O                                   

 Startparameter for this run:
   NWRITE =      2    write-flag & timer
   PREC   = accura    normal or accurate (medium, high low for compatibility)
   ISTART =      0    job   : 0-new  1-cont  2-samecut
   ICHARG =      2    charge: 1-file 2-atom 10-const
   ISPIN  =      1    spin polarized calculation?
   LNONCOLLINEAR =      F non collinear calculations
   LSORBIT =      F    spin-orbit coupling
   INIWAV =      1    electr: 0-lowe 1-rand  2-diag
   LASPH  =      F    aspherical Exc in radial PAW
 Electronic Relaxation 1
   ENCUT  = 1000.0 eV  73.50 Ry    8.57 a.u.  31.78 31.78 64.46*2*pi/ulx,y,z
   ENINI  = 1000.0     initial cutoff
   ENAUG  =  946.8 eV  augmentation charge cutoff
   NELM   =     60;   NELMIN=  2; NELMDL= -5     # of ELM steps 
   EDIFF  = 0.1E-06   stopping-criterion for ELM
   LREAL  =      F    real-space projection
   NLSPLINE    = F    spline interpolate recip. space projectors
   LCOMPAT=      F    compatible to vasp.4.4
   GGA_COMPAT  = T    GGA compatible to vasp.4.4-vasp.4.6
   LMAXPAW     = -100 max onsite density
   LMAXMIX     =    2 max onsite mixed and CHGCAR
   VOSKOWN=      0    Vosko Wilk Nusair interpolation
   ROPT   =    0.00000   0.00000
 Ionic relaxation
   EDIFFG = 0.1E-05   stopping-criterion for IOM
   NSW    =      0    number of steps for IOM
   NBLOCK =      1;   KBLOCK =      1    inner block; outer block 
   IBRION =     -1    ionic relax: 0-MD 1-quasi-New 2-CG
   NFREE  =      0    steps in history (QN), initial steepest desc. (CG)
   ISIF   =      0    stress and relaxation
   IWAVPR =     10    prediction:  0-non 1-charg 2-wave 3-comb
   ISYM   =      2    0-nonsym 1-usesym 2-fastsym
   LCORR  =      T    Harris-Foulkes like correction to forces

   POTIM  = 0.5000    time-step for ionic-motion
   TEIN   =    0.0    initial temperature
   TEBEG  =    0.0;   TEEND  =   0.0 temperature during run
   SMASS  =  -3.00    Nose mass-parameter (am)
   estimated Nose-frequenzy (Omega)   =  0.10E-29 period in steps = 0.13E+47 mass=  -0.347E-26a.u.
   SCALEE = 1.0000    scale energy and forces
   NPACO  =    256;   APACO  = 16.0  distance and # of slots for P.C.
   PSTRESS=    0.0 pullay stress

  Mass of Ions in am
   POMASS =  12.01 16.00
  Ionic Valenz
   ZVAL   =   4.00  6.00
  Atomic Wigner-Seitz radii
   RWIGS  =  -1.00 -1.00
  virtual crystal weights 
   VCA    =   1.00  1.00
   NELECT =     216.0000    total number of electrons
   NUPDOWN=      -1.0000    fix difference up-down

 DOS related values:
   EMIN   =  10.00;   EMAX   =-10.00  energy-range for DOS
   EFERMI =   0.00
   ISMEAR =     0;   SIGMA  =   0.01  broadening in eV -4-tet -1-fermi 0-gaus

 Electronic relaxation 2 (details)
   IALGO  =     58    algorithm
   LDIAG  =      T    sub-space diagonalisation (order eigenvalues)
   LSUBROT=      F    optimize rotation matrix (better conditioning)
   TURBO    =      0    0=normal 1=particle mesh
   IRESTART =      0    0=no restart 2=restart with 2 vectors
   NREBOOT  =      0    no. of reboots
   NMIN     =      0    reboot dimension
   EREF     =   0.00    reference energy to select bands
   IMIX   =      4    mixing-type and parameters
     AMIX     =   0.40;   BMIX     =  1.00
     AMIX_MAG =   1.60;   BMIX_MAG =  1.00
     AMIN     =   0.10
     WC   =   100.;   INIMIX=   1;  MIXPRE=   1;  MAXMIX= -45

 Intra band minimization:
   WEIMIN = 0.0000     energy-eigenvalue tresh-hold
   EBREAK =  0.15E-09  absolut break condition
   DEPER  =   0.30     relativ break condition  

   TIME   =   0.40     timestep for ELM

  volume/ion in A,a.u.               =      62.05       418.76
  Fermi-wavevector in a.u.,A,eV,Ry     =   0.660508  1.248179  5.935820  0.436270
  Thomas-Fermi vector in A             =   1.732977
 
 Write flags
   LWAVE        =      F    write WAVECAR
   LDOWNSAMPLE  =      F    k-point downsampling of WAVECAR
   LCHARG       =      T    write CHGCAR
   LVTOT        =      F    write LOCPOT, total local potential
   LVHAR        =      F    write LOCPOT, Hartree potential only
   LELF         =      F    write electronic localiz. function (ELF)
   LORBIT       =      0    0 simple, 1 ext, 2 COOP (PROOUT), +10 PAW based schemes


 Dipole corrections
   LMONO  =      F    monopole corrections only (constant potential shift)
   LDIPOL =      F    correct potential (dipole corrections)
   IDIPOL =      0    1-x, 2-y, 3-z, 4-all directions 
   EPSILON=  1.0000000 bulk dielectric constant

 Exchange correlation treatment:
   GGA     =    PE    GGA type
   LEXCH   =     8    internal setting for exchange type
   VOSKOWN=      0    Vosko Wilk Nusair interpolation
   LHFCALC =     F    Hartree Fock is set to
   LHFONE  =     F    Hartree Fock one center treatment
   AEXX    =    0.0000 exact exchange contribution

 Linear response parameters
   LEPSILON=     F    determine dielectric tensor
   LRPA    =     F    only Hartree local field effects (RPA)
   LNABLA  =     F    use nabla operator in PAW spheres
   LVEL    =     F    velocity operator in full k-point grid
   LINTERFAST=   F  fast interpolation
   KINTER  =     0    interpolate to denser k-point grid
   CSHIFT  =0.1000    complex shift for real part using Kramers Kronig
   OMEGAMAX=  -1.0    maximum frequency
   DEG_THRESHOLD= 0.2000000E-02 threshold for treating states as degnerate
   RTIME   =   -0.100 relaxation time in fs
  (WPLASMAI=    0.000 imaginary part of plasma frequency in eV, 0.658/RTIME)
   DFIELD  = 0.0000000 0.0000000 0.0000000 field for delta impulse in time
 
 Orbital magnetization related:
   ORBITALMAG=     F  switch on orbital magnetization
   LCHIMAG   =     F  perturbation theory with respect to B field
   DQ        =  0.001000  dq finite difference perturbation B field
   LLRAUG    =     F  two centre corrections for induced B field



--------------------------------------------------------------------------------------------------------


 Static calculation
 charge density and potential will be updated during run
 non-spin polarized calculation
 Conjugate gradient for all bands (Freysoldt, et al. PRB 79, 241103 (2009))
 preconditioned conjugated gradient                                        
 perform sub-space diagonalisation
    before iterative eigenvector-optimisation
 modified Broyden-mixing scheme, WC =      100.0
 initial mixing is a Kerker type mixing with AMIX =  0.4000 and BMIX =      1.0000
 Hartree-type preconditioning will be used
 using additional bands           60
 reciprocal scheme for non local part
 use partial core corrections
 no Harris-corrections to forces 
 use gradient corrections 
 use of overlap-Matrix (Vanderbilt PP)
 Gauss-broadening in eV      SIGMA  =   0.01


--------------------------------------------------------------------------------------------------------


  energy-cutoff  :     1000.00
  volume of cell :     3288.85
      direct lattice vectors                 reciprocal lattice vectors
    12.325000000  0.000000000  0.000000000     0.081135903  0.046843835  0.000000000
    -6.162500000 10.673763102  0.000000000     0.000000000  0.093687670  0.000000000
     0.000000000  0.000000000 25.000000000     0.000000000  0.000000000  0.040000000

  length of vectors
    12.325000000 12.325000000 25.000000000     0.093687670  0.093687670  0.040000000


 
 k-points in units of 2pi/SCALE and weight: auto                                    
   0.00000000  0.00000000  0.00000000       1.000
 
 k-points in reciprocal lattice and weights: auto                                    
   0.00000000  0.00000000  0.00000000       1.000
 
 position of ions in fractional coordinates (direct lattice) 
   0.97245084  0.00032082  0.00056671
   0.03911838  0.13365950  0.00044017
   0.17244363  0.00029545  0.00049963
   0.23909628  0.13364792  0.00025647
   0.97245206  0.20032201  0.00048522
   0.03912836  0.33364377  0.00044415
   0.17245176  0.20035455  0.00021917
   0.23912436  0.33366572  0.00007226
   0.37246557  0.00032440  0.00045391
   0.43913747  0.13361994  0.00025834
   0.97244982  0.40030936  0.00054761
   0.03912498  0.53363679  0.00057341
   0.37241618  0.40032948  0.00000000
   0.43909960  0.53363898  0.00023241
   0.57244368  0.00031213  0.00055958
   0.63911021  0.13363175  0.00054727
   0.97245270  0.60030565  0.00064029
   0.03912449  0.73364036  0.00065451
   0.57243347  0.60030624  0.00040289
   0.63911189  0.73364188  0.00052791
   0.17245463  0.40031823  0.00028904
   0.23912018  0.53363655  0.00037851
   0.37245975  0.20029599  0.00008900
   0.43910710  0.33367342  0.00005576
   0.17245216  0.60031151  0.00052434
   0.23912337  0.73363857  0.00057513
   0.57243108  0.20028917  0.00041330
   0.63911277  0.33361863  0.00046238
   0.37243981  0.60030802  0.00036284
   0.43911609  0.73363786  0.00049419
   0.57246936  0.40032050  0.00033992
   0.63911941  0.53365087  0.00045961
   0.77244572  0.00031543  0.00059616
   0.83911628  0.13364020  0.00057531
   0.77244051  0.20030743  0.00058103
   0.83912024  0.33363573  0.00058547
   0.77244632  0.40029837  0.00058298
   0.83911898  0.53363396  0.00062110
   0.77245614  0.60030817  0.00059571
   0.83911503  0.73364318  0.00063151
   0.97245531  0.80030558  0.00065223
   0.03911471  0.93364329  0.00059805
   0.17245797  0.80031221  0.00062337
   0.23913455  0.93364719  0.00054485
   0.37245140  0.80031667  0.00055140
   0.43912449  0.93364477  0.00054143
   0.57244110  0.80031005  0.00053453
   0.63911507  0.93363899  0.00058764
   0.77244510  0.80031319  0.00060206
   0.83911661  0.93364434  0.00060683
   0.37302101  0.25122688  0.28284271
   0.42087980  0.18931315  0.28541959
   0.32515698  0.31316719  0.28046452
 
 position of ions in cartesian coordinates  (Angst):
  11.98347958  0.00342433  0.01416777
  -0.34154264  1.42664989  0.01100432
   2.12354700  0.00315355  0.01249070
   2.12325634  1.42652621  0.00641170
  10.75098721  2.13818970  0.01213047
  -1.57382270  3.56123457  0.01110375
   0.89078307  2.13853702  0.00547917
   0.89099273  3.56146885  0.00180651
   4.58863896  0.00346260  0.01134782
   4.58893648  1.42622757  0.00645846
   9.51853763  4.27280730  0.01369027
  -2.80632132  5.69591267  0.01433526
   2.12299894  4.27302204  0.00000000
   2.12335237  5.69593607  0.00581036
   7.05344483  0.00333155  0.01398950
   7.05352764  1.42635365  0.01368187
   8.28609598  6.40752033  0.01600723
  -4.03884931  7.83070339  0.01636283
   3.35585531  6.40752662  0.01007237
   3.35598594  7.83071962  0.01319763
  -0.34145776  4.27290193  0.00722612
  -0.34137895  5.69591010  0.00946273
   3.35624236  2.13791198  0.00222492
   3.35573251  3.56155103  0.00139405
  -1.57394684  6.40758280  0.01310850
  -1.57385216  7.83068434  0.01437823
   5.82093107  2.13783916  0.01033241
   5.82114012  3.56096622  0.01155939
   0.89092245  6.40754561  0.00907111
   0.89106251  7.83067670  0.01235474
   4.58870974  4.27292622  0.00849795
   4.58852320  5.69606300  0.01149026
   9.51844972  0.00336679  0.01490402
   9.51855036  1.42644387  0.01438264
   8.28593477  2.13803408  0.01452582
   8.28612680  3.56114872  0.01463668
   7.05356221  4.27268994  0.01457444
   7.05362213  5.69588251  0.01552751
   5.82112285  6.40754723  0.01489279
   5.82101669  7.83073350  0.01578780
   7.05362858  8.54227219  0.01630582
  -5.27148792  9.96548729  0.01495127
  -2.80637951  8.54234295  0.01558431
  -2.80626749  9.96552896  0.01362126
  -0.34148805  8.54239058  0.01378498
  -0.34137657  9.96550309  0.01353576
   2.12342586  8.54231992  0.01336337
   2.12354296  9.96544135  0.01469111
   4.58845581  8.54235337  0.01505154
   4.58852904  9.96549848  0.01517076
   3.04929830  2.68153618  7.07106781
   4.02070129  2.02068374  7.13548967
   2.07766701  3.34267235  7.01161294
 


--------------------------------------------------------------------------------------------------------


 k-point   1 :   0.0000 0.0000 0.0000  plane waves:  236157

 maximum and minimum number of plane-waves per node :    236157   236157

 maximum number of plane-waves:    236157
 maximum index in each direction: 
   IXMAX=   31   IYMAX=   31   IZMAX=   64
   IXMIN=  -31   IYMIN=  -31   IZMIN=  -64


 serial   3D FFT for wavefunctions
 parallel 3D FFT for charge:
    minimum data exchange during FFTs selected (reduces bandwidth)


 total amount of memory used by VASP MPI-rank0   551512. kBytes
=======================================================================

   base      :      30000. kBytes
   nonl-proj :     230539. kBytes
   fftplans  :      40716. kBytes
   grid      :     216018. kBytes
   one-center:        162. kBytes
   wavefun   :      34077. kBytes
 
     INWAV:  cpu time    0.0000: real time    0.0000
 Broyden mixing: mesh for mixing (old mesh)
   NGX = 63   NGY = 63   NGZ =129
  (NGX  =256   NGY  =256   NGZ  =540)
  gives a total of 512001 points

 initial charge density was supplied:
 charge density of overlapping atoms calculated
 number of electron     216.0000000 magnetization 
 keeping initial charge density in first step


--------------------------------------------------------------------------------------------------------


 Maximum index for augmentation-charges          471 (set IRDMAX)


--------------------------------------------------------------------------------------------------------


 First call to EWALD:  gamma=   0.119
 Maximum number of real-space cells 4x 4x 2
 Maximum number of reciprocal cells 2x 2x 4

    FEWALD:  cpu time    0.0023: real time    0.0023


--------------------------------------- Iteration      1(   1)  ---------------------------------------


    POTLOK:  cpu time    0.7913: real time    0.7974
    SETDIJ:  cpu time    0.0043: real time    0.0044
    TRIAL :  cpu time   15.3934: real time   15.5165
    CORREC:  cpu time    0.0008: real time    0.0009
    --------------------------------------------
      LOOP:  cpu time   16.2066: real time   16.3411

 eigenvalue-minimisations  :   336
 total energy-change (2. order) : 0.2585892E+04  (-0.1073396E+05)
 number of electron     216.0000000 magnetization 
 augmentation part      216.0000000 magnetization 

 Free energy of the ion-electron system (eV)
  ---------------------------------------------------
  alpha Z        PSCENC =        47.94900195
  Ewald energy   TEWEN  =     42432.44515335
  -Hartree energ DENC   =    -48501.64799612
  -exchange      EXHF   =         0.00000000
  -V(xc)+E(xc)   XCENC  =       420.79776867
  PAW double counting   =      6525.96553977    -6260.36035765
  entropy T*S    EENTRO =        -0.00051582
  eigenvalues    EBANDS =      -448.78022127
  atomic energy  EATOM  =      8369.52358910
  ---------------------------------------------------
  free energy    TOTEN  =      2585.89196198 eV

  energy without entropy =     2585.89247781  energy(sigma->0) =     2585.89221990


--------------------------------------------------------------------------------------------------------




--------------------------------------- Iteration      1(   2)  ---------------------------------------


    TRIAL :  cpu time   23.1798: real time   23.3551
    CORREC:  cpu time    0.0001: real time    0.0001
    --------------------------------------------
      LOOP:  cpu time   23.2229: real time   23.3998

 eigenvalue-minimisations  :   560
 total energy-change (2. order) :-0.2418491E+04  (-0.2257523E+04)
 number of electron     216.0000000 magnetization 
 augmentation part      216.0000000 magnetization 

 Free energy of the ion-electron system (eV)
  ---------------------------------------------------
  alpha Z        PSCENC =        47.94900195
  Ewald energy   TEWEN  =     42432.44515335
  -Hartree energ DENC   =    -48501.64799612
  -exchange      EXHF   =         0.00000000
  -V(xc)+E(xc)   XCENC  =       420.79776867
  PAW double counting   =      6525.96553977    -6260.36035765
  entropy T*S    EENTRO =        -0.00000000
  eigenvalues    EBANDS =     -2867.27219686
  atomic energy  EATOM  =      8369.52358910
  ---------------------------------------------------
  free energy    TOTEN  =       167.40050222 eV

  energy without entropy =      167.40050222  energy(sigma->0) =      167.40050222


--------------------------------------------------------------------------------------------------------




--------------------------------------- Iteration      1(   3)  ---------------------------------------


    TRIAL :  cpu time   19.2735: real time   19.4226
    CORREC:  cpu time    0.0002: real time    0.0002
    --------------------------------------------
      LOOP:  cpu time   19.3140: real time   19.4856

 eigenvalue-minimisations  :   448
 total energy-change (2. order) :-0.6607509E+03  (-0.6582475E+03)
 number of electron     216.0000000 magnetization 
 augmentation part      216.0000000 magnetization 

 Free energy of the ion-electron system (eV)
  ---------------------------------------------------
  alpha Z        PSCENC =        47.94900195
  Ewald energy   TEWEN  =     42432.44515335
  -Hartree energ DENC   =    -48501.64799612
  -exchange      EXHF   =         0.00000000
  -V(xc)+E(xc)   XCENC  =       420.79776867
  PAW double counting   =      6525.96553977    -6260.36035765
  entropy T*S    EENTRO =        -0.00000000
  eigenvalues    EBANDS =     -3528.02312301
  atomic energy  EATOM  =      8369.52358910
  ---------------------------------------------------
  free energy    TOTEN  =      -493.35042393 eV

  energy without entropy =     -493.35042393  energy(sigma->0) =     -493.35042393


--------------------------------------------------------------------------------------------------------




--------------------------------------- Iteration      1(   4)  ---------------------------------------


    TRIAL :  cpu time   19.2792: real time   19.4215
    CORREC:  cpu time    0.0001: real time    0.0001
    --------------------------------------------
      LOOP:  cpu time   19.3504: real time   19.4997

 eigenvalue-minimisations  :   448
 total energy-change (2. order) :-0.2386637E+02  (-0.2374469E+02)
 number of electron     216.0000000 magnetization 
 augmentation part      216.0000000 magnetization 

 Free energy of the ion-electron system (eV)
  ---------------------------------------------------
  alpha Z        PSCENC =        47.94900195
  Ewald energy   TEWEN  =     42432.44515335
  -Hartree energ DENC   =    -48501.64799612
  -exchange      EXHF   =         0.00000000
  -V(xc)+E(xc)   XCENC  =       420.79776867
  PAW double counting   =      6525.96553977    -6260.36035765
  entropy T*S    EENTRO =        -0.00000000
  eigenvalues    EBANDS =     -3551.88949094
  atomic energy  EATOM  =      8369.52358910
  ---------------------------------------------------
  free energy    TOTEN  =      -517.21679186 eV

  energy without entropy =     -517.21679186  energy(sigma->0) =     -517.21679186


--------------------------------------------------------------------------------------------------------




--------------------------------------- Iteration      1(   5)  ---------------------------------------


    TRIAL :  cpu time   17.3213: real time   17.4610
    CORREC:  cpu time    0.0001: real time    0.0001
    CHARGE:  cpu time    0.8139: real time    0.8207
    --------------------------------------------
      LOOP:  cpu time   18.1815: real time   18.3325

 eigenvalue-minimisations  :   392
 total energy-change (2. order) :-0.8041319E+00  (-0.8029178E+00)
 number of electron     216.0000000 magnetization 
 augmentation part       -0.2745832 magnetization 

 Free energy of the ion-electron system (eV)
  ---------------------------------------------------
  alpha Z        PSCENC =        47.94900195
  Ewald energy   TEWEN  =     42432.44515335
  -Hartree energ DENC   =    -48501.64799612
  -exchange      EXHF   =         0.00000000
  -V(xc)+E(xc)   XCENC  =       420.79776867
  PAW double counting   =      6525.96553977    -6260.36035765
  entropy T*S    EENTRO =        -0.00000000
  eigenvalues    EBANDS =     -3552.69362287
  atomic energy  EATOM  =      8369.52358910
  ---------------------------------------------------
  free energy    TOTEN  =      -518.02092379 eV

  energy without entropy =     -518.02092379  energy(sigma->0) =     -518.02092379


--------------------------------------------------------------------------------------------------------




--------------------------------------- Iteration      1(   6)  ---------------------------------------


    POTLOK:  cpu time    0.7386: real time    0.7501
    SETDIJ:  cpu time    0.0029: real time    0.0029
    TRIAL :  cpu time    6.8911: real time    6.9804
    CORREC:  cpu time    2.2624: real time    2.2879
    CHARGE:  cpu time    0.8052: real time    0.8143
    --------------------------------------------
      LOOP:  cpu time   10.7356: real time   10.8918

 eigenvalue-minimisations  :     0
 total energy-change (2. order) : 0.5127655E+02  (-0.1527348E+02)
 number of electron     216.0000000 magnetization 
 augmentation part       -0.3756447 magnetization 

 Free energy of the ion-electron system (eV)
  ---------------------------------------------------
  alpha Z        PSCENC =        47.94900195
  Ewald energy   TEWEN  =     42432.44515335
  -Hartree energ DENC   =    -49940.23049871
  -exchange      EXHF   =         0.00000000
  -V(xc)+E(xc)   XCENC  =       468.99961185
  PAW double counting   =     90232.25244223   -89974.91821144
  entropy T*S    EENTRO =        -0.00000000
  eigenvalues    EBANDS =     -2102.76545890
  atomic energy  EATOM  =      8369.52358910
  ---------------------------------------------------
  free energy    TOTEN  =      -466.74437056 eV

  energy without entropy =     -466.74437056  energy(sigma->0) =     -466.74437056


--------------------------------------------------------------------------------------------------------




--------------------------------------- Iteration      1(   7)  ---------------------------------------


    POTLOK:  cpu time    0.7463: real time    0.7512
    SETDIJ:  cpu time    0.0031: real time    0.0031
    TRIAL :  cpu time    6.9209: real time    6.9773
    CORREC:  cpu time    2.2623: real time    2.2868
    CHARGE:  cpu time    0.8086: real time    0.8142
    --------------------------------------------
      LOOP:  cpu time   10.7692: real time   10.8634

 eigenvalue-minimisations  :     0
 total energy-change (2. order) :-0.1530466E+02  (-0.1841836E+01)
 number of electron     216.0000000 magnetization 
 augmentation part       -0.4220741 magnetization 

 Free energy of the ion-electron system (eV)
  ---------------------------------------------------
  alpha Z        PSCENC =        47.94900195
  Ewald energy   TEWEN  =     42432.44515335
  -Hartree energ DENC   =    -49446.49867322
  -exchange      EXHF   =         0.00000000
  -V(xc)+E(xc)   XCENC  =       452.45333693
  PAW double counting   =    106253.28847999  -105993.15305053
  entropy T*S    EENTRO =        -0.00000000
  eigenvalues    EBANDS =     -2598.05686721
  atomic energy  EATOM  =      8369.52358910
  ---------------------------------------------------
  free energy    TOTEN  =      -482.04902963 eV

  energy without entropy =     -482.04902963  energy(sigma->0) =     -482.04902963


--------------------------------------------------------------------------------------------------------




--------------------------------------- Iteration      1(   8)  ---------------------------------------


    POTLOK:  cpu time    0.7443: real time    0.7491
    SETDIJ:  cpu time    0.0031: real time    0.0031
    TRIAL :  cpu time    6.9233: real time    6.9765
    CORREC:  cpu time    2.2714: real time    2.2891
    CHARGE:  cpu time    0.8097: real time    0.8153
    --------------------------------------------
      LOOP:  cpu time   10.8010: real time   10.9092

 eigenvalue-minimisations  :     0
 total energy-change (2. order) :-0.1841632E+01  (-0.5395876E+00)
 number of electron     216.0000000 magnetization 
 augmentation part       -0.4357403 magnetization 

 Free energy of the ion-electron system (eV)
  ---------------------------------------------------
  alpha Z        PSCENC =        47.94900195
  Ewald energy   TEWEN  =     42432.44515335
  -Hartree energ DENC   =    -49417.21854647
  -exchange      EXHF   =         0.00000000
  -V(xc)+E(xc)   XCENC  =       451.74782590
  PAW double counting   =    110649.13438172  -110388.56873424
  entropy T*S    EENTRO =        -0.00000000
  eigenvalues    EBANDS =     -2628.90333262
  atomic energy  EATOM  =      8369.52358910
  ---------------------------------------------------
  free energy    TOTEN  =      -483.89066130 eV

  energy without entropy =     -483.89066130  energy(sigma->0) =     -483.89066130


--------------------------------------------------------------------------------------------------------




--------------------------------------- Iteration      1(   9)  ---------------------------------------


    POTLOK:  cpu time    0.7500: real time    0.7547
    SETDIJ:  cpu time    0.0030: real time    0.0030
    TRIAL :  cpu time    6.9333: real time    6.9916
    CORREC:  cpu time    2.2699: real time    2.2892
    CHARGE:  cpu time    0.8071: real time    0.8128
    --------------------------------------------
      LOOP:  cpu time   10.7925: real time   10.8858

 eigenvalue-minimisations  :     0
 total energy-change (2. order) :-0.5394470E+00  (-0.2041674E+00)
 number of electron     216.0000000 magnetization 
 augmentation part       -0.4409901 magnetization 

 Free energy of the ion-electron system (eV)
  ---------------------------------------------------
  alpha Z        PSCENC =        47.94900195
  Ewald energy   TEWEN  =     42432.44515335
  -Hartree energ DENC   =    -49429.33489680
  -exchange      EXHF   =         0.00000000
  -V(xc)+E(xc)   XCENC  =       451.78690184
  PAW double counting   =    113544.46342084  -113283.73310161
  entropy T*S    EENTRO =        -0.00000000
  eigenvalues    EBANDS =     -2617.53017703
  atomic energy  EATOM  =      8369.52358910
  ---------------------------------------------------
  free energy    TOTEN  =      -484.43010835 eV

  energy without entropy =     -484.43010835  energy(sigma->0) =     -484.43010835


--------------------------------------------------------------------------------------------------------




--------------------------------------- Iteration      1(  10)  ---------------------------------------


    POTLOK:  cpu time    0.7458: real time    0.7506
    SETDIJ:  cpu time    0.0030: real time    0.0030
    TRIAL :  cpu time    6.9131: real time    6.9673
    CORREC:  cpu time    2.2671: real time    2.2847
    CHARGE:  cpu time    0.8084: real time    0.8139
    --------------------------------------------
      LOOP:  cpu time   10.7769: real time   10.8732

 eigenvalue-minimisations  :     0
 total energy-change (2. order) :-0.2035615E+00  (-0.8924200E-01)
 number of electron     216.0000000 magnetization 
 augmentation part       -0.4396237 magnetization 

 Free energy of the ion-electron system (eV)
  ---------------------------------------------------
  alpha Z        PSCENC =        47.94900195
  Ewald energy   TEWEN  =     42432.44515335
  -Hartree energ DENC   =    -49427.24279612
  -exchange      EXHF   =         0.00000000
  -V(xc)+E(xc)   XCENC  =       451.61837694
  PAW double counting   =    113866.22788879  -113605.40903408
  entropy T*S    EENTRO =        -0.00000000
  eigenvalues    EBANDS =     -2619.74584977
  atomic energy  EATOM  =      8369.52358910
  ---------------------------------------------------
  free energy    TOTEN  =      -484.63366984 eV

  energy without entropy =     -484.63366984  energy(sigma->0) =     -484.63366984


--------------------------------------------------------------------------------------------------------




--------------------------------------- Iteration      1(  11)  ---------------------------------------


    POTLOK:  cpu time    0.7476: real time    0.7522
    SETDIJ:  cpu time    0.0029: real time    0.0029
    TRIAL :  cpu time    6.9162: real time    6.9706
    CORREC:  cpu time    2.2684: real time    2.2874
    CHARGE:  cpu time    0.8104: real time    0.8164
    --------------------------------------------
      LOOP:  cpu time   10.7922: real time   10.8813

 eigenvalue-minimisations  :     0
 total energy-change (2. order) :-0.8878203E-01  (-0.3317669E-01)
 number of electron     216.0000000 magnetization 
 augmentation part       -0.4377320 magnetization 

 Free energy of the ion-electron system (eV)
  ---------------------------------------------------
  alpha Z        PSCENC =        47.94900195
  Ewald energy   TEWEN  =     42432.44515335
  -Hartree energ DENC   =    -49419.48601693
  -exchange      EXHF   =         0.00000000
  -V(xc)+E(xc)   XCENC  =       451.48081076
  PAW double counting   =    113086.91507190  -112826.10699220
  entropy T*S    EENTRO =        -0.00000000
  eigenvalues    EBANDS =     -2627.44306981
  atomic energy  EATOM  =      8369.52358910
  ---------------------------------------------------
  free energy    TOTEN  =      -484.72245188 eV

  energy without entropy =     -484.72245188  energy(sigma->0) =     -484.72245188


--------------------------------------------------------------------------------------------------------




--------------------------------------- Iteration      1(  12)  ---------------------------------------


    POTLOK:  cpu time    0.7543: real time    0.7593
    SETDIJ:  cpu time    0.0030: real time    0.0030
    TRIAL :  cpu time    6.9273: real time    6.9917
    CORREC:  cpu time    2.2679: real time    2.2850
    CHARGE:  cpu time    0.8085: real time    0.8141
    --------------------------------------------
      LOOP:  cpu time   10.8249: real time   10.9177

 eigenvalue-minimisations  :     0
 total energy-change (2. order) :-0.3309014E-01  (-0.1026118E-01)
 number of electron     216.0000000 magnetization 
 augmentation part       -0.4374154 magnetization 

 Free energy of the ion-electron system (eV)
  ---------------------------------------------------
  alpha Z        PSCENC =        47.94900195
  Ewald energy   TEWEN  =     42432.44515335
  -Hartree energ DENC   =    -49415.51347184
  -exchange      EXHF   =         0.00000000
  -V(xc)+E(xc)   XCENC  =       451.40630679
  PAW double counting   =    112583.83058967  -112323.05320699
  entropy T*S    EENTRO =        -0.00000000
  eigenvalues    EBANDS =     -2631.34350406
  atomic energy  EATOM  =      8369.52358910
  ---------------------------------------------------
  free energy    TOTEN  =      -484.75554202 eV

  energy without entropy =     -484.75554202  energy(sigma->0) =     -484.75554202


--------------------------------------------------------------------------------------------------------




--------------------------------------- Iteration      1(  13)  ---------------------------------------


    POTLOK:  cpu time    0.7410: real time    0.7459
    SETDIJ:  cpu time    0.0033: real time    0.0033
    TRIAL :  cpu time    6.9183: real time    6.9760
    CORREC:  cpu time    2.2593: real time    2.2765
    CHARGE:  cpu time    0.8059: real time    0.8115
    --------------------------------------------
      LOOP:  cpu time   10.8017: real time   10.8877

 eigenvalue-minimisations  :     0
 total energy-change (2. order) :-0.1025110E-01  (-0.2723166E-02)
 number of electron     216.0000000 magnetization 
 augmentation part       -0.4371914 magnetization 

 Free energy of the ion-electron system (eV)
  ---------------------------------------------------
  alpha Z        PSCENC =        47.94900195
  Ewald energy   TEWEN  =     42432.44515335
  -Hartree energ DENC   =    -49414.67991519
  -exchange      EXHF   =         0.00000000
  -V(xc)+E(xc)   XCENC  =       451.37917273
  PAW double counting   =    112429.88729199  -112169.12139255
  entropy T*S    EENTRO =        -0.00000000
  eigenvalues    EBANDS =     -2632.14869450
  atomic energy  EATOM  =      8369.52358910
  ---------------------------------------------------
  free energy    TOTEN  =      -484.76579311 eV

  energy without entropy =     -484.76579311  energy(sigma->0) =     -484.76579311


--------------------------------------------------------------------------------------------------------




--------------------------------------- Iteration      1(  14)  ---------------------------------------


    POTLOK:  cpu time    0.7398: real time    0.7445
    SETDIJ:  cpu time    0.0032: real time    0.0033
    TRIAL :  cpu time    6.9135: real time    6.9733
    CORREC:  cpu time    2.2582: real time    2.2763
    CHARGE:  cpu time    0.8095: real time    0.8162
    --------------------------------------------
      LOOP:  cpu time   10.8064: real time   10.8977

 eigenvalue-minimisations  :     0
 total energy-change (2. order) :-0.2722892E-02  (-0.7241345E-03)
 number of electron     216.0000000 magnetization 
 augmentation part       -0.4369711 magnetization 

 Free energy of the ion-electron system (eV)
  ---------------------------------------------------
  alpha Z        PSCENC =        47.94900195
  Ewald energy   TEWEN  =     42432.44515335
  -Hartree energ DENC   =    -49414.51518451
  -exchange      EXHF   =         0.00000000
  -V(xc)+E(xc)   XCENC  =       451.37362240
  PAW double counting   =    112452.86507442  -112192.10151238
  entropy T*S    EENTRO =        -0.00000000
  eigenvalues    EBANDS =     -2632.30826034
  atomic energy  EATOM  =      8369.52358910
  ---------------------------------------------------
  free energy    TOTEN  =      -484.76851600 eV

  energy without entropy =     -484.76851600  energy(sigma->0) =     -484.76851600


--------------------------------------------------------------------------------------------------------




--------------------------------------- Iteration      1(  15)  ---------------------------------------


    POTLOK:  cpu time    0.7366: real time    0.7427
    SETDIJ:  cpu time    0.0034: real time    0.0034
    TRIAL :  cpu time    6.9010: real time    6.9739
    CORREC:  cpu time    2.2606: real time    2.2809
    CHARGE:  cpu time    0.8072: real time    0.8136
    --------------------------------------------
      LOOP:  cpu time   10.7225: real time   10.8649

 eigenvalue-minimisations  :     0
 total energy-change (2. order) :-0.7250881E-03  (-0.2153966E-03)
 number of electron     216.0000000 magnetization 
 augmentation part       -0.4367886 magnetization 

 Free energy of the ion-electron system (eV)
  ---------------------------------------------------
  alpha Z        PSCENC =        47.94900195
  Ewald energy   TEWEN  =     42432.44515335
  -Hartree energ DENC   =    -49414.29896815
  -exchange      EXHF   =         0.00000000
  -V(xc)+E(xc)   XCENC  =       451.36720184
  PAW double counting   =    112485.77659836  -112225.01247332
  entropy T*S    EENTRO =        -0.00000000
  eigenvalues    EBANDS =     -2632.51934423
  atomic energy  EATOM  =      8369.52358910
  ---------------------------------------------------
  free energy    TOTEN  =      -484.76924109 eV

  energy without entropy =     -484.76924109  energy(sigma->0) =     -484.76924109


--------------------------------------------------------------------------------------------------------




--------------------------------------- Iteration      1(  16)  ---------------------------------------


    POTLOK:  cpu time    0.7335: real time    0.7383
    SETDIJ:  cpu time    0.0033: real time    0.0033
    TRIAL :  cpu time    6.9138: real time    6.9672
    CORREC:  cpu time    2.2539: real time    2.2707
    CHARGE:  cpu time    0.8086: real time    0.8142
    --------------------------------------------
      LOOP:  cpu time   10.7656: real time   10.8479

 eigenvalue-minimisations  :     0
 total energy-change (2. order) :-0.2162376E-03  (-0.7739152E-04)
 number of electron     216.0000000 magnetization 
 augmentation part       -0.4366449 magnetization 

 Free energy of the ion-electron system (eV)
  ---------------------------------------------------
  alpha Z        PSCENC =        47.94900195
  Ewald energy   TEWEN  =     42432.44515335
  -Hartree energ DENC   =    -49414.36696157
  -exchange      EXHF   =         0.00000000
  -V(xc)+E(xc)   XCENC  =       451.36845686
  PAW double counting   =    112476.11504020  -112215.35081760
  entropy T*S    EENTRO =        -0.00000000
  eigenvalues    EBANDS =     -2632.45291963
  atomic energy  EATOM  =      8369.52358910
  ---------------------------------------------------
  free energy    TOTEN  =      -484.76945733 eV

  energy without entropy =     -484.76945733  energy(sigma->0) =     -484.76945733


--------------------------------------------------------------------------------------------------------




--------------------------------------- Iteration      1(  17)  ---------------------------------------


    POTLOK:  cpu time    0.7367: real time    0.7414
    SETDIJ:  cpu time    0.0032: real time    0.0033
    TRIAL :  cpu time    6.9159: real time    6.9773
    CORREC:  cpu time    2.2567: real time    2.2757
    CHARGE:  cpu time    0.8251: real time    0.8313
    --------------------------------------------
      LOOP:  cpu time   10.7899: real time   10.8817

 eigenvalue-minimisations  :     0
 total energy-change (2. order) :-0.7792309E-04  (-0.3026983E-04)
 number of electron     216.0000000 magnetization 
 augmentation part       -0.4366274 magnetization 

 Free energy of the ion-electron system (eV)
  ---------------------------------------------------
  alpha Z        PSCENC =        47.94900195
  Ewald energy   TEWEN  =     42432.44515335
  -Hartree energ DENC   =    -49414.55467295
  -exchange      EXHF   =         0.00000000
  -V(xc)+E(xc)   XCENC  =       451.37426202
  PAW double counting   =    112457.18306219  -112196.41930353
  entropy T*S    EENTRO =        -0.00000000
  eigenvalues    EBANDS =     -2632.27062738
  atomic energy  EATOM  =      8369.52358910
  ---------------------------------------------------
  free energy    TOTEN  =      -484.76953525 eV

  energy without entropy =     -484.76953525  energy(sigma->0) =     -484.76953525


--------------------------------------------------------------------------------------------------------




--------------------------------------- Iteration      1(  18)  ---------------------------------------


    POTLOK:  cpu time    0.7384: real time    0.7432
    SETDIJ:  cpu time    0.0032: real time    0.0032
    TRIAL :  cpu time    6.9238: real time    6.9807
    CORREC:  cpu time    2.2546: real time    2.2727
    CHARGE:  cpu time    0.8106: real time    0.8168
    --------------------------------------------
      LOOP:  cpu time   10.7624: real time   10.8499

 eigenvalue-minimisations  :     0
 total energy-change (2. order) :-0.3059254E-04  (-0.1260524E-04)
 number of electron     216.0000000 magnetization 
 augmentation part       -0.4366536 magnetization 

 Free energy of the ion-electron system (eV)
  ---------------------------------------------------
  alpha Z        PSCENC =        47.94900195
  Ewald energy   TEWEN  =     42432.44515335
  -Hartree energ DENC   =    -49414.58487668
  -exchange      EXHF   =         0.00000000
  -V(xc)+E(xc)   XCENC  =       451.37447327
  PAW double counting   =    112453.60989839  -112192.84572499
  entropy T*S    EENTRO =        -0.00000000
  eigenvalues    EBANDS =     -2632.24108024
  atomic energy  EATOM  =      8369.52358910
  ---------------------------------------------------
  free energy    TOTEN  =      -484.76956585 eV

  energy without entropy =     -484.76956585  energy(sigma->0) =     -484.76956585


--------------------------------------------------------------------------------------------------------




--------------------------------------- Iteration      1(  19)  ---------------------------------------


    POTLOK:  cpu time    0.7312: real time    0.7360
    SETDIJ:  cpu time    0.0031: real time    0.0031
    TRIAL :  cpu time    6.9217: real time    6.9776
    CORREC:  cpu time    2.2622: real time    2.2791
    CHARGE:  cpu time    0.8106: real time    0.8162
    --------------------------------------------
      LOOP:  cpu time   10.8201: real time   10.9077

 eigenvalue-minimisations  :     0
 total energy-change (2. order) :-0.1248012E-04  (-0.5294909E-05)
 number of electron     216.0000000 magnetization 
 augmentation part       -0.4366950 magnetization 

 Free energy of the ion-electron system (eV)
  ---------------------------------------------------
  alpha Z        PSCENC =        47.94900195
  Ewald energy   TEWEN  =     42432.44515335
  -Hartree energ DENC   =    -49414.61609007
  -exchange      EXHF   =         0.00000000
  -V(xc)+E(xc)   XCENC  =       451.37543164
  PAW double counting   =    112460.09486779  -112199.33048752
  entropy T*S    EENTRO =        -0.00000000
  eigenvalues    EBANDS =     -2632.21104457
  atomic energy  EATOM  =      8369.52358910
  ---------------------------------------------------
  free energy    TOTEN  =      -484.76957833 eV

  energy without entropy =     -484.76957833  energy(sigma->0) =     -484.76957833


--------------------------------------------------------------------------------------------------------




--------------------------------------- Iteration      1(  20)  ---------------------------------------


    POTLOK:  cpu time    0.7372: real time    0.7424
    SETDIJ:  cpu time    0.0031: real time    0.0031
    TRIAL :  cpu time    6.9110: real time    6.9712
    CORREC:  cpu time    2.2586: real time    2.2783
    CHARGE:  cpu time    0.8082: real time    0.8144
    --------------------------------------------
      LOOP:  cpu time   10.7592: real time   10.8509

 eigenvalue-minimisations  :     0
 total energy-change (2. order) :-0.4949005E-05  (-0.2094330E-05)
 number of electron     216.0000000 magnetization 
 augmentation part       -0.4367120 magnetization 

 Free energy of the ion-electron system (eV)
  ---------------------------------------------------
  alpha Z        PSCENC =        47.94900195
  Ewald energy   TEWEN  =     42432.44515335
  -Hartree energ DENC   =    -49414.64561353
  -exchange      EXHF   =         0.00000000
  -V(xc)+E(xc)   XCENC  =       451.37608817
  PAW double counting   =    112466.67369955  -112205.90920687
  entropy T*S    EENTRO =        -0.00000000
  eigenvalues    EBANDS =     -2632.18229500
  atomic energy  EATOM  =      8369.52358910
  ---------------------------------------------------
  free energy    TOTEN  =      -484.76958328 eV

  energy without entropy =     -484.76958328  energy(sigma->0) =     -484.76958328


--------------------------------------------------------------------------------------------------------




--------------------------------------- Iteration      1(  21)  ---------------------------------------


    POTLOK:  cpu time    0.7354: real time    0.7403
    SETDIJ:  cpu time    0.0032: real time    0.0033
    TRIAL :  cpu time    6.9218: real time    6.9764
    CORREC:  cpu time    2.2608: real time    2.2777
    CHARGE:  cpu time    0.8095: real time    0.8151
    --------------------------------------------
      LOOP:  cpu time   10.7890: real time   10.8729

 eigenvalue-minimisations  :     0
 total energy-change (2. order) :-0.1881635E-05  (-0.8785167E-06)
 number of electron     216.0000000 magnetization 
 augmentation part       -0.4367056 magnetization 

 Free energy of the ion-electron system (eV)
  ---------------------------------------------------
  alpha Z        PSCENC =        47.94900195
  Ewald energy   TEWEN  =     42432.44515335
  -Hartree energ DENC   =    -49414.63918667
  -exchange      EXHF   =         0.00000000
  -V(xc)+E(xc)   XCENC  =       451.37576107
  PAW double counting   =    112468.23816436  -112207.47365020
  entropy T*S    EENTRO =        -0.00000000
  eigenvalues    EBANDS =     -2632.18841813
  atomic energy  EATOM  =      8369.52358910
  ---------------------------------------------------
  free energy    TOTEN  =      -484.76958516 eV

  energy without entropy =     -484.76958516  energy(sigma->0) =     -484.76958516


--------------------------------------------------------------------------------------------------------




--------------------------------------- Iteration      1(  22)  ---------------------------------------


    POTLOK:  cpu time    0.7337: real time    0.7383
    SETDIJ:  cpu time    0.0032: real time    0.0032
    TRIAL :  cpu time    6.9194: real time    6.9728
    CORREC:  cpu time    2.2566: real time    2.2735
    CHARGE:  cpu time    0.8108: real time    0.8163
    --------------------------------------------
      LOOP:  cpu time   10.7801: real time   10.8997

 eigenvalue-minimisations  :     0
 total energy-change (2. order) :-0.7651397E-06  (-0.3831819E-06)
 number of electron     216.0000000 magnetization 
 augmentation part       -0.4367030 magnetization 

 Free energy of the ion-electron system (eV)
  ---------------------------------------------------
  alpha Z        PSCENC =        47.94900195
  Ewald energy   TEWEN  =     42432.44515335
  -Hartree energ DENC   =    -49414.63245180
  -exchange      EXHF   =         0.00000000
  -V(xc)+E(xc)   XCENC  =       451.37561084
  PAW double counting   =    112466.27666149  -112205.51224206
  entropy T*S    EENTRO =        -0.00000000
  eigenvalues    EBANDS =     -2632.19490880
  atomic energy  EATOM  =      8369.52358910
  ---------------------------------------------------
  free energy    TOTEN  =      -484.76958592 eV

  energy without entropy =     -484.76958592  energy(sigma->0) =     -484.76958592


--------------------------------------------------------------------------------------------------------




--------------------------------------- Iteration      1(  23)  ---------------------------------------


    POTLOK:  cpu time    0.7355: real time    0.7405
    SETDIJ:  cpu time    0.0030: real time    0.0031
    TRIAL :  cpu time    6.9275: real time    6.9827
    CORREC:  cpu time    2.2574: real time    2.2744
    CHARGE:  cpu time    0.8112: real time    0.8170
    --------------------------------------------
      LOOP:  cpu time   10.7412: real time   10.8635

 eigenvalue-minimisations  :     0
 total energy-change (2. order) :-0.2947345E-06  (-0.1673689E-06)
 number of electron     216.0000000 magnetization 
 augmentation part       -0.4367021 magnetization 

 Free energy of the ion-electron system (eV)
  ---------------------------------------------------
  alpha Z        PSCENC =        47.94900195
  Ewald energy   TEWEN  =     42432.44515335
  -Hartree energ DENC   =    -49414.62421396
  -exchange      EXHF   =         0.00000000
  -V(xc)+E(xc)   XCENC  =       451.37539050
  PAW double counting   =    112464.40838614  -112203.64399920
  entropy T*S    EENTRO =        -0.00000000
  eigenvalues    EBANDS =     -2632.20289410
  atomic energy  EATOM  =      8369.52358910
  ---------------------------------------------------
  free energy    TOTEN  =      -484.76958622 eV

  energy without entropy =     -484.76958622  energy(sigma->0) =     -484.76958622


--------------------------------------------------------------------------------------------------------




--------------------------------------- Iteration      1(  24)  ---------------------------------------


    POTLOK:  cpu time    0.7339: real time    0.7386
    SETDIJ:  cpu time    0.0035: real time    0.0035
    TRIAL :  cpu time    6.9229: real time    6.9780
    CORREC:  cpu time    2.2573: real time    2.2747
    EDDIAG:  cpu time    1.1168: real time    1.1255
    CHARGE:  cpu time    0.8060: real time    0.8118
    --------------------------------------------
      LOOP:  cpu time   11.9315: real time   12.0240

 eigenvalue-minimisations  :     0
 total energy-change (2. order) :-0.7852213E-07  (-0.7447854E-07)
 number of electron     216.0000000 magnetization 
 augmentation part       -0.4367045 magnetization 

 Free energy of the ion-electron system (eV)
  ---------------------------------------------------
  alpha Z        PSCENC =        47.94900195
  Ewald energy   TEWEN  =     42432.44515335
  -Hartree energ DENC   =    -49414.61996069
  -exchange      EXHF   =         0.00000000
  -V(xc)+E(xc)   XCENC  =       451.37539005
  PAW double counting   =    112463.65816651  -112202.89379910
  entropy T*S    EENTRO =        -0.00000000
  eigenvalues    EBANDS =     -2632.20712746
  atomic energy  EATOM  =      8369.52358910
  ---------------------------------------------------
  free energy    TOTEN  =      -484.76958630 eV

  energy without entropy =     -484.76958630  energy(sigma->0) =     -484.76958630


--------------------------------------------------------------------------------------------------------


  average scaling for gradient   0.9385


 average (electrostatic) potential at core
  the test charge radii are     0.5770  0.5955
  (the norm of the test charge is              1.0000)
       1 -85.6357       2 -85.6351       3 -85.6359       4 -85.6367       5 -85.6343
       6 -85.6342       7 -85.6358       8 -85.6345       9 -85.6348      10 -85.6353
      11 -85.6342      12 -85.6342      13 -85.6352      14 -85.6347      15 -85.6341
      16 -85.6344      17 -85.6348      18 -85.6352      19 -85.6356      20 -85.6349
      21 -85.6340      22 -85.6339      23 -85.6371      24 -85.6370      25 -85.6340
      26 -85.6342      27 -85.6349      28 -85.6360      29 -85.6340      30 -85.6340
      31 -85.6363      32 -85.6356      33 -85.6344      34 -85.6343      35 -85.6343
      36 -85.6345      37 -85.6351      38 -85.6354      39 -85.6354      40 -85.6353
      41 -85.6353      42 -85.6355      43 -85.6349      44 -85.6356      45 -85.6341
      46 -85.6342      47 -85.6342      48 -85.6342      49 -85.6353      50 -85.6350
      51 -89.5730      52-120.3521      53-120.3515
 
 
 
 E-fermi :  -4.2528     XC(G=0):  -1.9434     alpha+bet : -1.6890

 Fermi energy:        -4.2527853433

 k-point     1 :       0.0000    0.0000    0.0000
  band No.  band energies     occupation 
      1     -27.6740      2.00000
      2     -26.6687      2.00000
      3     -22.3848      2.00000
      4     -21.4455      2.00000
      5     -21.4443      2.00000
      6     -21.4440      2.00000
      7     -21.4438      2.00000
      8     -21.4436      2.00000
      9     -21.4433      2.00000
     10     -19.6005      2.00000
     11     -19.6004      2.00000
     12     -19.6001      2.00000
     13     -19.5995      2.00000
     14     -19.5991      2.00000
     15     -19.5989      2.00000
     16     -18.7026      2.00000
     17     -18.7024      2.00000
     18     -18.7020      2.00000
     19     -18.7017      2.00000
     20     -18.7010      2.00000
     21     -18.7008      2.00000
     22     -16.5346      2.00000
     23     -16.5342      2.00000
     24     -16.5335      2.00000
     25     -16.5333      2.00000
     26     -16.5328      2.00000
     27     -16.5328      2.00000
     28     -15.5487      2.00000
     29     -15.5487      2.00000
     30     -15.5477      2.00000
     31     -15.5476      2.00000
     32     -15.5472      2.00000
     33     -15.5471      2.00000
     34     -14.1951      2.00000
     35     -14.1950      2.00000
     36     -14.1944      2.00000
     37     -14.1942      2.00000
     38     -14.1941      2.00000
     39     -14.1939      2.00000
     40     -12.4773      2.00000
     41     -11.8061      2.00000
     42     -11.8059      2.00000
     43     -11.8054      2.00000
     44     -11.8054      2.00000
     45     -11.8043      2.00000
     46     -11.8040      2.00000
     47     -11.7092      2.00000
     48     -11.7091      2.00000
     49     -11.7084      2.00000
     50     -11.7084      2.00000
     51     -11.7082      2.00000
     52     -11.7080      2.00000
     53     -11.2878      2.00000
     54     -11.2232      2.00000
     55     -11.2231      2.00000
     56     -10.4767      2.00000
     57     -10.3321      2.00000
     58     -10.3320      2.00000
     59     -10.3304      2.00000
     60     -10.3300      2.00000
     61     -10.3299      2.00000
     62     -10.3298      2.00000
     63      -9.3607      2.00000
     64      -9.3601      2.00000
     65      -9.3600      2.00000
     66      -9.3592      2.00000
     67      -9.3590      2.00000
     68      -9.3589      2.00000
     69      -9.0522      2.00000
     70      -9.0514      2.00000
     71      -9.0509      2.00000
     72      -9.0508      2.00000
     73      -9.0505      2.00000
     74      -9.0503      2.00000
     75      -9.0035      2.00000
     76      -9.0032      2.00000
     77      -9.0026      2.00000
     78      -9.0025      2.00000
     79      -9.0023      2.00000
     80      -9.0015      2.00000
     81      -7.6765      2.00000
     82      -7.6764      2.00000
     83      -7.3960      2.00000
     84      -7.3944      2.00000
     85      -7.3942      2.00000
     86      -7.3938      2.00000
     87      -7.3928      2.00000
     88      -7.3928      2.00000
     89      -7.2310      2.00000
     90      -7.2307      2.00000
     91      -7.2305      2.00000
     92      -7.2301      2.00000
     93      -7.2299      2.00000
     94      -7.2296      2.00000
     95      -6.3345      2.00000
     96      -6.3343      2.00000
     97      -6.3339      2.00000
     98      -6.3337      2.00000
     99      -6.3333      2.00000
    100      -6.3331      2.00000
    101      -5.9065      2.00000
    102      -5.9043      2.00000
    103      -4.3515      2.00000
    104      -4.3511      2.00000
    105      -4.3506      2.00000
    106      -4.3505      2.00000
    107      -4.3499      2.00000
    108      -4.3497      2.00000
    109      -1.5485      0.00000
    110      -1.5483      0.00000
    111      -1.5479      0.00000
    112      -1.5477      0.00000
    113      -1.5471      0.00000
    114      -1.5468      0.00000
    115       0.2338      0.00000
    116       0.3156      0.00000
    117       0.3160      0.00000
    118       0.3165      0.00000
    119       0.3165      0.00000
    120       0.3167      0.00000
    121       0.3182      0.00000
    122       0.5196      0.00000
    123       0.8044      0.00000
    124       0.8076      0.00000
    125       1.2293      0.00000
    126       1.5385      0.00000
    127       1.6361      0.00000
    128       1.6442      0.00000
    129       1.6751      0.00000
    130       1.6792      0.00000
    131       1.6838      0.00000
    132       1.6926      0.00000
    133       1.9976      0.00000
    134       2.0564      0.00000
    135       2.0566      0.00000
    136       2.0570      0.00000
    137       2.0574      0.00000
    138       2.0587      0.00000
    139       2.0602      0.00000
    140       2.2067      0.00000
[...]
     30     C        0.00013495
     31     C       -0.00017196
     32     C       -0.00011281
     33     C        0.00008361
     34     C        0.00010428
     35     C        0.00011153
     36     C        0.00008144
     37     C        0.00000463
     38     C        0.00000105
     39     C       -0.00005782
     40     C       -0.00002695
     41     C       -0.00003492
     42     C       -0.00008833
     43     C        0.00004004
     44     C       -0.00002473
     45     C        0.00013528
     46     C        0.00011338
     47     C        0.00009486
     48     C        0.00012029
     49     C        0.00001390
     50     C        0.00002415
     51     C        0.29457401
     52     O       -0.14763408
     53     O       -0.14767032

  Atomic reference data used in the T-S method for vdW correction:
            C6at              R0at           ALPHAat      REFSTATE
            (au)              (au)            (au)                
   ---------------------------------------------------------------
   C          46.600          3.590         12.000         0
   O          15.600          3.194          5.400         0
 
 Nth order contribution to Edisp (eV)
 Edisp(N=2):  -4.52657085247316     
 Edisp(N=3):  0.341369952025110     
 Edisp(N=4): -0.524027116356114     
 Edisp(N=5):  0.243548126959587     
 Edisp(N=6): -0.235589079377976     
 Edisp(N=inf):  -4.61072439349950     

  Tkatchenko/Scheffler method for vdW energy calculation
  ---------------------------------------------------------------------------------------------

  Parameters of vdW forcefield:
            C6ts              R0ts          ALPHAts         R0scs        ALPHAscs        RELVOL 
            (au)              (au)           (au)            (au)          (au)                 
   ---------------------------------------------------------------------------------------------
   C          32.898          3.388         10.083          3.266          9.032          0.840
   C          32.899          3.388         10.083          3.266          9.031          0.840
   C          32.908          3.388         10.084          3.266          9.033          0.840
   C          32.917          3.388         10.086          3.266          9.031          0.840
   C          32.891          3.388         10.082          3.266          9.030          0.840
   C          32.889          3.388         10.081          3.266          9.029          0.840
   C          32.910          3.388         10.084          3.266          9.035          0.840
   C          32.906          3.388         10.084          3.267          9.036          0.840
   C          32.901          3.388         10.083          3.266          9.034          0.840
   C          32.911          3.388         10.085          3.267          9.037          0.840
   C          32.887          3.388         10.081          3.266          9.032          0.840
   C          32.887          3.388         10.081          3.266          9.031          0.840
   C          32.911          3.388         10.085          3.266          9.036          0.840
   C          32.900          3.388         10.083          3.266          9.032          0.840
   C          32.889          3.388         10.081          3.265          9.027          0.840
   C          32.892          3.388         10.082          3.266          9.029          0.840
   C          32.891          3.388         10.082          3.266          9.031          0.840
   C          32.894          3.388         10.082          3.266          9.030          0.840
   C          32.899          3.388         10.083          3.266          9.032          0.840
   C          32.893          3.388         10.082          3.266          9.030          0.840
   C          32.893          3.388         10.082          3.266          9.029          0.840
   C          32.888          3.388         10.081          3.266          9.028          0.840
   C          32.922          3.388         10.086          3.266          9.031          0.841
   C          32.921          3.388         10.086          3.266          9.031          0.841
   C          32.886          3.388         10.081          3.266          9.032          0.840
   C          32.888          3.388         10.081          3.266          9.031          0.840
   C          32.903          3.388         10.083          3.266          9.035          0.840
   C          32.905          3.388         10.084          3.266          9.034          0.840
   C          32.890          3.388         10.081          3.266          9.028          0.840
   C          32.887          3.388         10.081          3.266          9.032          0.840
   C          32.912          3.388         10.085          3.266          9.032          0.840
   C          32.904          3.388         10.083          3.266          9.033          0.840
   C          32.889          3.388         10.081          3.266          9.031          0.840
   C          32.888          3.388         10.081          3.266          9.032          0.840
   C          32.889          3.388         10.081          3.266          9.031          0.840
   C          32.890          3.388         10.081          3.266          9.031          0.840
   C          32.896          3.388         10.082          3.266          9.030          0.840
   C          32.895          3.388         10.082          3.266          9.031          0.840
   C          32.898          3.388         10.083          3.266          9.033          0.840
   C          32.896          3.388         10.082          3.266          9.032          0.840
   C          32.897          3.388         10.082          3.266          9.032          0.840
   C          32.901          3.388         10.083          3.266          9.034          0.840
   C          32.893          3.388         10.082          3.266          9.030          0.840
   C          32.901          3.388         10.083          3.266          9.033          0.840
   C          32.887          3.388         10.081          3.266          9.031          0.840
   C          32.891          3.388         10.081          3.266          9.028          0.840
   C          32.888          3.388         10.081          3.266          9.031          0.840
   C          32.887          3.388         10.081          3.266          9.032          0.840
   C          32.894          3.388         10.082          3.266          9.031          0.840
   C          32.893          3.388         10.082          3.266          9.031          0.840
   C          26.355          3.265          9.024          3.199          8.490          0.752
   O          12.455          3.076          4.825          3.036          4.637          0.894
   O          12.454          3.076          4.825          3.036          4.637          0.894

  vdW correction parametrized for the method pbe       

  IVDW = 202
  VDW_RADIUS =    50.000 A
  VDW_SR =     0.830
  VDW_D =     6.000
  SCSRAD =   120.000 A
  LVDWSCS = T
  LSCSGRAD = T
  LSCALER0 = T
  ITIM = -1
  Edisp (eV):   -4.61072
    FORVDW:  cpu time   18.8179: real time   18.9537

 VOLUME and BASIS-vectors are now :
 -----------------------------------------------------------------------------
  energy-cutoff  :     1000.00
  volume of cell :     3288.85
      direct lattice vectors                 reciprocal lattice vectors
    12.325000000  0.000000000  0.000000000     0.081135903  0.046843835  0.000000000
    -6.162500000 10.673763102  0.000000000     0.000000000  0.093687670  0.000000000
     0.000000000  0.000000000 25.000000000     0.000000000  0.000000000  0.040000000

  length of vectors
    12.325000000 12.325000000 25.000000000     0.093687670  0.093687670  0.040000000


 FORCES acting on ions:
    Electron-Ion                     Ewald-Force                    Non-Local-Force
 -----------------------------------------------------------------------------------------------
   0.138E+01 0.121E+01 0.181E+02   -.138E+01 -.121E+01 -.181E+02   0.506E-02 -.728E-03 0.623E-02
   0.192E+01 0.982E+00 0.196E+02   -.193E+01 -.979E+00 -.196E+02   0.394E-02 -.333E-02 -.558E-02
   0.782E+00 0.213E+01 0.201E+02   -.783E+00 -.213E+01 -.201E+02   -.136E-03 0.123E-01 -.322E-03
   0.989E+00 0.143E+01 0.232E+02   -.987E+00 -.143E+01 -.232E+02   0.121E-01 0.101E-02 -.136E-01
   0.149E+01 0.371E+00 0.185E+02   -.149E+01 -.371E+00 -.185E+02   -.581E-04 -.573E-02 0.305E-02
   0.153E+01 -.327E+00 0.187E+02   -.153E+01 0.329E+00 -.187E+02   -.628E-02 0.324E-02 -.325E-02
   0.191E+01 0.742E+00 0.229E+02   -.191E+01 -.742E+00 -.229E+02   0.127E-01 -.195E-01 -.569E-02
   0.189E+01 -.649E+00 0.241E+02   -.190E+01 0.652E+00 -.240E+02   -.610E-02 -.593E-02 -.545E-02
   -.950E+00 0.199E+01 0.204E+02   0.954E+00 -.199E+01 -.204E+02   -.746E-03 -.122E-01 -.488E-02
   -.131E+01 0.111E+01 0.233E+02   0.131E+01 -.112E+01 -.233E+02   -.267E-01 0.155E-01 0.297E-02
   0.396E+00 -.409E+00 0.174E+02   -.393E+00 0.409E+00 -.174E+02   0.356E-02 -.277E-02 -.295E-03
   0.369E+00 -.309E+00 0.170E+02   -.368E+00 0.309E+00 -.170E+02   -.710E-02 0.349E-02 0.574E-02
   0.664E+00 -.154E+01 0.252E+02   -.665E+00 0.154E+01 -.251E+02   0.274E-01 -.829E-02 -.159E-02
   0.406E+00 -.220E+01 0.216E+02   -.411E+00 0.220E+01 -.216E+02   0.441E-02 0.606E-02 -.159E-01
   -.138E+01 0.835E+00 0.180E+02   0.138E+01 -.837E+00 -.180E+02   0.730E-02 -.379E-02 0.688E-02
   -.180E+01 0.522E+00 0.185E+02   0.180E+01 -.523E+00 -.185E+02   -.225E-02 0.561E-02 -.522E-02
   -.254E+00 -.101E+00 0.166E+02   0.258E+00 0.994E-01 -.166E+02   -.628E-03 0.487E-03 0.189E-02
   0.113E+00 0.870E+00 0.168E+02   -.112E+00 -.870E+00 -.168E+02   -.316E-02 0.176E-02 0.920E-02
   -.355E+00 -.212E+01 0.197E+02   0.355E+00 0.212E+01 -.197E+02   0.642E-02 -.210E-02 0.507E-03
   -.206E+00 -.128E+01 0.176E+02   0.202E+00 0.128E+01 -.176E+02   0.331E-03 -.133E-02 -.778E-03
   0.196E+01 -.852E+00 0.206E+02   -.196E+01 0.853E+00 -.205E+02   -.113E-02 -.268E-02 -.169E-01
   0.137E+01 -.111E+01 0.192E+02   -.138E+01 0.111E+01 -.192E+02   -.670E-02 0.523E-02 -.263E-02
   -.347E+00 0.626E+00 0.255E+02   0.344E+00 -.624E+00 -.255E+02   -.105E-01 0.107E-01 0.232E-02
   -.476E+00 -.984E+00 0.254E+02   0.477E+00 0.983E+00 -.254E+02   0.123E-01 -.152E-01 -.918E-02
   0.750E+00 -.279E+00 0.174E+02   -.748E+00 0.278E+00 -.174E+02   0.347E-02 -.255E-02 -.355E-02
   0.200E+00 0.646E+00 0.173E+02   -.200E+00 -.645E+00 -.173E+02   -.546E-02 0.363E-02 0.526E-02
   -.218E+01 0.266E+00 0.210E+02   0.218E+01 -.269E+00 -.210E+02   0.110E-01 0.820E-02 -.215E-02
   -.206E+01 -.828E+00 0.203E+02   0.207E+01 0.828E+00 -.203E+02   -.932E-02 0.919E-02 0.110E-02
   0.778E+00 -.158E+01 0.195E+02   -.779E+00 0.158E+01 -.195E+02   0.486E-02 0.197E-02 -.710E-02
   0.683E-01 -.697E+00 0.179E+02   -.707E-01 0.699E+00 -.179E+02   -.465E-02 0.235E-02 -.260E-02
   -.148E+01 -.151E+01 0.218E+02   0.148E+01 0.151E+01 -.218E+02   -.122E-01 -.835E-02 -.119E-01
   -.107E+01 -.201E+01 0.196E+02   0.107E+01 0.201E+01 -.196E+02   0.616E-03 -.156E-02 0.243E-02
   0.923E-01 0.416E+00 0.169E+02   -.927E-01 -.416E+00 -.169E+02   0.534E-02 -.478E-02 0.692E-02
   0.252E+00 0.386E+00 0.172E+02   -.255E+00 -.385E+00 -.172E+02   -.219E-02 0.456E-02 -.135E-02
   -.944E+00 0.170E+00 0.176E+02   0.947E+00 -.171E+00 -.176E+02   0.397E-02 -.236E-02 0.565E-02
   -.838E+00 -.377E+00 0.175E+02   0.838E+00 0.377E+00 -.175E+02   -.435E-02 0.250E-02 0.359E-02
   -.159E+01 -.849E+00 0.180E+02   0.160E+01 0.847E+00 -.180E+02   -.155E-02 0.102E-02 0.333E-02
   -.105E+01 -.841E+00 0.172E+02   0.105E+01 0.841E+00 -.173E+02   -.422E-02 0.126E-02 0.901E-02
   -.957E+00 -.121E+01 0.176E+02   0.957E+00 0.122E+01 -.176E+02   -.314E-02 0.632E-04 0.489E-02
   -.144E+00 -.331E+00 0.169E+02   0.145E+00 0.331E+00 -.169E+02   0.193E-02 0.518E-03 0.740E-02
   0.361E+00 0.906E+00 0.170E+02   -.361E+00 -.906E+00 -.170E+02   -.402E-02 0.189E-02 0.694E-02
   0.109E+01 0.167E+01 0.182E+02   -.109E+01 -.168E+01 -.182E+02   -.421E-03 -.639E-03 0.784E-02
   0.115E+00 0.150E+01 0.174E+02   -.111E+00 -.150E+01 -.174E+02   -.548E-03 0.116E-02 0.209E-02
   -.180E-01 0.220E+01 0.193E+02   0.195E-01 -.220E+01 -.193E+02   -.841E-02 0.228E-02 0.529E-02
   -.286E+00 0.535E+00 0.176E+02   0.288E+00 -.537E+00 -.176E+02   0.399E-02 -.288E-02 0.106E-02
   -.105E+01 0.131E+01 0.184E+02   0.106E+01 -.131E+01 -.184E+02   -.655E-02 0.584E-03 -.175E-02
   -.281E+00 -.657E+00 0.174E+02   0.280E+00 0.657E+00 -.174E+02   0.650E-02 -.143E-02 0.567E-02
   -.591E+00 0.211E+00 0.169E+02   0.589E+00 -.210E+00 -.169E+02   -.348E-02 0.324E-02 -.325E-02
   0.609E-01 -.405E+00 0.169E+02   -.616E-01 0.406E+00 -.169E+02   0.445E-02 -.322E-02 0.572E-02
   0.645E+00 0.460E+00 0.169E+02   -.648E+00 -.458E+00 -.169E+02   0.105E-03 0.161E-02 0.318E-02
   0.252E-02 0.218E-01 -.238E+03   -.657E-02 -.182E-01 0.238E+03   -.292E-02 0.190E-02 -.283E-02
   -.229E+03 0.156E+03 -.370E+03   0.279E+03 -.190E+03 0.374E+03   -.511E+02 0.348E+02 -.343E+01
   0.229E+03 -.156E+03 -.348E+03   -.279E+03 0.190E+03 0.345E+03   0.511E+02 -.348E+02 0.309E+01
 -----------------------------------------------------------------------------------------------
   -.669E-02 0.135E-01 0.343E+00   0.114E-12 -.114E-12 0.114E-12   0.696E-02 -.137E-01 -.343E+00
 
 
 POSITION                                       TOTAL-FORCE (eV/Angst)
 -----------------------------------------------------------------------------------
     11.98348      0.00342      0.01417         0.003143     -0.001624     -0.001130
     -0.34154      1.42665      0.01100        -0.000734     -0.000061     -0.003442
      2.12355      0.00315      0.01249        -0.001677      0.010679     -0.006485
      2.12326      1.42653      0.00641         0.013239      0.001285     -0.008156
     10.75099      2.13819      0.01213         0.000256     -0.005651     -0.000091
     -1.57382      3.56123      0.01110        -0.008909      0.004830     -0.001438
      0.89078      2.13854      0.00548         0.009485     -0.018959      0.002577
      0.89099      3.56147      0.00181        -0.011948     -0.002394      0.012143
      4.58864      0.00346      0.01135         0.003683     -0.015937     -0.003514
      4.58894      1.42623      0.00646        -0.023513      0.013265      0.014045
      9.51854      4.27281      0.01369         0.006592     -0.003133      0.000092
     -2.80632      5.69591      0.01434        -0.006454      0.003370      0.000679
      2.12300      4.27302      0.00000         0.024950     -0.005003      0.020826
      2.12335      5.69594      0.00581        -0.000579      0.009237     -0.002494
      7.05344      0.00333      0.01399         0.009380     -0.005289     -0.000418
      7.05353      1.42635      0.01368        -0.001614      0.004970     -0.003933
      8.28610      6.40752      0.01601         0.002999     -0.001507     -0.000988
     -4.03885      7.83070      0.01636        -0.002171      0.000844     -0.000250
      3.35586      6.40753      0.01007         0.005380      0.000543     -0.001214
      3.35599      7.83072      0.01320        -0.003247      0.000066     -0.000749
     -0.34146      4.27290      0.00723        -0.001938     -0.001441     -0.004399
     -0.34138      5.69591      0.00946        -0.009220      0.006502     -0.001002
      3.35624      2.13791      0.00222        -0.013462      0.011915      0.016355
      3.35573      3.56155      0.00139         0.013488     -0.015852      0.008828
     -1.57395      6.40758      0.01311         0.005454     -0.003960     -0.000695
     -1.57385      7.83068      0.01438        -0.004774      0.003697     -0.000057
      5.82093      2.13784      0.01033         0.016129      0.005172     -0.002860
      5.82114      3.56097      0.01156        -0.006283      0.008440     -0.003696
      0.89092      6.40755      0.00907         0.004504      0.002385     -0.002196
      0.89106      7.83068      0.01235        -0.006892      0.003840      0.000286
      4.58871      4.27293      0.00850        -0.012851     -0.006532     -0.010748
      4.58852      5.69606      0.01149         0.001918     -0.001015     -0.003990
      9.51845      0.00337      0.01490         0.004669     -0.004638      0.000077
      9.51855      1.42644      0.01438        -0.005120      0.005487     -0.000459
      8.28593      2.13803      0.01453         0.006701     -0.003435      0.000504
      8.28613      3.56115      0.01464        -0.004228      0.002200     -0.000162
      7.05356      4.27269      0.01457         0.002698     -0.001123     -0.000793
      7.05362      5.69588      0.01553        -0.002433      0.001553     -0.000205
      5.82112      6.40755      0.01489        -0.002914      0.001612     -0.000212
      5.82102      7.83073      0.01579         0.002700      0.000305     -0.000432
      7.05363      8.54227      0.01631        -0.004667      0.001231      0.000881
     -5.27149      9.96549      0.01495         0.000044     -0.002052     -0.002289
     -2.80638      8.54234      0.01558         0.003219     -0.001406     -0.001389
     -2.80627      9.96553      0.01362        -0.006663     -0.000136     -0.003883
     -0.34149      8.54239      0.01378         0.005829     -0.004873      0.000127
     -0.34138      9.96550      0.01354        -0.005879     -0.000150     -0.001379
      2.12343      8.54232      0.01336         0.005789     -0.001484      0.000726
      2.12354      9.96544      0.01469        -0.005199      0.003826     -0.002022
      4.58846      8.54235      0.01505         0.003650     -0.002780      0.000861
      4.58853      9.96550      0.01517        -0.002845      0.003374     -0.000012
      3.04930      2.68154      7.07107        -0.006795      0.005513      0.033590
      4.02070      2.02068      7.13549        -0.530631      0.360616     -0.051827
      2.07767      3.34267      7.01161         0.537739     -0.366319      0.016409
 -----------------------------------------------------------------------------------
    total drift:                                0.000273     -0.000246      0.000327


--------------------------------------------------------------------------------------------------------



  FREE ENERGIE OF THE ION-ELECTRON SYSTEM (eV)
  ---------------------------------------------------
  free  energy   TOTEN  =      -489.38031069 eV

  energy  without entropy=     -489.38031069  energy(sigma->0) =     -489.38031069
 


--------------------------------------------------------------------------------------------------------


    POTLOK:  cpu time    0.8161: real time    0.8221


--------------------------------------------------------------------------------------------------------


     LOOP+:  cpu time  354.7925: real time  358.0508
    4ORBIT:  cpu time    0.0000: real time    0.0000

 total amount of memory used by VASP MPI-rank0   551512. kBytes
=======================================================================

   base      :      30000. kBytes
   nonl-proj :     230539. kBytes
   fftplans  :      40716. kBytes
   grid      :     216018. kBytes
   one-center:        162. kBytes
   wavefun   :      34077. kBytes
 
  
  
 General timing and accounting informations for this job:
 ========================================================
  
                  Total CPU time used (sec):      403.137
                            User time (sec):      382.648
                          System time (sec):       20.489
                         Elapsed time (sec):      407.777
  
                   Maximum memory used (kb):     1045416.
                   Average memory used (kb):          N/A
  
                          Minor page faults:       105947
                          Major page faults:           85
                 Voluntary context switches:         2704
