 vasp.6.2.1 16May21 (build Nov 06 2021 14:46:37) complex                        
  
 executed on             LinuxIFC date 2025.04.16  19:29:18
 running on  112 total cores
 distrk:  each k-point on   56 cores,    2 groups
 distr:  one band on NCORE=   1 cores,   56 groups


--------------------------------------------------------------------------------------------------------


 INCAR:
   ALGO = Conjugate
   KPAR = 2
   NCORE = 32
   PREC = Accurate
   EDIFF = 1E-7
   ENCUT = 1000
   ISMEAR = 0
   SIGMA = 0.01
   ISIF = 0
   GGA = PE
   IVDW = 202
   LVDWEXPANSION = .TRUE.
   LWAVE = .FALSE.
   LCHARGE = .FALSE.
   SYMPREC = 1E-7

 POTCAR:    PAW_PBE C_h 06Feb2004                 
 POTCAR:    PAW_PBE O_h 06Feb2004                 
 -----------------------------------------------------------------------------
|                                                                             |
|           W    W    AA    RRRRR   N    N  II  N    N   GGGG   !!!           |
|           W    W   A  A   R    R  NN   N  II  NN   N  G    G  !!!           |
|           W    W  A    A  R    R  N N  N  II  N N  N  G       !!!           |
|           W WW W  AAAAAA  RRRRR   N  N N  II  N  N N  G  GGG   !            |
|           WW  WW  A    A  R   R   N   NN  II  N   NN  G    G                |
|           W    W  A    A  R    R  N    N  II  N    N   GGGG   !!!           |
|                                                                             |
|     The value NCORE = 32 specified in the INCAR file was overwritten,       |
|     because it was not compatible with the 56 processes available:          |
|     NCORE = 1                                                               |
|     was used instead, please check that this makes sense for your           |
|     machine.                                                                |
|                                                                             |
 -----------------------------------------------------------------------------

 -----------------------------------------------------------------------------
|                                                                             |
|           W    W    AA    RRRRR   N    N  II  N    N   GGGG   !!!           |
|           W    W   A  A   R    R  NN   N  II  NN   N  G    G  !!!           |
|           W    W  A    A  R    R  N N  N  II  N N  N  G       !!!           |
|           W WW W  AAAAAA  RRRRR   N  N N  II  N  N N  G  GGG   !            |
|           WW  WW  A    A  R   R   N   NN  II  N   NN  G    G                |
|           W    W  A    A  R    R  N    N  II  N    N   GGGG   !!!           |
|                                                                             |
|     For optimal performance we recommend to set                             |
|       NCORE = 2 up to number-of-cores-per-socket                            |
|     NCORE specifies how many cores store one orbital (NPAR=cpu/NCORE).      |
|     This setting can greatly improve the performance of VASP for DFT.       |
|     The default, NCORE=1 might be grossly inefficient on modern             |
|     multi-core architectures or massively parallel machines. Do your        |
|     own testing! More info at https://www.vasp.at/wiki/index.php/NCORE      |
|     Unfortunately you need to use the default for GW and RPA                |
|     calculations (for HF NCORE is supported but not extensively tested      |
|     yet).                                                                   |
|                                                                             |
 -----------------------------------------------------------------------------

 POTCAR:    PAW_PBE C_h 06Feb2004                 
   VRHFIN =C: s2p2                                                                                  
   LEXCH  = PE                                                                                      
   EATOM  =   147.1560 eV,   10.8157 Ry                                                             
                                                                                                    
   TITEL  = PAW_PBE C_h 06Feb2004                                                                   
   LULTRA =        F    use ultrasoft PP ?                                                          
   IUNSCR =        1    unscreen: 0-lin 1-nonlin 2-no                                               
   RPACOR =    0.800    partial core radius                                                         
   POMASS =   12.011; ZVAL   =    4.000    mass and valenz                                          
   RCORE  =    1.100    outmost cutoff radius                                                       
   RWIGS  =    1.630; RWIGS  =    0.863    wigner-seitz radius (au A)                               
   ENMAX  =  700.000; ENMIN  =  500.000 eV                                                          
   ICORE  =        2    local potential                                                             
   LCOR   =        T    correct aug charges                                                         
   LPAW   =        T    paw PP                                                                      
   EAUG   =  946.768                                                                                
   DEXC   =    0.000                                                                                
   RMAX   =    1.128    core radius for proj-oper                                                   
   RAUG   =    1.300    factor for augmentation sphere                                              
   RDEP   =    1.162    radius for radial grids                                                     
   RDEPT  =    1.088    core radius for aug-charge                                                  
                                                                                                    
   Atomic configuration                                                                             
    4 entries                                                                                       
     n  l   j            E        occ.                                                              
     1  0  0.50      -273.3789   2.0000                                                             
     2  0  0.50       -13.7508   2.0000                                                             
     2  1  0.50        -5.2854   2.0000                                                             
     3  2  1.50        -5.4423   0.0000                                                             
   Description                                                                                      
     l       E           TYP  RCUT    TYP  RCUT                                                     
     0    -13.7508458     23  1.100                                                                 
     0     -8.2022199     23  1.100                                                                 
     1     -5.2854383     23  1.100                                                                 
     1      1.1560700     23  1.100                                                                 
     2     -5.4423304      7  1.100                                                                 
  local pseudopotential read in
  partial core-charges read in
  partial kinetic energy density read in
  atomic valenz-charges read in
  non local Contribution for L=           0  read in
    real space projection operators read in
  non local Contribution for L=           0  read in
    real space projection operators read in
  non local Contribution for L=           1  read in
    real space projection operators read in
  non local Contribution for L=           1  read in
    real space projection operators read in
    PAW grid and wavefunctions read in
 
   number of l-projection  operators is LMAX  =           4
   number of lm-projection operators is LMMAX =           8
 
 POTCAR:    PAW_PBE O_h 06Feb2004                 
   VRHFIN =O: s2p4                                                                                  
   LEXCH  = PE                                                                                      
   EATOM  =   432.3788 eV,   31.7789 Ry                                                             
                                                                                                    
   TITEL  = PAW_PBE O_h 06Feb2004                                                                   
   LULTRA =        F    use ultrasoft PP ?                                                          
   IUNSCR =        1    unscreen: 0-lin 1-nonlin 2-no                                               
   RPACOR =    0.800    partial core radius                                                         
   POMASS =   16.000; ZVAL   =    6.000    mass and valenz                                          
   RCORE  =    1.100    outmost cutoff radius                                                       
   RWIGS  =    1.400; RWIGS  =    0.741    wigner-seitz radius (au A)                               
   ENMAX  =  700.000; ENMIN  =  500.000 eV                                                          
   ICORE  =        2    local potential                                                             
   LCOR   =        T    correct aug charges                                                         
   LPAW   =        T    paw PP                                                                      
   EAUG   =  888.804                                                                                
   DEXC   =    0.000                                                                                
   RMAX   =    1.128    core radius for proj-oper                                                   
   RAUG   =    1.300    factor for augmentation sphere                                              
   RDEP   =    1.125    radius for radial grids                                                     
   RDEPT  =    1.088    core radius for aug-charge                                                  
                                                                                                    
   Atomic configuration                                                                             
    4 entries                                                                                       
     n  l   j            E        occ.                                                              
     1  0  0.50      -514.6923   2.0000                                                             
     2  0  0.50       -23.9615   2.0000                                                             
     2  1  0.50        -9.0305   4.0000                                                             
     3  2  1.50        -9.5241   0.0000                                                             
   Description                                                                                      
     l       E           TYP  RCUT    TYP  RCUT                                                     
     0    -23.9615319     23  1.100                                                                 
     0    -25.3221145     23  1.100                                                                 
     1     -9.0304911     23  1.100                                                                 
     1     -5.4802209     23  1.100                                                                 
     2     -9.5240782      7  1.100                                                                 
  local pseudopotential read in
  partial core-charges read in
  partial kinetic energy density read in
  atomic valenz-charges read in
  non local Contribution for L=           0  read in
    real space projection operators read in
  non local Contribution for L=           0  read in
    real space projection operators read in
  non local Contribution for L=           1  read in
    real space projection operators read in
  non local Contribution for L=           1  read in
    real space projection operators read in
    PAW grid and wavefunctions read in
 
   number of l-projection  operators is LMAX  =           4
   number of lm-projection operators is LMMAX =           8
 
 -----------------------------------------------------------------------------
|                                                                             |
|               ----> ADVICE to this user running VASP <----                  |
|                                                                             |
|     You have a (more or less) 'large supercell' and for larger cells it     |
|     might be more efficient to use real-space projection operators.         |
|     Therefore, try LREAL= Auto in the INCAR file.                           |
|     Mind: For very accurate calculation, you might also keep the            |
|     reciprocal projection scheme (i.e. LREAL=.FALSE.).                      |
|                                                                             |
 -----------------------------------------------------------------------------

  PAW_PBE C_h 06Feb2004                 :
 energy of atom  1       EATOM= -147.1560
 kinetic energy error for atom=    0.0031 (will be added to EATOM!!)
  PAW_PBE O_h 06Feb2004                 :
 energy of atom  2       EATOM= -432.3788
 kinetic energy error for atom=    0.0171 (will be added to EATOM!!)
 
 
 POSCAR:  C  O
  positions in cartesian coordinates
  No initial velocities read in
 exchange correlation table for  LEXCH =        8
   RHO(1)=    0.500       N(1)  =     2000
   RHO(2)=  100.500       N(2)  =     4000
 


--------------------------------------------------------------------------------------------------------


 ion  position               nearest neighbor table
   1  0.972  0.000  0.001-  50 1.42   2 1.42  42 1.42
   2  0.039  0.134  0.000-   5 1.42   7 1.42   1 1.42
   3  0.172  0.000  0.000-  42 1.42  44 1.42   4 1.42
   4  0.239  0.134  0.000-   7 1.42   3 1.42  23 1.42
   5  0.972  0.200  0.000-   6 1.42   2 1.42  34 1.42
   6  0.039  0.334  0.000-   5 1.42  21 1.42  11 1.42
   7  0.172  0.200  0.000-   8 1.42   2 1.42   4 1.42
   8  0.239  0.334  0.000-  13 1.42   7 1.42  21 1.42
   9  0.372  0.000  0.000-  10 1.42  44 1.42  46 1.42
  10  0.439  0.134  0.000-  27 1.42   9 1.42  23 1.42
  11  0.972  0.400  0.001-  12 1.42  36 1.42   6 1.42
  12  0.039  0.534  0.001-  25 1.42  11 1.42  17 1.42
  13  0.372  0.400  0.000-   8 1.42  14 1.42  24 1.42
  14  0.439  0.534  0.000-  13 1.42  29 1.42  19 1.42
  15  0.572  0.000  0.001-  46 1.42  16 1.42  48 1.42
  16  0.639  0.134  0.001-  15 1.42  35 1.42  27 1.42
  17  0.972  0.600  0.001-  38 1.42  18 1.42  12 1.42
  18  0.039  0.734  0.001-  43 1.42  41 1.42  17 1.42
  19  0.572  0.600  0.000-  14 1.42  20 1.42  32 1.42
  20  0.639  0.734  0.001-  49 1.42  19 1.42  47 1.42
  21  0.172  0.400  0.000-  22 1.42   8 1.42   6 1.42
  22  0.239  0.534  0.000-  21 1.42  29 1.42  25 1.42
  23  0.372  0.200  0.000-  10 1.42   4 1.42  24 1.42
  24  0.439  0.334  0.000-  13 1.42  31 1.42  23 1.42
  25  0.172  0.600  0.001-  26 1.42  12 1.42  22 1.42
  26  0.239  0.734  0.001-  25 1.42  45 1.42  43 1.42
  27  0.572  0.200  0.000-  10 1.42  28 1.42  16 1.42
  28  0.639  0.334  0.000-  27 1.42  37 1.42  31 1.42
  29  0.372  0.600  0.000-  22 1.42  14 1.42  30 1.42
  30  0.439  0.734  0.000-  47 1.42  29 1.42  45 1.42
  31  0.572  0.400  0.000-  32 1.42  28 1.42  24 1.42
  32  0.639  0.534  0.000-  31 1.42  39 1.42  19 1.42
  33  0.772  0.000  0.001-  34 1.42  48 1.42  50 1.42
  34  0.839  0.134  0.001-  33 1.42   5 1.42  35 1.42
  35  0.772  0.200  0.001-  36 1.42  16 1.42  34 1.42
  36  0.839  0.334  0.001-  35 1.42  11 1.42  37 1.42
  37  0.772  0.400  0.001-  28 1.42  38 1.42  36 1.42
  38  0.839  0.534  0.001-  17 1.42  37 1.42  39 1.42
  39  0.772  0.600  0.001-  40 1.42  38 1.42  32 1.42
  40  0.839  0.734  0.001-  39 1.42  49 1.42  41 1.42
  41  0.972  0.800  0.001-  18 1.42  42 1.42  40 1.42
  42  0.039  0.934  0.001-   3 1.42  41 1.42   1 1.42
  43  0.172  0.800  0.001-  18 1.42  44 1.42  26 1.42
  44  0.239  0.934  0.001-   9 1.42  43 1.42   3 1.42
  45  0.372  0.800  0.001-  26 1.42  46 1.42  30 1.42
  46  0.439  0.934  0.001-  15 1.42  45 1.42   9 1.42
  47  0.572  0.800  0.001-  30 1.42  48 1.42  20 1.42
  48  0.639  0.934  0.001-  47 1.42  33 1.42  15 1.42
  49  0.772  0.800  0.001-  50 1.42  20 1.42  40 1.42
  50  0.839  0.934  0.001-  49 1.42   1 1.42  33 1.42
  51  0.373  0.251  0.336-  52 1.18  53 1.18
  52  0.421  0.189  0.339-  51 1.18
  53  0.325  0.313  0.334-  51 1.18
 
  LATTYP: Found a hexagonal cell.
 ALAT       =    12.3250000000
 C/A-ratio  =     2.0283975659
  
  Lattice vectors:
  
 A1 = (  12.3250000000,   0.0000000000,   0.0000000000)
 A2 = (  -6.1625000000,  10.6737631016,   0.0000000000)
 A3 = (   0.0000000000,   0.0000000000,  25.0000000000)


Analysis of symmetry for initial positions (statically):
=====================================================================
 Subroutine PRICEL returns:
 Original cell was already a primitive cell.
 

 Routine SETGRP: Setting up the symmetry group for a 
 hexagonal supercell.


 Subroutine GETGRP returns: Found  1 space group operations
 (whereof  1 operations were pure point group operations)
 out of a pool of 24 trial point group operations.


The static configuration has the point symmetry C_1 .


Analysis of symmetry for dynamics (positions and initial velocities):
=====================================================================
 Subroutine PRICEL returns:
 Original cell was already a primitive cell.
 

 Routine SETGRP: Setting up the symmetry group for a 
 hexagonal supercell.


 Subroutine GETGRP returns: Found  1 space group operations
 (whereof  1 operations were pure point group operations)
 out of a pool of 24 trial point group operations.


The dynamic configuration has the point symmetry C_1 .


 Subroutine INISYM returns: Found  1 space group operations
 (whereof  1 operations are pure point group operations),
 and found     1 'primitive' translations


----------------------------------------------------------------------------------------

                                     Primitive cell                                     

  volume of cell :    3288.8533

  direct lattice vectors                    reciprocal lattice vectors
    12.325000000  0.000000000  0.000000000     0.081135903  0.046843835  0.000000000
    -6.162500000 10.673763102  0.000000000     0.000000000  0.093687670  0.000000000
     0.000000000  0.000000000 25.000000000     0.000000000  0.000000000  0.040000000

  length of vectors
    12.325000000 12.325000000 25.000000000     0.093687670  0.093687670  0.040000000

  position of ions in fractional coordinates (direct lattice)
     0.972450841  0.000320818  0.000566711
     0.039118382  0.133659505  0.000440173
     0.172443627  0.000295449  0.000499628
     0.239096278  0.133647917  0.000256468
     0.972452058  0.200322012  0.000485219
     0.039128360  0.333643771  0.000444150
     0.172451764  0.200354552  0.000219167
     0.239124359  0.333665720  0.000072260
     0.372465565  0.000324403  0.000453913
     0.439137473  0.133619939  0.000258338
     0.972449824  0.400309362  0.000547611
     0.039124981  0.533636789  0.000573410
     0.372416176  0.400329481  0.000000000
     0.439099602  0.533638981  0.000232414
     0.572443676  0.000312125  0.000559580
     0.639110207  0.133631751  0.000547275
     0.972452703  0.600305653  0.000640289
     0.039124495  0.733640359  0.000654513
     0.572433471  0.600306242  0.000402895
     0.639111888  0.733641879  0.000527905
     0.172454630  0.400318228  0.000289045
     0.239120185  0.533636548  0.000378509
     0.372459750  0.200295993  0.000088997
     0.439107096  0.333673419  0.000055762
     0.172452155  0.600311506  0.000524340
     0.239123371  0.733638574  0.000575129
     0.572431082  0.200289171  0.000413296
     0.639112773  0.333618630  0.000462376
     0.372439808  0.600308022  0.000362844
     0.439116090  0.733637858  0.000494190
     0.572469358  0.400320504  0.000339918
     0.639119408  0.533650873  0.000459610
     0.772445723  0.000315427  0.000596161
     0.839116277  0.133640203  0.000575306
     0.772440513  0.200307432  0.000581033
     0.839120241  0.333635728  0.000585467
     0.772446320  0.400298367  0.000582978
     0.839118980  0.533633964  0.000621100
     0.772456143  0.600308173  0.000595712
     0.839115033  0.733643180  0.000631512
     0.972455313  0.800305582  0.000652233
     0.039114714  0.933643289  0.000598051
     0.172457971  0.800312211  0.000623372
     0.239134551  0.933647193  0.000544850
     0.372451396  0.800316674  0.000551399
     0.439124489  0.933644769  0.000541430
     0.572441101  0.800310054  0.000534535
     0.639115067  0.933638985  0.000587644
     0.772445098  0.800313187  0.000602062
     0.839116614  0.933644338  0.000606830
     0.373021009  0.251226878  0.336358566
     0.420879805  0.189313152  0.338935440
     0.325156981  0.313167186  0.333980371

  ion indices of the primitive-cell ions
   primitive index   ion index
                 1           1
                 2           2
                 3           3
                 4           4
                 5           5
                 6           6
                 7           7
                 8           8
                 9           9
                10          10
                11          11
                12          12
                13          13
                14          14
                15          15
                16          16
                17          17
                18          18
                19          19
                20          20
                21          21
                22          22
                23          23
                24          24
                25          25
                26          26
                27          27
                28          28
                29          29
                30          30
                31          31
                32          32
                33          33
                34          34
                35          35
                36          36
                37          37
                38          38
                39          39
                40          40
                41          41
                42          42
                43          43
                44          44
                45          45
                46          46
                47          47
                48          48
                49          49
                50          50
                51          51
                52          52
                53          53

----------------------------------------------------------------------------------------

 
 
 KPOINTS: auto                                    

Automatic generation of k-mesh.
 Grid dimensions read from file:
 generate k-points for:    1    1    1

 Generating k-lattice:

  Cartesian coordinates                     Fractional coordinates (reciprocal lattice)
     0.081135903  0.046843835  0.000000000     1.000000000 -0.000000000  0.000000000
     0.000000000  0.093687670  0.000000000     0.000000000  1.000000000  0.000000000
     0.000000000  0.000000000  0.040000000     0.000000000  0.000000000  1.000000000

  Length of vectors
     0.093687670  0.093687670  0.040000000

  Shift w.r.t. Gamma in fractional coordinates (k-lattice)
     0.000000000  0.000000000  0.000000000

 
 Subroutine IBZKPT returns following result:
 ===========================================
 
 Found      1 irreducible k-points:
 
 Following reciprocal coordinates:
            Coordinates               Weight
  0.000000  0.000000  0.000000      1.000000
 
 Following cartesian coordinates:
            Coordinates               Weight
  0.000000  0.000000  0.000000      1.000000
 


--------------------------------------------------------------------------------------------------------




 Dimension of arrays:
   k-points           NKPTS =      1   k-points in BZ     NKDIM =      1   number of bands    NBANDS=    168
   number of dos      NEDOS =    301   number of ions     NIONS =     53
   non local maximal  LDIM  =      4   non local SUM 2l+1 LMDIM =      8
   total plane-waves  NPLWV = ******
   max r-space proj   IRMAX =      1   max aug-charges    IRDMAX=  10008
   dimension x,y,z NGX =   128 NGY =  128 NGZ =  270
   dimension x,y,z NGXF=   256 NGYF=  256 NGZF=  540
   support grid    NGXF=   256 NGYF=  256 NGZF=  540
   ions per type =              51   2
   NGX,Y,Z   is equivalent  to a cutoff of  17.27, 17.27, 17.95 a.u.
   NGXF,Y,Z  is equivalent  to a cutoff of  34.53, 34.53, 35.91 a.u.

 SYSTEM =  unknown system                          
 POSCAR =   C  O                                   

 Startparameter for this run:
   NWRITE =      2    write-flag & timer
   PREC   = accura    normal or accurate (medium, high low for compatibility)
   ISTART =      0    job   : 0-new  1-cont  2-samecut
   ICHARG =      2    charge: 1-file 2-atom 10-const
   ISPIN  =      1    spin polarized calculation?
   LNONCOLLINEAR =      F non collinear calculations
   LSORBIT =      F    spin-orbit coupling
   INIWAV =      1    electr: 0-lowe 1-rand  2-diag
   LASPH  =      F    aspherical Exc in radial PAW
 Electronic Relaxation 1
   ENCUT  = 1000.0 eV  73.50 Ry    8.57 a.u.  31.78 31.78 64.46*2*pi/ulx,y,z
   ENINI  = 1000.0     initial cutoff
   ENAUG  =  946.8 eV  augmentation charge cutoff
   NELM   =     60;   NELMIN=  2; NELMDL= -5     # of ELM steps 
   EDIFF  = 0.1E-06   stopping-criterion for ELM
   LREAL  =      F    real-space projection
   NLSPLINE    = F    spline interpolate recip. space projectors
   LCOMPAT=      F    compatible to vasp.4.4
   GGA_COMPAT  = T    GGA compatible to vasp.4.4-vasp.4.6
   LMAXPAW     = -100 max onsite density
   LMAXMIX     =    2 max onsite mixed and CHGCAR
   VOSKOWN=      0    Vosko Wilk Nusair interpolation
   ROPT   =    0.00000   0.00000
 Ionic relaxation
   EDIFFG = 0.1E-05   stopping-criterion for IOM
   NSW    =      0    number of steps for IOM
   NBLOCK =      1;   KBLOCK =      1    inner block; outer block 
   IBRION =     -1    ionic relax: 0-MD 1-quasi-New 2-CG
   NFREE  =      0    steps in history (QN), initial steepest desc. (CG)
   ISIF   =      0    stress and relaxation
   IWAVPR =     10    prediction:  0-non 1-charg 2-wave 3-comb
   ISYM   =      2    0-nonsym 1-usesym 2-fastsym
   LCORR  =      T    Harris-Foulkes like correction to forces

   POTIM  = 0.5000    time-step for ionic-motion
   TEIN   =    0.0    initial temperature
   TEBEG  =    0.0;   TEEND  =   0.0 temperature during run
   SMASS  =  -3.00    Nose mass-parameter (am)
   estimated Nose-frequenzy (Omega)   =  0.10E-29 period in steps = 0.13E+47 mass=  -0.347E-26a.u.
   SCALEE = 1.0000    scale energy and forces
   NPACO  =    256;   APACO  = 16.0  distance and # of slots for P.C.
   PSTRESS=    0.0 pullay stress

  Mass of Ions in am
   POMASS =  12.01 16.00
  Ionic Valenz
   ZVAL   =   4.00  6.00
  Atomic Wigner-Seitz radii
   RWIGS  =  -1.00 -1.00
  virtual crystal weights 
   VCA    =   1.00  1.00
   NELECT =     216.0000    total number of electrons
   NUPDOWN=      -1.0000    fix difference up-down

 DOS related values:
   EMIN   =  10.00;   EMAX   =-10.00  energy-range for DOS
   EFERMI =   0.00
   ISMEAR =     0;   SIGMA  =   0.01  broadening in eV -4-tet -1-fermi 0-gaus

 Electronic relaxation 2 (details)
   IALGO  =     58    algorithm
   LDIAG  =      T    sub-space diagonalisation (order eigenvalues)
   LSUBROT=      F    optimize rotation matrix (better conditioning)
   TURBO    =      0    0=normal 1=particle mesh
   IRESTART =      0    0=no restart 2=restart with 2 vectors
   NREBOOT  =      0    no. of reboots
   NMIN     =      0    reboot dimension
   EREF     =   0.00    reference energy to select bands
   IMIX   =      4    mixing-type and parameters
     AMIX     =   0.40;   BMIX     =  1.00
     AMIX_MAG =   1.60;   BMIX_MAG =  1.00
     AMIN     =   0.10
     WC   =   100.;   INIMIX=   1;  MIXPRE=   1;  MAXMIX= -45

 Intra band minimization:
   WEIMIN = 0.0000     energy-eigenvalue tresh-hold
   EBREAK =  0.15E-09  absolut break condition
   DEPER  =   0.30     relativ break condition  

   TIME   =   0.40     timestep for ELM

  volume/ion in A,a.u.               =      62.05       418.76
  Fermi-wavevector in a.u.,A,eV,Ry     =   0.660508  1.248179  5.935820  0.436270
  Thomas-Fermi vector in A             =   1.732977
 
 Write flags
   LWAVE        =      F    write WAVECAR
   LDOWNSAMPLE  =      F    k-point downsampling of WAVECAR
   LCHARG       =      T    write CHGCAR
   LVTOT        =      F    write LOCPOT, total local potential
   LVHAR        =      F    write LOCPOT, Hartree potential only
   LELF         =      F    write electronic localiz. function (ELF)
   LORBIT       =      0    0 simple, 1 ext, 2 COOP (PROOUT), +10 PAW based schemes


 Dipole corrections
   LMONO  =      F    monopole corrections only (constant potential shift)
   LDIPOL =      F    correct potential (dipole corrections)
   IDIPOL =      0    1-x, 2-y, 3-z, 4-all directions 
   EPSILON=  1.0000000 bulk dielectric constant

 Exchange correlation treatment:
   GGA     =    PE    GGA type
   LEXCH   =     8    internal setting for exchange type
   VOSKOWN=      0    Vosko Wilk Nusair interpolation
   LHFCALC =     F    Hartree Fock is set to
   LHFONE  =     F    Hartree Fock one center treatment
   AEXX    =    0.0000 exact exchange contribution

 Linear response parameters
   LEPSILON=     F    determine dielectric tensor
   LRPA    =     F    only Hartree local field effects (RPA)
   LNABLA  =     F    use nabla operator in PAW spheres
   LVEL    =     F    velocity operator in full k-point grid
   LINTERFAST=   F  fast interpolation
   KINTER  =     0    interpolate to denser k-point grid
   CSHIFT  =0.1000    complex shift for real part using Kramers Kronig
   OMEGAMAX=  -1.0    maximum frequency
   DEG_THRESHOLD= 0.2000000E-02 threshold for treating states as degnerate
   RTIME   =   -0.100 relaxation time in fs
  (WPLASMAI=    0.000 imaginary part of plasma frequency in eV, 0.658/RTIME)
   DFIELD  = 0.0000000 0.0000000 0.0000000 field for delta impulse in time
 
 Orbital magnetization related:
   ORBITALMAG=     F  switch on orbital magnetization
   LCHIMAG   =     F  perturbation theory with respect to B field
   DQ        =  0.001000  dq finite difference perturbation B field
   LLRAUG    =     F  two centre corrections for induced B field



--------------------------------------------------------------------------------------------------------


 Static calculation
 charge density and potential will be updated during run
 non-spin polarized calculation
 Conjugate gradient for all bands (Freysoldt, et al. PRB 79, 241103 (2009))
 preconditioned conjugated gradient                                        
 perform sub-space diagonalisation
    before iterative eigenvector-optimisation
 modified Broyden-mixing scheme, WC =      100.0
 initial mixing is a Kerker type mixing with AMIX =  0.4000 and BMIX =      1.0000
 Hartree-type preconditioning will be used
 using additional bands           60
 reciprocal scheme for non local part
 use partial core corrections
 no Harris-corrections to forces 
 use gradient corrections 
 use of overlap-Matrix (Vanderbilt PP)
 Gauss-broadening in eV      SIGMA  =   0.01


--------------------------------------------------------------------------------------------------------


  energy-cutoff  :     1000.00
  volume of cell :     3288.85
      direct lattice vectors                 reciprocal lattice vectors
    12.325000000  0.000000000  0.000000000     0.081135903  0.046843835  0.000000000
    -6.162500000 10.673763102  0.000000000     0.000000000  0.093687670  0.000000000
     0.000000000  0.000000000 25.000000000     0.000000000  0.000000000  0.040000000

  length of vectors
    12.325000000 12.325000000 25.000000000     0.093687670  0.093687670  0.040000000


 
 k-points in units of 2pi/SCALE and weight: auto                                    
   0.00000000  0.00000000  0.00000000       1.000
 
 k-points in reciprocal lattice and weights: auto                                    
   0.00000000  0.00000000  0.00000000       1.000
 
 position of ions in fractional coordinates (direct lattice) 
   0.97245084  0.00032082  0.00056671
   0.03911838  0.13365950  0.00044017
   0.17244363  0.00029545  0.00049963
   0.23909628  0.13364792  0.00025647
   0.97245206  0.20032201  0.00048522
   0.03912836  0.33364377  0.00044415
   0.17245176  0.20035455  0.00021917
   0.23912436  0.33366572  0.00007226
   0.37246557  0.00032440  0.00045391
   0.43913747  0.13361994  0.00025834
   0.97244982  0.40030936  0.00054761
   0.03912498  0.53363679  0.00057341
   0.37241618  0.40032948  0.00000000
   0.43909960  0.53363898  0.00023241
   0.57244368  0.00031213  0.00055958
   0.63911021  0.13363175  0.00054727
   0.97245270  0.60030565  0.00064029
   0.03912449  0.73364036  0.00065451
   0.57243347  0.60030624  0.00040289
   0.63911189  0.73364188  0.00052791
   0.17245463  0.40031823  0.00028904
   0.23912018  0.53363655  0.00037851
   0.37245975  0.20029599  0.00008900
   0.43910710  0.33367342  0.00005576
   0.17245216  0.60031151  0.00052434
   0.23912337  0.73363857  0.00057513
   0.57243108  0.20028917  0.00041330
   0.63911277  0.33361863  0.00046238
   0.37243981  0.60030802  0.00036284
   0.43911609  0.73363786  0.00049419
   0.57246936  0.40032050  0.00033992
   0.63911941  0.53365087  0.00045961
   0.77244572  0.00031543  0.00059616
   0.83911628  0.13364020  0.00057531
   0.77244051  0.20030743  0.00058103
   0.83912024  0.33363573  0.00058547
   0.77244632  0.40029837  0.00058298
   0.83911898  0.53363396  0.00062110
   0.77245614  0.60030817  0.00059571
   0.83911503  0.73364318  0.00063151
   0.97245531  0.80030558  0.00065223
   0.03911471  0.93364329  0.00059805
   0.17245797  0.80031221  0.00062337
   0.23913455  0.93364719  0.00054485
   0.37245140  0.80031667  0.00055140
   0.43912449  0.93364477  0.00054143
   0.57244110  0.80031005  0.00053453
   0.63911507  0.93363899  0.00058764
   0.77244510  0.80031319  0.00060206
   0.83911661  0.93364434  0.00060683
   0.37302101  0.25122688  0.33635857
   0.42087980  0.18931315  0.33893544
   0.32515698  0.31316719  0.33398037
 
 position of ions in cartesian coordinates  (Angst):
  11.98347958  0.00342433  0.01416777
  -0.34154264  1.42664989  0.01100432
   2.12354700  0.00315355  0.01249070
   2.12325634  1.42652621  0.00641170
  10.75098721  2.13818970  0.01213047
  -1.57382270  3.56123457  0.01110375
   0.89078307  2.13853702  0.00547917
   0.89099273  3.56146885  0.00180651
   4.58863896  0.00346260  0.01134782
   4.58893648  1.42622757  0.00645846
   9.51853763  4.27280730  0.01369027
  -2.80632132  5.69591267  0.01433526
   2.12299894  4.27302204  0.00000000
   2.12335237  5.69593607  0.00581036
   7.05344483  0.00333155  0.01398950
   7.05352764  1.42635365  0.01368187
   8.28609598  6.40752033  0.01600723
  -4.03884931  7.83070339  0.01636283
   3.35585531  6.40752662  0.01007237
   3.35598594  7.83071962  0.01319763
  -0.34145776  4.27290193  0.00722612
  -0.34137895  5.69591010  0.00946273
   3.35624236  2.13791198  0.00222492
   3.35573251  3.56155103  0.00139405
  -1.57394684  6.40758280  0.01310850
  -1.57385216  7.83068434  0.01437823
   5.82093107  2.13783916  0.01033241
   5.82114012  3.56096622  0.01155939
   0.89092245  6.40754561  0.00907111
   0.89106251  7.83067670  0.01235474
   4.58870974  4.27292622  0.00849795
   4.58852320  5.69606300  0.01149026
   9.51844972  0.00336679  0.01490402
   9.51855036  1.42644387  0.01438264
   8.28593477  2.13803408  0.01452582
   8.28612680  3.56114872  0.01463668
   7.05356221  4.27268994  0.01457444
   7.05362213  5.69588251  0.01552751
   5.82112285  6.40754723  0.01489279
   5.82101669  7.83073350  0.01578780
   7.05362858  8.54227219  0.01630582
  -5.27148792  9.96548729  0.01495127
  -2.80637951  8.54234295  0.01558431
  -2.80626749  9.96552896  0.01362126
  -0.34148805  8.54239058  0.01378498
  -0.34137657  9.96550309  0.01353576
   2.12342586  8.54231992  0.01336337
   2.12354296  9.96544135  0.01469111
   4.58845581  8.54235337  0.01505154
   4.58852904  9.96549848  0.01517076
   3.04929830  2.68153618  8.40896415
   4.02070129  2.02068374  8.47338601
   2.07766701  3.34267235  8.34950928
 


--------------------------------------------------------------------------------------------------------


 k-point   1 :   0.0000 0.0000 0.0000  plane waves:  236157

 maximum and minimum number of plane-waves per node :    236157   236157

 maximum number of plane-waves:    236157
 maximum index in each direction: 
   IXMAX=   31   IYMAX=   31   IZMAX=   64
   IXMIN=  -31   IYMIN=  -31   IZMIN=  -64


 serial   3D FFT for wavefunctions
 parallel 3D FFT for charge:
    minimum data exchange during FFTs selected (reduces bandwidth)


 total amount of memory used by VASP MPI-rank0   551512. kBytes
=======================================================================

   base      :      30000. kBytes
   nonl-proj :     230539. kBytes
   fftplans  :      40716. kBytes
   grid      :     216018. kBytes
   one-center:        162. kBytes
   wavefun   :      34077. kBytes
 
     INWAV:  cpu time    0.0000: real time    0.0000
 Broyden mixing: mesh for mixing (old mesh)
   NGX = 63   NGY = 63   NGZ =129
  (NGX  =256   NGY  =256   NGZ  =540)
  gives a total of 512001 points

 initial charge density was supplied:
 charge density of overlapping atoms calculated
 number of electron     216.0000000 magnetization 
 keeping initial charge density in first step


--------------------------------------------------------------------------------------------------------


 Maximum index for augmentation-charges          471 (set IRDMAX)


--------------------------------------------------------------------------------------------------------


 First call to EWALD:  gamma=   0.119
 Maximum number of real-space cells 4x 4x 2
 Maximum number of reciprocal cells 2x 2x 4

    FEWALD:  cpu time    0.0027: real time    0.0027


--------------------------------------- Iteration      1(   1)  ---------------------------------------


    POTLOK:  cpu time    0.7855: real time    0.7930
    SETDIJ:  cpu time    0.0036: real time    0.0038
    TRIAL :  cpu time   15.3954: real time   15.5626
    CORREC:  cpu time    0.0004: real time    0.0007
    --------------------------------------------
      LOOP:  cpu time   16.1984: real time   16.3829

 eigenvalue-minimisations  :   336
 total energy-change (2. order) : 0.2587356E+04  (-0.1073410E+05)
 number of electron     216.0000000 magnetization 
 augmentation part      216.0000000 magnetization 

 Free energy of the ion-electron system (eV)
  ---------------------------------------------------
  alpha Z        PSCENC =        47.94900195
  Ewald energy   TEWEN  =     41309.03722986
  -Hartree energ DENC   =    -47378.26075386
  -exchange      EXHF   =         0.00000000
  -V(xc)+E(xc)   XCENC  =       420.79770538
  PAW double counting   =      6525.96553977    -6260.36035765
  entropy T*S    EENTRO =        -0.00000000
  eigenvalues    EBANDS =      -447.29562764
  atomic energy  EATOM  =      8369.52358910
  ---------------------------------------------------
  free energy    TOTEN  =      2587.35632691 eV

  energy without entropy =     2587.35632691  energy(sigma->0) =     2587.35632691


--------------------------------------------------------------------------------------------------------




--------------------------------------- Iteration      1(   2)  ---------------------------------------


    TRIAL :  cpu time   27.0622: real time   27.2847
    CORREC:  cpu time    0.0001: real time    0.0001
    --------------------------------------------
      LOOP:  cpu time   27.1185: real time   27.3431

 eigenvalue-minimisations  :   672
 total energy-change (2. order) :-0.2476585E+04  (-0.2353556E+04)
 number of electron     216.0000000 magnetization 
 augmentation part      216.0000000 magnetization 

 Free energy of the ion-electron system (eV)
  ---------------------------------------------------
  alpha Z        PSCENC =        47.94900195
  Ewald energy   TEWEN  =     41309.03722986
  -Hartree energ DENC   =    -47378.26075386
  -exchange      EXHF   =         0.00000000
  -V(xc)+E(xc)   XCENC  =       420.79770538
  PAW double counting   =      6525.96553977    -6260.36035765
  entropy T*S    EENTRO =        -0.00000000
  eigenvalues    EBANDS =     -2923.88045491
  atomic energy  EATOM  =      8369.52358910
  ---------------------------------------------------
  free energy    TOTEN  =       110.77149965 eV

  energy without entropy =      110.77149965  energy(sigma->0) =      110.77149965


--------------------------------------------------------------------------------------------------------




--------------------------------------- Iteration      1(   3)  ---------------------------------------


    TRIAL :  cpu time   19.2244: real time   19.4150
    CORREC:  cpu time    0.0001: real time    0.0001
    --------------------------------------------
      LOOP:  cpu time   19.3185: real time   19.5107

 eigenvalue-minimisations  :   448
 total energy-change (2. order) :-0.6077969E+03  (-0.6056138E+03)
 number of electron     216.0000000 magnetization 
 augmentation part      216.0000000 magnetization 

 Free energy of the ion-electron system (eV)
  ---------------------------------------------------
  alpha Z        PSCENC =        47.94900195
  Ewald energy   TEWEN  =     41309.03722986
  -Hartree energ DENC   =    -47378.26075386
  -exchange      EXHF   =         0.00000000
  -V(xc)+E(xc)   XCENC  =       420.79770538
  PAW double counting   =      6525.96553977    -6260.36035765
  entropy T*S    EENTRO =        -0.00000000
  eigenvalues    EBANDS =     -3531.67735462
  atomic energy  EATOM  =      8369.52358910
  ---------------------------------------------------
  free energy    TOTEN  =      -497.02540006 eV

  energy without entropy =     -497.02540006  energy(sigma->0) =     -497.02540006


--------------------------------------------------------------------------------------------------------




--------------------------------------- Iteration      1(   4)  ---------------------------------------


    TRIAL :  cpu time   19.2442: real time   19.4332
    CORREC:  cpu time    0.0001: real time    0.0003
    --------------------------------------------
      LOOP:  cpu time   19.2832: real time   19.4730

 eigenvalue-minimisations  :   448
 total energy-change (2. order) :-0.2032901E+02  (-0.2021987E+02)
 number of electron     216.0000000 magnetization 
 augmentation part      216.0000000 magnetization 

 Free energy of the ion-electron system (eV)
  ---------------------------------------------------
  alpha Z        PSCENC =        47.94900195
  Ewald energy   TEWEN  =     41309.03722986
  -Hartree energ DENC   =    -47378.26075386
  -exchange      EXHF   =         0.00000000
  -V(xc)+E(xc)   XCENC  =       420.79770538
  PAW double counting   =      6525.96553977    -6260.36035765
  entropy T*S    EENTRO =        -0.00000000
  eigenvalues    EBANDS =     -3552.00636771
  atomic energy  EATOM  =      8369.52358910
  ---------------------------------------------------
  free energy    TOTEN  =      -517.35441315 eV

  energy without entropy =     -517.35441315  energy(sigma->0) =     -517.35441315


--------------------------------------------------------------------------------------------------------




--------------------------------------- Iteration      1(   5)  ---------------------------------------


    TRIAL :  cpu time   17.3259: real time   17.4627
    CORREC:  cpu time    0.0001: real time    0.0001
    CHARGE:  cpu time    0.8155: real time    0.8218
    --------------------------------------------
      LOOP:  cpu time   18.2312: real time   18.3786

 eigenvalue-minimisations  :   392
 total energy-change (2. order) :-0.6739939E+00  (-0.6727403E+00)
 number of electron     216.0000000 magnetization 
 augmentation part       -0.2724391 magnetization 

 Free energy of the ion-electron system (eV)
  ---------------------------------------------------
  alpha Z        PSCENC =        47.94900195
  Ewald energy   TEWEN  =     41309.03722986
  -Hartree energ DENC   =    -47378.26075386
  -exchange      EXHF   =         0.00000000
  -V(xc)+E(xc)   XCENC  =       420.79770538
  PAW double counting   =      6525.96553977    -6260.36035765
  entropy T*S    EENTRO =        -0.00000000
  eigenvalues    EBANDS =     -3552.68036162
  atomic energy  EATOM  =      8369.52358910
  ---------------------------------------------------
  free energy    TOTEN  =      -518.02840706 eV

  energy without entropy =     -518.02840706  energy(sigma->0) =     -518.02840706


--------------------------------------------------------------------------------------------------------




--------------------------------------- Iteration      1(   6)  ---------------------------------------


    POTLOK:  cpu time    0.7443: real time    0.7490
    SETDIJ:  cpu time    0.0025: real time    0.0025
    TRIAL :  cpu time    6.9204: real time    6.9868
    CORREC:  cpu time    2.2712: real time    2.2889
    CHARGE:  cpu time    0.8069: real time    0.8127
    --------------------------------------------
      LOOP:  cpu time   10.7683: real time   10.8934

 eigenvalue-minimisations  :     0
 total energy-change (2. order) : 0.5129915E+02  (-0.1528486E+02)
 number of electron     216.0000000 magnetization 
 augmentation part       -0.3739677 magnetization 

 Free energy of the ion-electron system (eV)
  ---------------------------------------------------
  alpha Z        PSCENC =        47.94900195
  Ewald energy   TEWEN  =     41309.03722986
  -Hartree energ DENC   =    -48816.96971000
  -exchange      EXHF   =         0.00000000
  -V(xc)+E(xc)   XCENC  =       469.00292316
  PAW double counting   =     90052.05170709   -89794.72032647
  entropy T*S    EENTRO =        -0.00000000
  eigenvalues    EBANDS =     -2102.60367483
  atomic energy  EATOM  =      8369.52358910
  ---------------------------------------------------
  free energy    TOTEN  =      -466.72926013 eV

  energy without entropy =     -466.72926013  energy(sigma->0) =     -466.72926013


--------------------------------------------------------------------------------------------------------




--------------------------------------- Iteration      1(   7)  ---------------------------------------


    POTLOK:  cpu time    0.7487: real time    0.7536
    SETDIJ:  cpu time    0.0028: real time    0.0028
    TRIAL :  cpu time    6.9214: real time    6.9877
    CORREC:  cpu time    2.2629: real time    2.2834
    CHARGE:  cpu time    0.8055: real time    0.8120
    --------------------------------------------
      LOOP:  cpu time   10.7964: real time   10.9001

 eigenvalue-minimisations  :     0
 total energy-change (2. order) :-0.1531620E+02  (-0.1842348E+01)
 number of electron     216.0000000 magnetization 
 augmentation part       -0.4209267 magnetization 

 Free energy of the ion-electron system (eV)
  ---------------------------------------------------
  alpha Z        PSCENC =        47.94900195
  Ewald energy   TEWEN  =     41309.03722986
  -Hartree energ DENC   =    -48323.47024494
  -exchange      EXHF   =         0.00000000
  -V(xc)+E(xc)   XCENC  =       452.45672595
  PAW double counting   =    106113.31850788  -105853.18472288
  entropy T*S    EENTRO =        -0.00000000
  eigenvalues    EBANDS =     -2597.67555177
  atomic energy  EATOM  =      8369.52358910
  ---------------------------------------------------
  free energy    TOTEN  =      -482.04546486 eV

  energy without entropy =     -482.04546486  energy(sigma->0) =     -482.04546486


--------------------------------------------------------------------------------------------------------




--------------------------------------- Iteration      1(   8)  ---------------------------------------


    POTLOK:  cpu time    0.7437: real time    0.7496
    SETDIJ:  cpu time    0.0026: real time    0.0026
    TRIAL :  cpu time    6.9208: real time    6.9876
    CORREC:  cpu time    2.2729: real time    2.2938
    CHARGE:  cpu time    0.8092: real time    0.8159
    --------------------------------------------
      LOOP:  cpu time   10.7753: real time   10.8816

 eigenvalue-minimisations  :     0
 total energy-change (2. order) :-0.1842077E+01  (-0.5399353E+00)
 number of electron     216.0000000 magnetization 
 augmentation part       -0.4349990 magnetization 

 Free energy of the ion-electron system (eV)
  ---------------------------------------------------
  alpha Z        PSCENC =        47.94900195
  Ewald energy   TEWEN  =     41309.03722986
  -Hartree energ DENC   =    -48293.75809671
  -exchange      EXHF   =         0.00000000
  -V(xc)+E(xc)   XCENC  =       451.74457874
  PAW double counting   =    110540.32340856  -110279.75826312
  entropy T*S    EENTRO =        -0.00000000
  eigenvalues    EBANDS =     -2628.94898987
  atomic energy  EATOM  =      8369.52358910
  ---------------------------------------------------
  free energy    TOTEN  =      -483.88754149 eV

  energy without entropy =     -483.88754149  energy(sigma->0) =     -483.88754149


--------------------------------------------------------------------------------------------------------




--------------------------------------- Iteration      1(   9)  ---------------------------------------


    POTLOK:  cpu time    0.7485: real time    0.7544
    SETDIJ:  cpu time    0.0026: real time    0.0026
    TRIAL :  cpu time    6.8906: real time    6.9857
    CORREC:  cpu time    2.2652: real time    2.2864
    CHARGE:  cpu time    0.8108: real time    0.8164
    --------------------------------------------
      LOOP:  cpu time   10.7676: real time   10.8979

 eigenvalue-minimisations  :     0
 total energy-change (2. order) :-0.5398088E+00  (-0.2059122E+00)
 number of electron     216.0000000 magnetization 
 augmentation part       -0.4406266 magnetization 

 Free energy of the ion-electron system (eV)
  ---------------------------------------------------
  alpha Z        PSCENC =        47.94900195
  Ewald energy   TEWEN  =     41309.03722986
  -Hartree energ DENC   =    -48305.70805270
  -exchange      EXHF   =         0.00000000
  -V(xc)+E(xc)   XCENC  =       451.78269728
  PAW double counting   =    113465.85805537  -113205.12836855
  entropy T*S    EENTRO =        -0.00000000
  eigenvalues    EBANDS =     -2617.74150257
  atomic energy  EATOM  =      8369.52358910
  ---------------------------------------------------
  free energy    TOTEN  =      -484.42735027 eV

  energy without entropy =     -484.42735027  energy(sigma->0) =     -484.42735027


--------------------------------------------------------------------------------------------------------




--------------------------------------- Iteration      1(  10)  ---------------------------------------


    POTLOK:  cpu time    0.7438: real time    0.7485
    SETDIJ:  cpu time    0.0027: real time    0.0028
    TRIAL :  cpu time    6.9352: real time    6.9920
    CORREC:  cpu time    2.2708: real time    2.2881
    CHARGE:  cpu time    0.8078: real time    0.8135
    --------------------------------------------
      LOOP:  cpu time   10.8344: real time   10.9195

 eigenvalue-minimisations  :     0
 total energy-change (2. order) :-0.2053171E+00  (-0.9010409E-01)
 number of electron     216.0000000 magnetization 
 augmentation part       -0.4394867 magnetization 

 Free energy of the ion-electron system (eV)
  ---------------------------------------------------
  alpha Z        PSCENC =        47.94900195
  Ewald energy   TEWEN  =     41309.03722986
  -Hartree energ DENC   =    -48303.86139313
  -exchange      EXHF   =         0.00000000
  -V(xc)+E(xc)   XCENC  =       451.61892447
  PAW double counting   =    113841.48012204  -113580.66126476
  entropy T*S    EENTRO =        -0.00000000
  eigenvalues    EBANDS =     -2619.71887685
  atomic energy  EATOM  =      8369.52358910
  ---------------------------------------------------
  free energy    TOTEN  =      -484.63266732 eV

  energy without entropy =     -484.63266732  energy(sigma->0) =     -484.63266732


--------------------------------------------------------------------------------------------------------




--------------------------------------- Iteration      1(  11)  ---------------------------------------


    POTLOK:  cpu time    0.7446: real time    0.7494
    SETDIJ:  cpu time    0.0026: real time    0.0026
    TRIAL :  cpu time    6.9229: real time    6.9851
    CORREC:  cpu time    2.2707: real time    2.2900
    CHARGE:  cpu time    0.8086: real time    0.8148
    --------------------------------------------
      LOOP:  cpu time   10.8044: real time   10.8973

 eigenvalue-minimisations  :     0
 total energy-change (2. order) :-0.8962610E-01  (-0.3316055E-01)
 number of electron     216.0000000 magnetization 
 augmentation part       -0.4377115 magnetization 

 Free energy of the ion-electron system (eV)
  ---------------------------------------------------
  alpha Z        PSCENC =        47.94900195
  Ewald energy   TEWEN  =     41309.03722986
  -Hartree energ DENC   =    -48296.03844338
  -exchange      EXHF   =         0.00000000
  -V(xc)+E(xc)   XCENC  =       451.48006892
  PAW double counting   =    113076.89335275  -112816.08500898
  entropy T*S    EENTRO =        -0.00000000
  eigenvalues    EBANDS =     -2627.48208364
  atomic energy  EATOM  =      8369.52358910
  ---------------------------------------------------
  free energy    TOTEN  =      -484.72229342 eV

  energy without entropy =     -484.72229342  energy(sigma->0) =     -484.72229342


--------------------------------------------------------------------------------------------------------




--------------------------------------- Iteration      1(  12)  ---------------------------------------


    POTLOK:  cpu time    0.7495: real time    0.7543
    SETDIJ:  cpu time    0.0026: real time    0.0026
    TRIAL :  cpu time    6.9276: real time    6.9863
    CORREC:  cpu time    2.2649: real time    2.2822
    CHARGE:  cpu time    0.8089: real time    0.8147
    --------------------------------------------
      LOOP:  cpu time   10.7978: real time   10.8863

 eigenvalue-minimisations  :     0
 total energy-change (2. order) :-0.3307348E-01  (-0.1030996E-01)
 number of electron     216.0000000 magnetization 
 augmentation part       -0.4374303 magnetization 

 Free energy of the ion-electron system (eV)
  ---------------------------------------------------
  alpha Z        PSCENC =        47.94900195
  Ewald energy   TEWEN  =     41309.03722986
  -Hartree energ DENC   =    -48292.09056325
  -exchange      EXHF   =         0.00000000
  -V(xc)+E(xc)   XCENC  =       451.40546974
  PAW double counting   =    112583.44456465  -112322.66688215
  entropy T*S    EENTRO =        -0.00000000
  eigenvalues    EBANDS =     -2631.35777680
  atomic energy  EATOM  =      8369.52358910
  ---------------------------------------------------
  free energy    TOTEN  =      -484.75536690 eV

  energy without entropy =     -484.75536690  energy(sigma->0) =     -484.75536690


--------------------------------------------------------------------------------------------------------




--------------------------------------- Iteration      1(  13)  ---------------------------------------


    POTLOK:  cpu time    0.7455: real time    0.7502
    SETDIJ:  cpu time    0.0027: real time    0.0027
    TRIAL :  cpu time    6.9254: real time    6.9821
    CORREC:  cpu time    2.2610: real time    2.2811
    CHARGE:  cpu time    0.8101: real time    0.8157
    --------------------------------------------
      LOOP:  cpu time   10.8186: real time   10.9088

 eigenvalue-minimisations  :     0
 total energy-change (2. order) :-0.1029979E-01  (-0.2729806E-02)
 number of electron     216.0000000 magnetization 
 augmentation part       -0.4371981 magnetization 

 Free energy of the ion-electron system (eV)
  ---------------------------------------------------
  alpha Z        PSCENC =        47.94900195
  Ewald energy   TEWEN  =     41309.03722986
  -Hartree energ DENC   =    -48291.30836073
  -exchange      EXHF   =         0.00000000
  -V(xc)+E(xc)   XCENC  =       451.37991787
  PAW double counting   =    112431.37008432  -112170.60424272
  entropy T*S    EENTRO =        -0.00000000
  eigenvalues    EBANDS =     -2632.11288635
  atomic energy  EATOM  =      8369.52358910
  ---------------------------------------------------
  free energy    TOTEN  =      -484.76566670 eV

  energy without entropy =     -484.76566670  energy(sigma->0) =     -484.76566670


--------------------------------------------------------------------------------------------------------




--------------------------------------- Iteration      1(  14)  ---------------------------------------


    POTLOK:  cpu time    0.7388: real time    0.7436
    SETDIJ:  cpu time    0.0026: real time    0.0026
    TRIAL :  cpu time    6.9384: real time    6.9969
    CORREC:  cpu time    2.2596: real time    2.2763
    CHARGE:  cpu time    0.8095: real time    0.8151
    --------------------------------------------
      LOOP:  cpu time   10.7629: real time   10.9021

 eigenvalue-minimisations  :     0
 total energy-change (2. order) :-0.2729593E-02  (-0.7212284E-03)
 number of electron     216.0000000 magnetization 
 augmentation part       -0.4369778 magnetization 

 Free energy of the ion-electron system (eV)
  ---------------------------------------------------
  alpha Z        PSCENC =        47.94900195
  Ewald energy   TEWEN  =     41309.03722986
  -Hartree energ DENC   =    -48291.11399313
  -exchange      EXHF   =         0.00000000
  -V(xc)+E(xc)   XCENC  =       451.37341042
  PAW double counting   =    112456.13161854  -112195.36803925
  entropy T*S    EENTRO =        -0.00000000
  eigenvalues    EBANDS =     -2632.30121378
  atomic energy  EATOM  =      8369.52358910
  ---------------------------------------------------
  free energy    TOTEN  =      -484.76839629 eV

  energy without entropy =     -484.76839629  energy(sigma->0) =     -484.76839629


--------------------------------------------------------------------------------------------------------




--------------------------------------- Iteration      1(  15)  ---------------------------------------


    POTLOK:  cpu time    0.7423: real time    0.7473
    SETDIJ:  cpu time    0.0026: real time    0.0026
    TRIAL :  cpu time    6.9326: real time    6.9900
    CORREC:  cpu time    2.2583: real time    2.2757
    CHARGE:  cpu time    0.8063: real time    0.8120
    --------------------------------------------
      LOOP:  cpu time   10.8295: real time   10.9316

 eigenvalue-minimisations  :     0
 total energy-change (2. order) :-0.7221233E-03  (-0.2227667E-03)
 number of electron     216.0000000 magnetization 
 augmentation part       -0.4367957 magnetization 

 Free energy of the ion-electron system (eV)
  ---------------------------------------------------
  alpha Z        PSCENC =        47.94900195
  Ewald energy   TEWEN  =     41309.03722986
  -Hartree energ DENC   =    -48290.90197417
  -exchange      EXHF   =         0.00000000
  -V(xc)+E(xc)   XCENC  =       451.36717300
  PAW double counting   =    112486.92461622  -112226.16050286
  entropy T*S    EENTRO =        -0.00000000
  eigenvalues    EBANDS =     -2632.50825150
  atomic energy  EATOM  =      8369.52358910
  ---------------------------------------------------
  free energy    TOTEN  =      -484.76911841 eV

  energy without entropy =     -484.76911841  energy(sigma->0) =     -484.76911841


--------------------------------------------------------------------------------------------------------




--------------------------------------- Iteration      1(  16)  ---------------------------------------


    POTLOK:  cpu time    0.7382: real time    0.7432
    SETDIJ:  cpu time    0.0028: real time    0.0028
    TRIAL :  cpu time    6.9167: real time    6.9805
    CORREC:  cpu time    2.2554: real time    2.2760
    CHARGE:  cpu time    0.8061: real time    0.8128
    --------------------------------------------
      LOOP:  cpu time   10.7766: real time   10.8752

 eigenvalue-minimisations  :     0
 total energy-change (2. order) :-0.2236178E-03  (-0.7874792E-04)
 number of electron     216.0000000 magnetization 
 augmentation part       -0.4366462 magnetization 

 Free energy of the ion-electron system (eV)
  ---------------------------------------------------
  alpha Z        PSCENC =        47.94900195
  Ewald energy   TEWEN  =     41309.03722986
  -Hartree energ DENC   =    -48290.97688014
  -exchange      EXHF   =         0.00000000
  -V(xc)+E(xc)   XCENC  =       451.36856572
  PAW double counting   =    112476.51563548  -112215.75142926
  entropy T*S    EENTRO =        -0.00000000
  eigenvalues    EBANDS =     -2632.43505474
  atomic energy  EATOM  =      8369.52358910
  ---------------------------------------------------
  free energy    TOTEN  =      -484.76934203 eV

  energy without entropy =     -484.76934203  energy(sigma->0) =     -484.76934203


--------------------------------------------------------------------------------------------------------




--------------------------------------- Iteration      1(  17)  ---------------------------------------


    POTLOK:  cpu time    0.7351: real time    0.7409
    SETDIJ:  cpu time    0.0026: real time    0.0026
    TRIAL :  cpu time    6.9096: real time    6.9845
    CORREC:  cpu time    2.2521: real time    2.2707
    CHARGE:  cpu time    0.8069: real time    0.8132
    --------------------------------------------
      LOOP:  cpu time   10.7361: real time   10.8431

 eigenvalue-minimisations  :     0
 total energy-change (2. order) :-0.7933711E-04  (-0.3046954E-04)
 number of electron     216.0000000 magnetization 
 augmentation part       -0.4366279 magnetization 

 Free energy of the ion-electron system (eV)
  ---------------------------------------------------
  alpha Z        PSCENC =        47.94900195
  Ewald energy   TEWEN  =     41309.03722986
  -Hartree energ DENC   =    -48291.16458848
  -exchange      EXHF   =         0.00000000
  -V(xc)+E(xc)   XCENC  =       451.37442931
  PAW double counting   =    112457.19053443  -112196.42679921
  entropy T*S    EENTRO =        -0.00000000
  eigenvalues    EBANDS =     -2632.25281833
  atomic energy  EATOM  =      8369.52358910
  ---------------------------------------------------
  free energy    TOTEN  =      -484.76942137 eV

  energy without entropy =     -484.76942137  energy(sigma->0) =     -484.76942137


--------------------------------------------------------------------------------------------------------




--------------------------------------- Iteration      1(  18)  ---------------------------------------


    POTLOK:  cpu time    0.7353: real time    0.7402
    SETDIJ:  cpu time    0.0025: real time    0.0025
    TRIAL :  cpu time    6.9249: real time    6.9826
    CORREC:  cpu time    2.2588: real time    2.2778
    CHARGE:  cpu time    0.8092: real time    0.8159
    --------------------------------------------
      LOOP:  cpu time   10.7740: real time   10.8646

 eigenvalue-minimisations  :     0
 total energy-change (2. order) :-0.3079110E-04  (-0.1307526E-04)
 number of electron     216.0000000 magnetization 
 augmentation part       -0.4366539 magnetization 

 Free energy of the ion-electron system (eV)
  ---------------------------------------------------
  alpha Z        PSCENC =        47.94900195
  Ewald energy   TEWEN  =     41309.03722986
  -Hartree energ DENC   =    -48291.18948670
  -exchange      EXHF   =         0.00000000
  -V(xc)+E(xc)   XCENC  =       451.37447457
  PAW double counting   =    112453.53080143  -112192.76662402
  entropy T*S    EENTRO =        -0.00000000
  eigenvalues    EBANDS =     -2632.22843834
  atomic energy  EATOM  =      8369.52358910
  ---------------------------------------------------
  free energy    TOTEN  =      -484.76945216 eV

  energy without entropy =     -484.76945216  energy(sigma->0) =     -484.76945216


--------------------------------------------------------------------------------------------------------




--------------------------------------- Iteration      1(  19)  ---------------------------------------


    POTLOK:  cpu time    0.7373: real time    0.7435
    SETDIJ:  cpu time    0.0025: real time    0.0025
    TRIAL :  cpu time    6.9216: real time    6.9884
    CORREC:  cpu time    2.2557: real time    2.2758
    CHARGE:  cpu time    0.8092: real time    0.8158
    --------------------------------------------
      LOOP:  cpu time   10.7548: real time   10.8569

 eigenvalue-minimisations  :     0
 total energy-change (2. order) :-0.1294578E-04  (-0.5331734E-05)
 number of electron     216.0000000 magnetization 
 augmentation part       -0.4366978 magnetization 

 Free energy of the ion-electron system (eV)
  ---------------------------------------------------
  alpha Z        PSCENC =        47.94900195
  Ewald energy   TEWEN  =     41309.03722986
  -Hartree energ DENC   =    -48291.22428076
  -exchange      EXHF   =         0.00000000
  -V(xc)+E(xc)   XCENC  =       451.37558059
  PAW double counting   =    112460.03671116  -112199.27233798
  entropy T*S    EENTRO =        -0.00000000
  eigenvalues    EBANDS =     -2632.19495903
  atomic energy  EATOM  =      8369.52358910
  ---------------------------------------------------
  free energy    TOTEN  =      -484.76946510 eV

  energy without entropy =     -484.76946510  energy(sigma->0) =     -484.76946510


--------------------------------------------------------------------------------------------------------




--------------------------------------- Iteration      1(  20)  ---------------------------------------


    POTLOK:  cpu time    0.7280: real time    0.7343
    SETDIJ:  cpu time    0.0026: real time    0.0026
    TRIAL :  cpu time    6.9109: real time    6.9876
    CORREC:  cpu time    2.2602: real time    2.2780
    CHARGE:  cpu time    0.8084: real time    0.8141
    --------------------------------------------
      LOOP:  cpu time   10.7293: real time   10.8909

 eigenvalue-minimisations  :     0
 total energy-change (2. order) :-0.4987625E-05  (-0.2115503E-05)
 number of electron     216.0000000 magnetization 
 augmentation part       -0.4367102 magnetization 

 Free energy of the ion-electron system (eV)
  ---------------------------------------------------
  alpha Z        PSCENC =        47.94900195
  Ewald energy   TEWEN  =     41309.03722986
  -Hartree energ DENC   =    -48291.25044349
  -exchange      EXHF   =         0.00000000
  -V(xc)+E(xc)   XCENC  =       451.37607291
  PAW double counting   =    112466.70842399  -112205.94391067
  entropy T*S    EENTRO =        -0.00000000
  eigenvalues    EBANDS =     -2632.16943374
  atomic energy  EATOM  =      8369.52358910
  ---------------------------------------------------
  free energy    TOTEN  =      -484.76947009 eV

  energy without entropy =     -484.76947009  energy(sigma->0) =     -484.76947009


--------------------------------------------------------------------------------------------------------




--------------------------------------- Iteration      1(  21)  ---------------------------------------


    POTLOK:  cpu time    0.7369: real time    0.7418
    SETDIJ:  cpu time    0.0026: real time    0.0026
    TRIAL :  cpu time    6.9240: real time    6.9833
    CORREC:  cpu time    2.2526: real time    2.2700
    CHARGE:  cpu time    0.8076: real time    0.8134
    --------------------------------------------
      LOOP:  cpu time   10.7815: real time   10.8706

 eigenvalue-minimisations  :     0
 total energy-change (2. order) :-0.1922133E-05  (-0.8954385E-06)
 number of electron     216.0000000 magnetization 
 augmentation part       -0.4367071 magnetization 

 Free energy of the ion-electron system (eV)
  ---------------------------------------------------
  alpha Z        PSCENC =        47.94900195
  Ewald energy   TEWEN  =     41309.03722986
  -Hartree energ DENC   =    -48291.24734944
  -exchange      EXHF   =         0.00000000
  -V(xc)+E(xc)   XCENC  =       451.37594127
  PAW double counting   =    112468.28394334  -112207.51944970
  entropy T*S    EENTRO =        -0.00000000
  eigenvalues    EBANDS =     -2632.17237838
  atomic energy  EATOM  =      8369.52358910
  ---------------------------------------------------
  free energy    TOTEN  =      -484.76947201 eV

  energy without entropy =     -484.76947201  energy(sigma->0) =     -484.76947201


--------------------------------------------------------------------------------------------------------




--------------------------------------- Iteration      1(  22)  ---------------------------------------


    POTLOK:  cpu time    0.7353: real time    0.7402
    SETDIJ:  cpu time    0.0026: real time    0.0026
    TRIAL :  cpu time    6.9159: real time    6.9819
    CORREC:  cpu time    2.2643: real time    2.2871
    CHARGE:  cpu time    0.8064: real time    0.8127
    --------------------------------------------
      LOOP:  cpu time   10.7479: real time   10.8630

 eigenvalue-minimisations  :     0
 total energy-change (2. order) :-0.7917406E-06  (-0.3941672E-06)
 number of electron     216.0000000 magnetization 
 augmentation part       -0.4367006 magnetization 

 Free energy of the ion-electron system (eV)
  ---------------------------------------------------
  alpha Z        PSCENC =        47.94900195
  Ewald energy   TEWEN  =     41309.03722986
  -Hartree energ DENC   =    -48291.23651949
  -exchange      EXHF   =         0.00000000
  -V(xc)+E(xc)   XCENC  =       451.37555330
  PAW double counting   =    112466.31645733  -112205.55201599
  entropy T*S    EENTRO =        -0.00000000
  eigenvalues    EBANDS =     -2632.18276885
  atomic energy  EATOM  =      8369.52358910
  ---------------------------------------------------
  free energy    TOTEN  =      -484.76947281 eV

  energy without entropy =     -484.76947281  energy(sigma->0) =     -484.76947281


--------------------------------------------------------------------------------------------------------




--------------------------------------- Iteration      1(  23)  ---------------------------------------


    POTLOK:  cpu time    0.7367: real time    0.7414
    SETDIJ:  cpu time    0.0041: real time    0.0041
    TRIAL :  cpu time    6.9418: real time    6.9976
    CORREC:  cpu time    2.2582: real time    2.2751
    CHARGE:  cpu time    0.8126: real time    0.8181
    --------------------------------------------
      LOOP:  cpu time   10.7987: real time   10.8887

 eigenvalue-minimisations  :     0
 total energy-change (2. order) :-0.3021851E-06  (-0.1559166E-06)
 number of electron     216.0000000 magnetization 
 augmentation part       -0.4367034 magnetization 

 Free energy of the ion-electron system (eV)
  ---------------------------------------------------
  alpha Z        PSCENC =        47.94900195
  Ewald energy   TEWEN  =     41309.03722986
  -Hartree energ DENC   =    -48291.23305857
  -exchange      EXHF   =         0.00000000
  -V(xc)+E(xc)   XCENC  =       451.37559195
  PAW double counting   =    112464.39993548  -112203.63557467
  entropy T*S    EENTRO =        -0.00000000
  eigenvalues    EBANDS =     -2632.18618819
  atomic energy  EATOM  =      8369.52358910
  ---------------------------------------------------
  free energy    TOTEN  =      -484.76947311 eV

  energy without entropy =     -484.76947311  energy(sigma->0) =     -484.76947311


--------------------------------------------------------------------------------------------------------




--------------------------------------- Iteration      1(  24)  ---------------------------------------


    POTLOK:  cpu time    0.7376: real time    0.7424
    SETDIJ:  cpu time    0.0028: real time    0.0028
    TRIAL :  cpu time    6.9227: real time    6.9795
    CORREC:  cpu time    2.2586: real time    2.2760
    EDDIAG:  cpu time    1.1104: real time    1.1193
    CHARGE:  cpu time    0.8067: real time    0.8124
    --------------------------------------------
      LOOP:  cpu time   11.8905: real time   11.9889

 eigenvalue-minimisations  :     0
 total energy-change (2. order) :-0.8620555E-07  (-0.9547665E-07)
 number of electron     216.0000000 magnetization 
 augmentation part       -0.4367050 magnetization 

 Free energy of the ion-electron system (eV)
  ---------------------------------------------------
  alpha Z        PSCENC =        47.94900195
  Ewald energy   TEWEN  =     41309.03722986
  -Hartree energ DENC   =    -48291.22424220
  -exchange      EXHF   =         0.00000000
  -V(xc)+E(xc)   XCENC  =       451.37534301
  PAW double counting   =    112463.77446658  -112203.01007819
  entropy T*S    EENTRO =        -0.00000000
  eigenvalues    EBANDS =     -2632.19478330
  atomic energy  EATOM  =      8369.52358910
  ---------------------------------------------------
  free energy    TOTEN  =      -484.76947319 eV

  energy without entropy =     -484.76947319  energy(sigma->0) =     -484.76947319


--------------------------------------------------------------------------------------------------------


  average scaling for gradient   0.9472


 average (electrostatic) potential at core
  the test charge radii are     0.5770  0.5955
  (the norm of the test charge is              1.0000)
       1 -85.6354       2 -85.6350       3 -85.6354       4 -85.6359       5 -85.6344
       6 -85.6345       7 -85.6353       8 -85.6343       9 -85.6347      10 -85.6348
      11 -85.6345      12 -85.6344      13 -85.6348      14 -85.6347      15 -85.6343
      16 -85.6345      17 -85.6349      18 -85.6351      19 -85.6353      20 -85.6349
      21 -85.6342      22 -85.6342      23 -85.6363      24 -85.6362      25 -85.6344
      26 -85.6344      27 -85.6347      28 -85.6355      29 -85.6343      30 -85.6344
      31 -85.6356      32 -85.6351      33 -85.6345      34 -85.6345      35 -85.6346
      36 -85.6346      37 -85.6351      38 -85.6352      39 -85.6351      40 -85.6351
      41 -85.6350      42 -85.6351      43 -85.6349      44 -85.6353      45 -85.6344
      46 -85.6344      47 -85.6344      48 -85.6345      49 -85.6352      50 -85.6350
      51 -89.5732      52-120.3523      53-120.3517
 
 
 
 E-fermi :  -4.2537     XC(G=0):  -1.9483     alpha+bet : -1.6890

 Fermi energy:        -4.2536941702

 k-point     1 :       0.0000    0.0000    0.0000
  band No.  band energies     occupation 
      1     -27.6742      2.00000
      2     -26.6690      2.00000
      3     -22.3847      2.00000
      4     -21.4455      2.00000
      5     -21.4441      2.00000
      6     -21.4439      2.00000
      7     -21.4437      2.00000
      8     -21.4436      2.00000
      9     -21.4430      2.00000
     10     -19.6004      2.00000
     11     -19.6004      2.00000
     12     -19.6001      2.00000
     13     -19.5994      2.00000
     14     -19.5989      2.00000
     15     -19.5987      2.00000
     16     -18.7025      2.00000
     17     -18.7023      2.00000
     18     -18.7019      2.00000
     19     -18.7017      2.00000
     20     -18.7009      2.00000
     21     -18.7006      2.00000
     22     -16.5345      2.00000
     23     -16.5341      2.00000
     24     -16.5334      2.00000
     25     -16.5333      2.00000
     26     -16.5327      2.00000
     27     -16.5326      2.00000
     28     -15.5486      2.00000
     29     -15.5486      2.00000
     30     -15.5476      2.00000
     31     -15.5474      2.00000
     32     -15.5471      2.00000
     33     -15.5470      2.00000
     34     -14.1950      2.00000
     35     -14.1949      2.00000
     36     -14.1943      2.00000
     37     -14.1942      2.00000
     38     -14.1941      2.00000
     39     -14.1938      2.00000
     40     -12.4775      2.00000
     41     -11.8061      2.00000
     42     -11.8058      2.00000
     43     -11.8053      2.00000
     44     -11.8053      2.00000
     45     -11.8042      2.00000
     46     -11.8039      2.00000
     47     -11.7091      2.00000
     48     -11.7090      2.00000
     49     -11.7083      2.00000
     50     -11.7082      2.00000
     51     -11.7081      2.00000
     52     -11.7080      2.00000
     53     -11.2880      2.00000
     54     -11.2234      2.00000
     55     -11.2233      2.00000
     56     -10.4766      2.00000
     57     -10.3320      2.00000
     58     -10.3319      2.00000
     59     -10.3303      2.00000
     60     -10.3300      2.00000
     61     -10.3298      2.00000
     62     -10.3297      2.00000
     63      -9.3608      2.00000
     64      -9.3597      2.00000
     65      -9.3595      2.00000
     66      -9.3593      2.00000
     67      -9.3592      2.00000
     68      -9.3589      2.00000
     69      -9.0523      2.00000
     70      -9.0511      2.00000
     71      -9.0508      2.00000
     72      -9.0507      2.00000
     73      -9.0504      2.00000
     74      -9.0501      2.00000
     75      -9.0035      2.00000
     76      -9.0032      2.00000
     77      -9.0024      2.00000
     78      -9.0023      2.00000
     79      -9.0022      2.00000
     80      -9.0014      2.00000
     81      -7.6767      2.00000
     82      -7.6766      2.00000
     83      -7.3959      2.00000
     84      -7.3942      2.00000
     85      -7.3941      2.00000
     86      -7.3937      2.00000
     87      -7.3928      2.00000
     88      -7.3928      2.00000
     89      -7.2309      2.00000
     90      -7.2307      2.00000
     91      -7.2305      2.00000
     92      -7.2300      2.00000
     93      -7.2297      2.00000
     94      -7.2294      2.00000
     95      -6.3343      2.00000
     96      -6.3342      2.00000
     97      -6.3339      2.00000
     98      -6.3338      2.00000
     99      -6.3331      2.00000
    100      -6.3329      2.00000
    101      -5.9064      2.00000
    102      -5.9042      2.00000
    103      -4.3513      2.00000
    104      -4.3509      2.00000
    105      -4.3505      2.00000
    106      -4.3504      2.00000
    107      -4.3499      2.00000
    108      -4.3498      2.00000
    109      -1.5483      0.00000
    110      -1.5481      0.00000
    111      -1.5479      0.00000
    112      -1.5477      0.00000
    113      -1.5470      0.00000
    114      -1.5467      0.00000
    115       0.2991      0.00000
    116       0.3159      0.00000
    117       0.3162      0.00000
    118       0.3165      0.00000
    119       0.3166      0.00000
    120       0.3169      0.00000
    121       0.3180      0.00000
    122       0.4588      0.00000
    123       0.8051      0.00000
    124       0.8056      0.00000
    125       1.1921      0.00000
    126       1.5909      0.00000
    127       1.6644      0.00000
    128       1.6674      0.00000
    129       1.6788      0.00000
    130       1.6811      0.00000
    131       1.6828      0.00000
    132       1.6896      0.00000
    133       2.0566      0.00000
    134       2.0568      0.00000
    135       2.0568      0.00000
    136       2.0571      0.00000
    137       2.0574      0.00000
    138       2.0577      0.00000
    139       2.0581      0.00000
    140       2.1417      0.00000
[...]
     30     C        0.00007661
     31     C       -0.00007044
     32     C       -0.00005282
     33     C        0.00004291
     34     C        0.00006147
     35     C        0.00006405
     36     C        0.00004152
     37     C        0.00001335
     38     C        0.00000767
     39     C       -0.00002389
     40     C       -0.00000553
     41     C       -0.00001146
     42     C       -0.00004074
     43     C        0.00003182
     44     C       -0.00000015
     45     C        0.00007562
     46     C        0.00006173
     47     C        0.00004667
     48     C        0.00007241
     49     C        0.00001318
     50     C        0.00002346
     51     C        0.29454255
     52     O       -0.14764771
     53     O       -0.14768853

  Atomic reference data used in the T-S method for vdW correction:
            C6at              R0at           ALPHAat      REFSTATE
            (au)              (au)            (au)                
   ---------------------------------------------------------------
   C          46.600          3.590         12.000         0
   O          15.600          3.194          5.400         0
 
 Nth order contribution to Edisp (eV)
 Edisp(N=2):  -4.52509709275867     
 Edisp(N=3):  0.341115411106274     
 Edisp(N=4): -0.523911101208759     
 Edisp(N=5):  0.243495015355106     
 Edisp(N=6): -0.235542542021643     
 Edisp(N=inf):  -4.60941433928519     

  Tkatchenko/Scheffler method for vdW energy calculation
  ---------------------------------------------------------------------------------------------

  Parameters of vdW forcefield:
            C6ts              R0ts          ALPHAts         R0scs        ALPHAscs        RELVOL 
            (au)              (au)           (au)            (au)          (au)                 
   ---------------------------------------------------------------------------------------------
   C          32.895          3.388         10.082          3.266          9.032          0.840
   C          32.894          3.388         10.082          3.266          9.030          0.840
   C          32.899          3.388         10.083          3.266          9.032          0.840
   C          32.902          3.388         10.083          3.266          9.029          0.840
   C          32.890          3.388         10.081          3.266          9.030          0.840
   C          32.889          3.388         10.081          3.266          9.030          0.840
   C          32.897          3.388         10.082          3.266          9.033          0.840
   C          32.893          3.388         10.082          3.266          9.034          0.840
   C          32.893          3.388         10.082          3.266          9.033          0.840
   C          32.896          3.388         10.082          3.266          9.035          0.840
   C          32.889          3.388         10.081          3.266          9.032          0.840
   C          32.890          3.388         10.081          3.266          9.032          0.840
   C          32.896          3.388         10.082          3.266          9.034          0.840
   C          32.893          3.388         10.082          3.266          9.031          0.840
   C          32.889          3.388         10.081          3.265          9.027          0.840
   C          32.890          3.388         10.081          3.266          9.028          0.840
   C          32.892          3.388         10.082          3.266          9.031          0.840
   C          32.893          3.388         10.082          3.266          9.030          0.840
   C          32.894          3.388         10.082          3.266          9.032          0.840
   C          32.892          3.388         10.082          3.266          9.030          0.840
   C          32.889          3.388         10.081          3.266          9.028          0.840
   C          32.888          3.388         10.081          3.266          9.028          0.840
   C          32.904          3.388         10.083          3.266          9.029          0.840
   C          32.903          3.388         10.083          3.266          9.029          0.840
   C          32.888          3.388         10.081          3.266          9.032          0.840
   C          32.889          3.388         10.081          3.266          9.032          0.840
   C          32.894          3.388         10.082          3.266          9.034          0.840
   C          32.896          3.388         10.082          3.266          9.033          0.840
   C          32.889          3.388         10.081          3.266          9.028          0.840
   C          32.889          3.388         10.081          3.266          9.032          0.840
   C          32.900          3.388         10.083          3.266          9.031          0.840
   C          32.897          3.388         10.082          3.266          9.033          0.840
   C          32.890          3.388         10.081          3.266          9.031          0.840
   C          32.890          3.388         10.081          3.266          9.032          0.840
   C          32.890          3.388         10.081          3.266          9.031          0.840
   C          32.891          3.388         10.081          3.266          9.031          0.840
   C          32.893          3.388         10.082          3.266          9.030          0.840
   C          32.894          3.388         10.082          3.266          9.031          0.840
   C          32.895          3.388         10.082          3.266          9.032          0.840
   C          32.895          3.388         10.082          3.266          9.032          0.840
   C          32.895          3.388         10.082          3.266          9.031          0.840
   C          32.896          3.388         10.082          3.266          9.033          0.840
   C          32.892          3.388         10.082          3.266          9.030          0.840
   C          32.895          3.388         10.082          3.266          9.032          0.840
   C          32.889          3.388         10.081          3.266          9.031          0.840
   C          32.890          3.388         10.081          3.266          9.028          0.840
   C          32.890          3.388         10.081          3.266          9.032          0.840
   C          32.889          3.388         10.081          3.266          9.032          0.840
   C          32.893          3.388         10.082          3.266          9.031          0.840
   C          32.893          3.388         10.082          3.266          9.031          0.840
   C          26.354          3.265          9.024          3.199          8.490          0.752
   O          12.457          3.076          4.825          3.036          4.638          0.894
   O          12.458          3.076          4.826          3.036          4.638          0.894

  vdW correction parametrized for the method pbe       

  IVDW = 202
  VDW_RADIUS =    50.000 A
  VDW_SR =     0.830
  VDW_D =     6.000
  SCSRAD =   120.000 A
  LVDWSCS = T
  LSCSGRAD = T
  LSCALER0 = T
  ITIM = -1
  Edisp (eV):   -4.60941
    FORVDW:  cpu time   18.9133: real time   19.0491

 VOLUME and BASIS-vectors are now :
 -----------------------------------------------------------------------------
  energy-cutoff  :     1000.00
  volume of cell :     3288.85
      direct lattice vectors                 reciprocal lattice vectors
    12.325000000  0.000000000  0.000000000     0.081135903  0.046843835  0.000000000
    -6.162500000 10.673763102  0.000000000     0.000000000  0.093687670  0.000000000
     0.000000000  0.000000000 25.000000000     0.000000000  0.000000000  0.040000000

  length of vectors
    12.325000000 12.325000000 25.000000000     0.093687670  0.093687670  0.040000000


 FORCES acting on ions:
    Electron-Ion                     Ewald-Force                    Non-Local-Force
 -----------------------------------------------------------------------------------------------
   0.629E+00 0.561E+00 0.136E+02   -.629E+00 -.562E+00 -.136E+02   0.425E-02 -.636E-03 0.577E-02
   0.861E+00 0.485E+00 0.146E+02   -.864E+00 -.482E+00 -.146E+02   0.265E-02 -.300E-02 -.577E-02
   0.342E+00 0.940E+00 0.146E+02   -.344E+00 -.940E+00 -.146E+02   -.215E-04 0.112E-01 -.184E-02
   0.429E+00 0.632E+00 0.168E+02   -.427E+00 -.631E+00 -.168E+02   0.114E-01 0.696E-03 -.160E-01
   0.711E+00 0.191E+00 0.141E+02   -.710E+00 -.191E+00 -.141E+02   -.864E-03 -.515E-02 0.383E-02
   0.726E+00 -.164E+00 0.143E+02   -.729E+00 0.165E+00 -.143E+02   -.647E-02 0.357E-02 -.205E-02
   0.817E+00 0.376E+00 0.169E+02   -.818E+00 -.377E+00 -.169E+02   0.113E-01 -.188E-01 -.683E-02
   0.846E+00 -.258E+00 0.181E+02   -.851E+00 0.261E+00 -.181E+02   -.763E-02 -.498E-02 -.559E-02
   -.405E+00 0.933E+00 0.150E+02   0.408E+00 -.936E+00 -.150E+02   0.416E-03 -.134E-01 -.490E-02
   -.505E+00 0.450E+00 0.171E+02   0.506E+00 -.451E+00 -.171E+02   -.253E-01 0.144E-01 0.177E-02
   0.189E+00 -.192E+00 0.134E+02   -.186E+00 0.192E+00 -.134E+02   0.392E-02 -.277E-02 0.743E-03
   0.191E+00 -.156E+00 0.132E+02   -.192E+00 0.157E+00 -.132E+02   -.640E-02 0.324E-02 0.662E-02
   0.219E+00 -.652E+00 0.189E+02   -.219E+00 0.654E+00 -.189E+02   0.260E-01 -.720E-02 -.265E-02
   0.144E+00 -.102E+01 0.162E+02   -.147E+00 0.103E+01 -.162E+02   0.328E-02 0.715E-02 -.158E-01
   -.672E+00 0.401E+00 0.137E+02   0.674E+00 -.402E+00 -.137E+02   0.753E-02 -.407E-02 0.809E-02
   -.839E+00 0.223E+00 0.139E+02   0.839E+00 -.223E+00 -.139E+02   -.132E-02 0.497E-02 -.429E-02
   -.117E+00 -.507E-01 0.128E+02   0.120E+00 0.490E-01 -.128E+02   0.231E-03 0.180E-03 0.214E-02
   0.575E-01 0.411E+00 0.129E+02   -.572E-01 -.412E+00 -.129E+02   -.258E-02 0.133E-02 0.918E-02
   -.181E+00 -.968E+00 0.148E+02   0.181E+00 0.969E+00 -.148E+02   0.564E-02 -.133E-02 0.119E-03
   -.109E+00 -.602E+00 0.136E+02   0.106E+00 0.603E+00 -.136E+02   -.414E-03 -.686E-03 -.565E-03
   0.920E+00 -.384E+00 0.156E+02   -.920E+00 0.385E+00 -.156E+02   -.208E-02 -.195E-02 -.156E-01
   0.668E+00 -.531E+00 0.147E+02   -.670E+00 0.533E+00 -.147E+02   -.698E-02 0.544E-02 -.115E-02
   -.150E+00 0.255E+00 0.187E+02   0.146E+00 -.253E+00 -.187E+02   -.998E-02 0.103E-01 -.492E-03
   -.228E+00 -.404E+00 0.187E+02   0.230E+00 0.402E+00 -.187E+02   0.119E-01 -.145E-01 -.118E-01
   0.359E+00 -.131E+00 0.135E+02   -.357E+00 0.129E+00 -.135E+02   0.380E-02 -.269E-02 -.233E-02
   0.112E+00 0.302E+00 0.133E+02   -.113E+00 -.301E+00 -.133E+02   -.477E-02 0.315E-02 0.624E-02
   -.997E+00 0.791E-01 0.154E+02   0.100E+01 -.811E-01 -.155E+02   0.125E-01 0.750E-02 -.241E-02
   -.909E+00 -.386E+00 0.149E+02   0.910E+00 0.386E+00 -.149E+02   -.802E-02 0.885E-02 0.141E-03
   0.353E+00 -.754E+00 0.148E+02   -.352E+00 0.754E+00 -.148E+02   0.395E-02 0.244E-02 -.592E-02
   0.362E-01 -.331E+00 0.137E+02   -.383E-01 0.333E+00 -.137E+02   -.497E-02 0.242E-02 -.141E-02
   -.650E+00 -.638E+00 0.159E+02   0.648E+00 0.639E+00 -.158E+02   -.114E-01 -.788E-02 -.139E-01
   -.484E+00 -.927E+00 0.146E+02   0.486E+00 0.926E+00 -.146E+02   0.539E-03 -.609E-03 0.127E-02
   0.331E-01 0.212E+00 0.131E+02   -.328E-01 -.212E+00 -.131E+02   0.466E-02 -.451E-02 0.759E-02
   0.117E+00 0.179E+00 0.132E+02   -.119E+00 -.178E+00 -.132E+02   -.245E-02 0.468E-02 -.460E-03
   -.444E+00 0.855E-01 0.134E+02   0.447E+00 -.865E-01 -.134E+02   0.424E-02 -.251E-02 0.663E-02
   -.389E+00 -.187E+00 0.133E+02   0.388E+00 0.187E+00 -.133E+02   -.352E-02 0.217E-02 0.430E-02
   -.728E+00 -.406E+00 0.135E+02   0.731E+00 0.404E+00 -.135E+02   -.343E-03 0.866E-03 0.326E-02
   -.489E+00 -.396E+00 0.131E+02   0.489E+00 0.396E+00 -.131E+02   -.344E-02 0.120E-02 0.880E-02
   -.451E+00 -.564E+00 0.133E+02   0.450E+00 0.566E+00 -.133E+02   -.261E-02 0.322E-03 0.425E-02
   -.657E-01 -.164E+00 0.130E+02   0.667E-01 0.163E+00 -.130E+02   0.174E-02 0.759E-03 0.701E-02
   0.174E+00 0.427E+00 0.129E+02   -.175E+00 -.427E+00 -.129E+02   -.380E-02 0.142E-02 0.649E-02
   0.519E+00 0.771E+00 0.135E+02   -.518E+00 -.772E+00 -.136E+02   -.986E-03 -.108E-02 0.693E-02
   0.650E-01 0.697E+00 0.131E+02   -.621E-01 -.698E+00 -.131E+02   0.239E-03 0.304E-03 0.233E-02
   0.816E-02 0.996E+00 0.142E+02   -.769E-02 -.998E+00 -.142E+02   -.753E-02 0.130E-02 0.479E-02
   -.138E+00 0.250E+00 0.135E+02   0.140E+00 -.252E+00 -.135E+02   0.423E-02 -.312E-02 0.228E-02
   -.474E+00 0.618E+00 0.139E+02   0.474E+00 -.618E+00 -.139E+02   -.569E-02 -.605E-04 -.682E-03
   -.152E+00 -.314E+00 0.135E+02   0.153E+00 0.313E+00 -.135E+02   0.579E-02 -.114E-02 0.652E-02
   -.284E+00 0.961E-01 0.131E+02   0.283E+00 -.954E-01 -.131E+02   -.379E-02 0.327E-02 -.227E-02
   0.208E-01 -.187E+00 0.131E+02   -.209E-01 0.187E+00 -.131E+02   0.391E-02 -.297E-02 0.563E-02
   0.302E+00 0.218E+00 0.130E+02   -.304E+00 -.217E+00 -.130E+02   -.750E-03 0.182E-02 0.328E-02
   -.251E-02 0.277E-01 -.179E+03   -.143E-02 -.241E-01 0.180E+03   -.288E-02 0.188E-02 -.284E-02
   -.229E+03 0.156E+03 -.282E+03   0.279E+03 -.190E+03 0.285E+03   -.511E+02 0.348E+02 -.343E+01
   0.229E+03 -.156E+03 -.260E+03   -.279E+03 0.190E+03 0.257E+03   0.511E+02 -.348E+02 0.309E+01
 -----------------------------------------------------------------------------------------------
   -.661E-02 0.134E-01 0.344E+00   0.114E-12 -.114E-12 -.114E-12   0.709E-02 -.138E-01 -.343E+00
 
 
 POSITION                                       TOTAL-FORCE (eV/Angst)
 -----------------------------------------------------------------------------------
     11.98348      0.00342      0.01417         0.003261     -0.001662     -0.001136
     -0.34154      1.42665      0.01100        -0.000537     -0.000107     -0.003490
      2.12355      0.00315      0.01249        -0.001754      0.010905     -0.006559
      2.12326      1.42653      0.00641         0.013447      0.001334     -0.008312
     10.75099      2.13819      0.01213         0.000368     -0.005759     -0.000103
     -1.57382      3.56123      0.01110        -0.008984      0.004768     -0.001430
      0.89078      2.13854      0.00548         0.009738     -0.019137      0.002498
      0.89099      3.56147      0.00181        -0.011693     -0.002570      0.012060
      4.58864      0.00346      0.01135         0.003493     -0.015753     -0.003552
      4.58894      1.42623      0.00646        -0.023817      0.013465      0.013942
      9.51854      4.27281      0.01369         0.006536     -0.003087      0.000094
     -2.80632      5.69591      0.01434        -0.006563      0.003402      0.000691
      2.12300      4.27302      0.00000         0.025259     -0.005197      0.020711
      2.12335      5.69594      0.00581        -0.000399      0.009072     -0.002543
      7.05344      0.00333      0.01399         0.009422     -0.005304     -0.000411
      7.05353      1.42635      0.01368        -0.001746      0.005087     -0.003948
      8.28610      6.40752      0.01601         0.002875     -0.001450     -0.000979
     -4.03885      7.83070      0.01636        -0.002257      0.000881     -0.000236
      3.35586      6.40753      0.01007         0.005556      0.000471     -0.001230
      3.35599      7.83072      0.01320        -0.003148     -0.000031     -0.000767
     -0.34146      4.27290      0.00723        -0.001810     -0.001552     -0.004422
     -0.34138      5.69591      0.00946        -0.009244      0.006545     -0.000992
      3.35624      2.13791      0.00222        -0.013636      0.012046      0.016143
      3.35573      3.56155      0.00139         0.013636     -0.016037      0.008633
     -1.57395      6.40758      0.01311         0.005350     -0.003924     -0.000688
     -1.57385      7.83068      0.01438        -0.004876      0.003764     -0.000047
      5.82093      2.13784      0.01033         0.015889      0.005301     -0.002913
      5.82114      3.56097      0.01156        -0.006497      0.008562     -0.003738
      0.89092      6.40755      0.00907         0.004653      0.002360     -0.002196
      0.89106      7.83068      0.01235        -0.006838      0.003896      0.000286
      4.58871      4.27293      0.00850        -0.013070     -0.006599     -0.010866
      4.58852      5.69606      0.01149         0.001944     -0.001208     -0.004046
      9.51845      0.00337      0.01490         0.004760     -0.004666      0.000082
      9.51855      1.42644      0.01438        -0.005119      0.005436     -0.000456
      8.28593      2.13803      0.01453         0.006744     -0.003386      0.000507
      8.28613      3.56115      0.01464        -0.004361      0.002250     -0.000169
      7.05356      4.27269      0.01457         0.002513     -0.001095     -0.000831
      7.05362      5.69588      0.01553        -0.002537      0.001577     -0.000202
      5.82112      6.40755      0.01489        -0.003016      0.001579     -0.000239
      5.82102      7.83073      0.01579         0.002724      0.000254     -0.000434
      7.05363      8.54227      0.01631        -0.004694      0.001318      0.000863
     -5.27149      9.96549      0.01495         0.000170     -0.001963     -0.002330
     -2.80638      8.54234      0.01558         0.003106     -0.001296     -0.001410
     -2.80627      9.96553      0.01362        -0.006853     -0.000012     -0.003899
     -0.34149      8.54239      0.01378         0.005794     -0.004911      0.000132
     -0.34138      9.96550      0.01354        -0.006020     -0.000081     -0.001377
      2.12343      8.54232      0.01336         0.005883     -0.001522      0.000713
      2.12354      9.96544      0.01469        -0.005125      0.003814     -0.002028
      4.58846      8.54235      0.01505         0.003721     -0.002799      0.000876
      4.58853      9.96550      0.01517        -0.002721      0.003350     -0.000022
      3.04930      2.68154      8.40896        -0.006656      0.005415      0.034312
      4.02070      2.02068      8.47339        -0.530940      0.360822     -0.051476
      2.07767      3.34267      8.34951         0.538069     -0.366566      0.016932
 -----------------------------------------------------------------------------------
    total drift:                                0.000479     -0.000387      0.000575


--------------------------------------------------------------------------------------------------------



  FREE ENERGIE OF THE ION-ELECTRON SYSTEM (eV)
  ---------------------------------------------------
  free  energy   TOTEN  =      -489.37888753 eV

  energy  without entropy=     -489.37888753  energy(sigma->0) =     -489.37888753
 


--------------------------------------------------------------------------------------------------------


    POTLOK:  cpu time    0.7435: real time    0.7487


--------------------------------------------------------------------------------------------------------


     LOOP+:  cpu time  358.7459: real time  362.3193
    4ORBIT:  cpu time    0.0000: real time    0.0000

 total amount of memory used by VASP MPI-rank0   551512. kBytes
=======================================================================

   base      :      30000. kBytes
   nonl-proj :     230539. kBytes
   fftplans  :      40716. kBytes
   grid      :     216018. kBytes
   one-center:        162. kBytes
   wavefun   :      34077. kBytes
 
  
  
 General timing and accounting informations for this job:
 ========================================================
  
                  Total CPU time used (sec):      406.401
                            User time (sec):      381.799
                          System time (sec):       24.602
                         Elapsed time (sec):      411.260
  
                   Maximum memory used (kb):     1043836.
                   Average memory used (kb):          N/A
  
                          Minor page faults:       105838
                          Major page faults:           75
                 Voluntary context switches:         3366
