 vasp.6.2.1 16May21 (build Nov 06 2021 14:46:37) complex                        
  
 executed on             LinuxIFC date 2025.03.03  17:05:17
 running on  112 total cores
 distrk:  each k-point on   56 cores,    2 groups
 distr:  one band on NCORE=   1 cores,   56 groups


--------------------------------------------------------------------------------------------------------


 INCAR:
   ALGO = Conjugate
   KPAR = 2
   NCORE = 32
   PREC = Accurate
   EDIFF = 1E-7
   ENCUT = 1000
   ISMEAR = 0
   SIGMA = 0.01
   ISIF = 0
   GGA = PE
   IVDW = 202
   LVDWEXPANSION = .TRUE.
   LWAVE = .FALSE.
   LCHARGE = .FALSE.
   SYMPREC = 1E-7

 POTCAR:    PAW_PBE C_h 06Feb2004                 
 POTCAR:    PAW_PBE O_h 06Feb2004                 
 -----------------------------------------------------------------------------
|                                                                             |
|           W    W    AA    RRRRR   N    N  II  N    N   GGGG   !!!           |
|           W    W   A  A   R    R  NN   N  II  NN   N  G    G  !!!           |
|           W    W  A    A  R    R  N N  N  II  N N  N  G       !!!           |
|           W WW W  AAAAAA  RRRRR   N  N N  II  N  N N  G  GGG   !            |
|           WW  WW  A    A  R   R   N   NN  II  N   NN  G    G                |
|           W    W  A    A  R    R  N    N  II  N    N   GGGG   !!!           |
|                                                                             |
|     The value NCORE = 32 specified in the INCAR file was overwritten,       |
|     because it was not compatible with the 56 processes available:          |
|     NCORE = 1                                                               |
|     was used instead, please check that this makes sense for your           |
|     machine.                                                                |
|                                                                             |
 -----------------------------------------------------------------------------

 -----------------------------------------------------------------------------
|                                                                             |
|           W    W    AA    RRRRR   N    N  II  N    N   GGGG   !!!           |
|           W    W   A  A   R    R  NN   N  II  NN   N  G    G  !!!           |
|           W    W  A    A  R    R  N N  N  II  N N  N  G       !!!           |
|           W WW W  AAAAAA  RRRRR   N  N N  II  N  N N  G  GGG   !            |
|           WW  WW  A    A  R   R   N   NN  II  N   NN  G    G                |
|           W    W  A    A  R    R  N    N  II  N    N   GGGG   !!!           |
|                                                                             |
|     For optimal performance we recommend to set                             |
|       NCORE = 2 up to number-of-cores-per-socket                            |
|     NCORE specifies how many cores store one orbital (NPAR=cpu/NCORE).      |
|     This setting can greatly improve the performance of VASP for DFT.       |
|     The default, NCORE=1 might be grossly inefficient on modern             |
|     multi-core architectures or massively parallel machines. Do your        |
|     own testing! More info at https://www.vasp.at/wiki/index.php/NCORE      |
|     Unfortunately you need to use the default for GW and RPA                |
|     calculations (for HF NCORE is supported but not extensively tested      |
|     yet).                                                                   |
|                                                                             |
 -----------------------------------------------------------------------------

 POTCAR:    PAW_PBE C_h 06Feb2004                 
   VRHFIN =C: s2p2                                                                                  
   LEXCH  = PE                                                                                      
   EATOM  =   147.1560 eV,   10.8157 Ry                                                             
                                                                                                    
   TITEL  = PAW_PBE C_h 06Feb2004                                                                   
   LULTRA =        F    use ultrasoft PP ?                                                          
   IUNSCR =        1    unscreen: 0-lin 1-nonlin 2-no                                               
   RPACOR =    0.800    partial core radius                                                         
   POMASS =   12.011; ZVAL   =    4.000    mass and valenz                                          
   RCORE  =    1.100    outmost cutoff radius                                                       
   RWIGS  =    1.630; RWIGS  =    0.863    wigner-seitz radius (au A)                               
   ENMAX  =  700.000; ENMIN  =  500.000 eV                                                          
   ICORE  =        2    local potential                                                             
   LCOR   =        T    correct aug charges                                                         
   LPAW   =        T    paw PP                                                                      
   EAUG   =  946.768                                                                                
   DEXC   =    0.000                                                                                
   RMAX   =    1.128    core radius for proj-oper                                                   
   RAUG   =    1.300    factor for augmentation sphere                                              
   RDEP   =    1.162    radius for radial grids                                                     
   RDEPT  =    1.088    core radius for aug-charge                                                  
                                                                                                    
   Atomic configuration                                                                             
    4 entries                                                                                       
     n  l   j            E        occ.                                                              
     1  0  0.50      -273.3789   2.0000                                                             
     2  0  0.50       -13.7508   2.0000                                                             
     2  1  0.50        -5.2854   2.0000                                                             
     3  2  1.50        -5.4423   0.0000                                                             
   Description                                                                                      
     l       E           TYP  RCUT    TYP  RCUT                                                     
     0    -13.7508458     23  1.100                                                                 
     0     -8.2022199     23  1.100                                                                 
     1     -5.2854383     23  1.100                                                                 
     1      1.1560700     23  1.100                                                                 
     2     -5.4423304      7  1.100                                                                 
  local pseudopotential read in
  partial core-charges read in
  partial kinetic energy density read in
  atomic valenz-charges read in
  non local Contribution for L=           0  read in
    real space projection operators read in
  non local Contribution for L=           0  read in
    real space projection operators read in
  non local Contribution for L=           1  read in
    real space projection operators read in
  non local Contribution for L=           1  read in
    real space projection operators read in
    PAW grid and wavefunctions read in
 
   number of l-projection  operators is LMAX  =           4
   number of lm-projection operators is LMMAX =           8
 
 POTCAR:    PAW_PBE O_h 06Feb2004                 
   VRHFIN =O: s2p4                                                                                  
   LEXCH  = PE                                                                                      
   EATOM  =   432.3788 eV,   31.7789 Ry                                                             
                                                                                                    
   TITEL  = PAW_PBE O_h 06Feb2004                                                                   
   LULTRA =        F    use ultrasoft PP ?                                                          
   IUNSCR =        1    unscreen: 0-lin 1-nonlin 2-no                                               
   RPACOR =    0.800    partial core radius                                                         
   POMASS =   16.000; ZVAL   =    6.000    mass and valenz                                          
   RCORE  =    1.100    outmost cutoff radius                                                       
   RWIGS  =    1.400; RWIGS  =    0.741    wigner-seitz radius (au A)                               
   ENMAX  =  700.000; ENMIN  =  500.000 eV                                                          
   ICORE  =        2    local potential                                                             
   LCOR   =        T    correct aug charges                                                         
   LPAW   =        T    paw PP                                                                      
   EAUG   =  888.804                                                                                
   DEXC   =    0.000                                                                                
   RMAX   =    1.128    core radius for proj-oper                                                   
   RAUG   =    1.300    factor for augmentation sphere                                              
   RDEP   =    1.125    radius for radial grids                                                     
   RDEPT  =    1.088    core radius for aug-charge                                                  
                                                                                                    
   Atomic configuration                                                                             
    4 entries                                                                                       
     n  l   j            E        occ.                                                              
     1  0  0.50      -514.6923   2.0000                                                             
     2  0  0.50       -23.9615   2.0000                                                             
     2  1  0.50        -9.0305   4.0000                                                             
     3  2  1.50        -9.5241   0.0000                                                             
   Description                                                                                      
     l       E           TYP  RCUT    TYP  RCUT                                                     
     0    -23.9615319     23  1.100                                                                 
     0    -25.3221145     23  1.100                                                                 
     1     -9.0304911     23  1.100                                                                 
     1     -5.4802209     23  1.100                                                                 
     2     -9.5240782      7  1.100                                                                 
  local pseudopotential read in
  partial core-charges read in
  partial kinetic energy density read in
  atomic valenz-charges read in
  non local Contribution for L=           0  read in
    real space projection operators read in
  non local Contribution for L=           0  read in
    real space projection operators read in
  non local Contribution for L=           1  read in
    real space projection operators read in
  non local Contribution for L=           1  read in
    real space projection operators read in
    PAW grid and wavefunctions read in
 
   number of l-projection  operators is LMAX  =           4
   number of lm-projection operators is LMMAX =           8
 
 -----------------------------------------------------------------------------
|                                                                             |
|               ----> ADVICE to this user running VASP <----                  |
|                                                                             |
|     You have a (more or less) 'large supercell' and for larger cells it     |
|     might be more efficient to use real-space projection operators.         |
|     Therefore, try LREAL= Auto in the INCAR file.                           |
|     Mind: For very accurate calculation, you might also keep the            |
|     reciprocal projection scheme (i.e. LREAL=.FALSE.).                      |
|                                                                             |
 -----------------------------------------------------------------------------

  PAW_PBE C_h 06Feb2004                 :
 energy of atom  1       EATOM= -147.1560
 kinetic energy error for atom=    0.0031 (will be added to EATOM!!)
  PAW_PBE O_h 06Feb2004                 :
 energy of atom  2       EATOM= -432.3788
 kinetic energy error for atom=    0.0171 (will be added to EATOM!!)
 
 
 POSCAR:  C  O
  positions in cartesian coordinates
  No initial velocities read in
 exchange correlation table for  LEXCH =        8
   RHO(1)=    0.500       N(1)  =     2000
   RHO(2)=  100.500       N(2)  =     4000
 


--------------------------------------------------------------------------------------------------------


 ion  position               nearest neighbor table
   1  0.972  0.000  0.001-  50 1.42   2 1.42  42 1.42
   2  0.039  0.134  0.001-   5 1.42   7 1.42   1 1.42
   3  0.172  0.000  0.001-  42 1.42  44 1.42   4 1.42
   4  0.239  0.134  0.000-   7 1.42   3 1.42  23 1.42
   5  0.972  0.200  0.001-   6 1.42   2 1.42  34 1.42
   6  0.039  0.334  0.001-   5 1.42  21 1.42  11 1.42
   7  0.172  0.200  0.000-   8 1.42   2 1.42   4 1.42
   8  0.239  0.334  0.000-  13 1.42   7 1.42  21 1.42
   9  0.372  0.000  0.001-  10 1.42  44 1.42  46 1.42
  10  0.439  0.134  0.000-  27 1.42   9 1.42  23 1.42
  11  0.972  0.400  0.001-  12 1.42  36 1.42   6 1.42
  12  0.039  0.534  0.001-  25 1.42  11 1.42  17 1.42
  13  0.372  0.400  0.000-   8 1.42  14 1.42  24 1.42
  14  0.439  0.534  0.000-  13 1.42  29 1.42  19 1.42
  15  0.572  0.000  0.001-  46 1.42  16 1.42  48 1.42
  16  0.639  0.134  0.001-  15 1.42  35 1.42  27 1.42
  17  0.972  0.600  0.001-  38 1.42  18 1.42  12 1.42
  18  0.039  0.734  0.001-  43 1.42  41 1.42  17 1.42
  19  0.572  0.600  0.001-  14 1.42  20 1.42  32 1.42
  20  0.639  0.734  0.001-  49 1.42  19 1.42  47 1.42
  21  0.172  0.400  0.000-  22 1.42   8 1.42   6 1.42
  22  0.239  0.534  0.000-  21 1.42  29 1.42  25 1.42
  23  0.372  0.200  0.000-  10 1.42   4 1.42  24 1.42
  24  0.439  0.334  0.000-  13 1.42  31 1.42  23 1.42
  25  0.172  0.600  0.001-  26 1.42  12 1.42  22 1.42
  26  0.239  0.734  0.001-  25 1.42  45 1.42  43 1.42
  27  0.572  0.200  0.001-  10 1.42  28 1.42  16 1.42
  28  0.639  0.334  0.001-  27 1.42  37 1.42  31 1.42
  29  0.372  0.600  0.000-  22 1.42  14 1.42  30 1.42
  30  0.439  0.734  0.001-  47 1.42  29 1.42  45 1.42
  31  0.572  0.400  0.000-  32 1.42  28 1.42  24 1.42
  32  0.639  0.534  0.001-  31 1.42  39 1.42  19 1.42
  33  0.772  0.000  0.001-  34 1.42  48 1.42  50 1.42
  34  0.839  0.134  0.001-  33 1.42   5 1.42  35 1.42
  35  0.772  0.200  0.001-  36 1.42  16 1.42  34 1.42
  36  0.839  0.334  0.001-  35 1.42  11 1.42  37 1.42
  37  0.772  0.400  0.001-  28 1.42  38 1.42  36 1.42
  38  0.839  0.534  0.001-  17 1.42  37 1.42  39 1.42
  39  0.772  0.600  0.001-  40 1.42  38 1.42  32 1.42
  40  0.839  0.734  0.001-  39 1.42  49 1.42  41 1.42
  41  0.972  0.800  0.001-  18 1.42  42 1.42  40 1.42
  42  0.039  0.934  0.001-   3 1.42  41 1.42   1 1.42
  43  0.172  0.800  0.001-  18 1.42  44 1.42  26 1.42
  44  0.239  0.934  0.001-   9 1.42  43 1.42   3 1.42
  45  0.372  0.800  0.001-  26 1.42  46 1.42  30 1.42
  46  0.439  0.934  0.001-  15 1.42  45 1.42   9 1.42
  47  0.572  0.800  0.001-  30 1.42  48 1.42  20 1.42
  48  0.639  0.934  0.001-  47 1.42  33 1.42  15 1.42
  49  0.772  0.800  0.001-  50 1.42  20 1.42  40 1.42
  50  0.839  0.934  0.001-  49 1.42   1 1.42  33 1.42
  51  0.373  0.251  0.132-  52 1.18  53 1.18
  52  0.421  0.189  0.136-  51 1.18
  53  0.325  0.313  0.129-  51 1.18
 
  LATTYP: Found a hexagonal cell.
 ALAT       =    12.3250000000
 C/A-ratio  =     1.6227180527
  
  Lattice vectors:
  
 A1 = (  12.3250000000,   0.0000000000,   0.0000000000)
 A2 = (  -6.1625000000,  10.6737631016,   0.0000000000)
 A3 = (   0.0000000000,   0.0000000000,  20.0000000000)


Analysis of symmetry for initial positions (statically):
=====================================================================
 Subroutine PRICEL returns:
 Original cell was already a primitive cell.
 

 Routine SETGRP: Setting up the symmetry group for a 
 hexagonal supercell.


 Subroutine GETGRP returns: Found  1 space group operations
 (whereof  1 operations were pure point group operations)
 out of a pool of 24 trial point group operations.


The static configuration has the point symmetry C_1 .


Analysis of symmetry for dynamics (positions and initial velocities):
=====================================================================
 Subroutine PRICEL returns:
 Original cell was already a primitive cell.
 

 Routine SETGRP: Setting up the symmetry group for a 
 hexagonal supercell.


 Subroutine GETGRP returns: Found  1 space group operations
 (whereof  1 operations were pure point group operations)
 out of a pool of 24 trial point group operations.


The dynamic configuration has the point symmetry C_1 .


 Subroutine INISYM returns: Found  1 space group operations
 (whereof  1 operations are pure point group operations),
 and found     1 'primitive' translations


----------------------------------------------------------------------------------------

                                     Primitive cell                                     

  volume of cell :    2631.0826

  direct lattice vectors                    reciprocal lattice vectors
    12.325000000  0.000000000  0.000000000     0.081135903  0.046843835  0.000000000
    -6.162500000 10.673763102  0.000000000     0.000000000  0.093687670  0.000000000
     0.000000000  0.000000000 20.000000000     0.000000000  0.000000000  0.050000000

  length of vectors
    12.325000000 12.325000000 20.000000000     0.093687670  0.093687670  0.050000000

  position of ions in fractional coordinates (direct lattice)
     0.972450841  0.000320818  0.000708389
     0.039118382  0.133659505  0.000550216
     0.172443627  0.000295449  0.000624535
     0.239096278  0.133647917  0.000320585
     0.972452058  0.200322012  0.000606523
     0.039128360  0.333643771  0.000555187
     0.172451764  0.200354552  0.000273959
     0.239124359  0.333665720  0.000090325
     0.372465565  0.000324403  0.000567391
     0.439137473  0.133619939  0.000322923
     0.972449824  0.400309362  0.000684513
     0.039124981  0.533636789  0.000716763
     0.372416176  0.400329481  0.000000000
     0.439099602  0.533638981  0.000290518
     0.572443676  0.000312125  0.000699475
     0.639110207  0.133631751  0.000684093
     0.972452703  0.600305653  0.000800361
     0.039124495  0.733640359  0.000818141
     0.572433471  0.600306242  0.000503618
     0.639111888  0.733641879  0.000659881
     0.172454630  0.400318228  0.000361306
     0.239120185  0.533636548  0.000473136
     0.372459750  0.200295993  0.000111246
     0.439107096  0.333673419  0.000069702
     0.172452155  0.600311506  0.000655425
     0.239123371  0.733638574  0.000718912
     0.572431082  0.200289171  0.000516621
     0.639112773  0.333618630  0.000577970
     0.372439808  0.600308022  0.000453556
     0.439116090  0.733637858  0.000617737
     0.572469358  0.400320504  0.000424897
     0.639119408  0.533650873  0.000574513
     0.772445723  0.000315427  0.000745201
     0.839116277  0.133640203  0.000719132
     0.772440513  0.200307432  0.000726291
     0.839120241  0.333635728  0.000731834
     0.772446320  0.400298367  0.000728722
     0.839118980  0.533633964  0.000776376
     0.772456143  0.600308173  0.000744639
     0.839115033  0.733643180  0.000789390
     0.972455313  0.800305582  0.000815291
     0.039114714  0.933643289  0.000747563
     0.172457971  0.800312211  0.000779216
     0.239134551  0.933647193  0.000681063
     0.372451396  0.800316674  0.000689249
     0.439124489  0.933644769  0.000676788
     0.572441101  0.800310054  0.000668168
     0.639115067  0.933638985  0.000734556
     0.772445098  0.800313187  0.000752577
     0.839116614  0.933644338  0.000758538
     0.373021009  0.251226878  0.132432887
     0.420879805  0.189313152  0.135653980
     0.325156981  0.313167186  0.129460143

  ion indices of the primitive-cell ions
   primitive index   ion index
                 1           1
                 2           2
                 3           3
                 4           4
                 5           5
                 6           6
                 7           7
                 8           8
                 9           9
                10          10
                11          11
                12          12
                13          13
                14          14
                15          15
                16          16
                17          17
                18          18
                19          19
                20          20
                21          21
                22          22
                23          23
                24          24
                25          25
                26          26
                27          27
                28          28
                29          29
                30          30
                31          31
                32          32
                33          33
                34          34
                35          35
                36          36
                37          37
                38          38
                39          39
                40          40
                41          41
                42          42
                43          43
                44          44
                45          45
                46          46
                47          47
                48          48
                49          49
                50          50
                51          51
                52          52
                53          53

----------------------------------------------------------------------------------------

 
 
 KPOINTS: auto                                    

Automatic generation of k-mesh.
 Grid dimensions read from file:
 generate k-points for:    1    1    1

 Generating k-lattice:

  Cartesian coordinates                     Fractional coordinates (reciprocal lattice)
     0.081135903  0.046843835  0.000000000     1.000000000 -0.000000000  0.000000000
     0.000000000  0.093687670  0.000000000     0.000000000  1.000000000  0.000000000
     0.000000000  0.000000000  0.050000000     0.000000000  0.000000000  1.000000000

  Length of vectors
     0.093687670  0.093687670  0.050000000

  Shift w.r.t. Gamma in fractional coordinates (k-lattice)
     0.000000000  0.000000000  0.000000000

 
 Subroutine IBZKPT returns following result:
 ===========================================
 
 Found      1 irreducible k-points:
 
 Following reciprocal coordinates:
            Coordinates               Weight
  0.000000  0.000000  0.000000      1.000000
 
 Following cartesian coordinates:
            Coordinates               Weight
  0.000000  0.000000  0.000000      1.000000
 


--------------------------------------------------------------------------------------------------------




 Dimension of arrays:
   k-points           NKPTS =      1   k-points in BZ     NKDIM =      1   number of bands    NBANDS=    168
   number of dos      NEDOS =    301   number of ions     NIONS =     53
   non local maximal  LDIM  =      4   non local SUM 2l+1 LMDIM =      8
   total plane-waves  NPLWV = ******
   max r-space proj   IRMAX =      1   max aug-charges    IRDMAX=   9736
   dimension x,y,z NGX =   128 NGY =  128 NGZ =  210
   dimension x,y,z NGXF=   256 NGYF=  256 NGZF=  420
   support grid    NGXF=   256 NGYF=  256 NGZF=  420
   ions per type =              51   2
   NGX,Y,Z   is equivalent  to a cutoff of  17.27, 17.27, 17.46 a.u.
   NGXF,Y,Z  is equivalent  to a cutoff of  34.53, 34.53, 34.91 a.u.

 SYSTEM =  unknown system                          
 POSCAR =   C  O                                   

 Startparameter for this run:
   NWRITE =      2    write-flag & timer
   PREC   = accura    normal or accurate (medium, high low for compatibility)
   ISTART =      0    job   : 0-new  1-cont  2-samecut
   ICHARG =      2    charge: 1-file 2-atom 10-const
   ISPIN  =      1    spin polarized calculation?
   LNONCOLLINEAR =      F non collinear calculations
   LSORBIT =      F    spin-orbit coupling
   INIWAV =      1    electr: 0-lowe 1-rand  2-diag
   LASPH  =      F    aspherical Exc in radial PAW
 Electronic Relaxation 1
   ENCUT  = 1000.0 eV  73.50 Ry    8.57 a.u.  31.78 31.78 51.57*2*pi/ulx,y,z
   ENINI  = 1000.0     initial cutoff
   ENAUG  =  946.8 eV  augmentation charge cutoff
   NELM   =     60;   NELMIN=  2; NELMDL= -5     # of ELM steps 
   EDIFF  = 0.1E-06   stopping-criterion for ELM
   LREAL  =      F    real-space projection
   NLSPLINE    = F    spline interpolate recip. space projectors
   LCOMPAT=      F    compatible to vasp.4.4
   GGA_COMPAT  = T    GGA compatible to vasp.4.4-vasp.4.6
   LMAXPAW     = -100 max onsite density
   LMAXMIX     =    2 max onsite mixed and CHGCAR
   VOSKOWN=      0    Vosko Wilk Nusair interpolation
   ROPT   =    0.00000   0.00000
 Ionic relaxation
   EDIFFG = 0.1E-05   stopping-criterion for IOM
   NSW    =      0    number of steps for IOM
   NBLOCK =      1;   KBLOCK =      1    inner block; outer block 
   IBRION =     -1    ionic relax: 0-MD 1-quasi-New 2-CG
   NFREE  =      0    steps in history (QN), initial steepest desc. (CG)
   ISIF   =      0    stress and relaxation
   IWAVPR =     10    prediction:  0-non 1-charg 2-wave 3-comb
   ISYM   =      2    0-nonsym 1-usesym 2-fastsym
   LCORR  =      T    Harris-Foulkes like correction to forces

   POTIM  = 0.5000    time-step for ionic-motion
   TEIN   =    0.0    initial temperature
   TEBEG  =    0.0;   TEEND  =   0.0 temperature during run
   SMASS  =  -3.00    Nose mass-parameter (am)
   estimated Nose-frequenzy (Omega)   =  0.10E-29 period in steps = 0.13E+47 mass=  -0.347E-26a.u.
   SCALEE = 1.0000    scale energy and forces
   NPACO  =    256;   APACO  = 16.0  distance and # of slots for P.C.
   PSTRESS=    0.0 pullay stress

  Mass of Ions in am
   POMASS =  12.01 16.00
  Ionic Valenz
   ZVAL   =   4.00  6.00
  Atomic Wigner-Seitz radii
   RWIGS  =  -1.00 -1.00
  virtual crystal weights 
   VCA    =   1.00  1.00
   NELECT =     216.0000    total number of electrons
   NUPDOWN=      -1.0000    fix difference up-down

 DOS related values:
   EMIN   =  10.00;   EMAX   =-10.00  energy-range for DOS
   EFERMI =   0.00
   ISMEAR =     0;   SIGMA  =   0.01  broadening in eV -4-tet -1-fermi 0-gaus

 Electronic relaxation 2 (details)
   IALGO  =     58    algorithm
   LDIAG  =      T    sub-space diagonalisation (order eigenvalues)
   LSUBROT=      F    optimize rotation matrix (better conditioning)
   TURBO    =      0    0=normal 1=particle mesh
   IRESTART =      0    0=no restart 2=restart with 2 vectors
   NREBOOT  =      0    no. of reboots
   NMIN     =      0    reboot dimension
   EREF     =   0.00    reference energy to select bands
   IMIX   =      4    mixing-type and parameters
     AMIX     =   0.40;   BMIX     =  1.00
     AMIX_MAG =   1.60;   BMIX_MAG =  1.00
     AMIN     =   0.10
     WC   =   100.;   INIMIX=   1;  MIXPRE=   1;  MAXMIX= -45

 Intra band minimization:
   WEIMIN = 0.0000     energy-eigenvalue tresh-hold
   EBREAK =  0.15E-09  absolut break condition
   DEPER  =   0.30     relativ break condition  

   TIME   =   0.40     timestep for ELM

  volume/ion in A,a.u.               =      49.64       335.01
  Fermi-wavevector in a.u.,A,eV,Ry     =   0.711510  1.344560  6.887909  0.506247
  Thomas-Fermi vector in A             =   1.798641
 
 Write flags
   LWAVE        =      F    write WAVECAR
   LDOWNSAMPLE  =      F    k-point downsampling of WAVECAR
   LCHARG       =      T    write CHGCAR
   LVTOT        =      F    write LOCPOT, total local potential
   LVHAR        =      F    write LOCPOT, Hartree potential only
   LELF         =      F    write electronic localiz. function (ELF)
   LORBIT       =      0    0 simple, 1 ext, 2 COOP (PROOUT), +10 PAW based schemes


 Dipole corrections
   LMONO  =      F    monopole corrections only (constant potential shift)
   LDIPOL =      F    correct potential (dipole corrections)
   IDIPOL =      0    1-x, 2-y, 3-z, 4-all directions 
   EPSILON=  1.0000000 bulk dielectric constant

 Exchange correlation treatment:
   GGA     =    PE    GGA type
   LEXCH   =     8    internal setting for exchange type
   VOSKOWN=      0    Vosko Wilk Nusair interpolation
   LHFCALC =     F    Hartree Fock is set to
   LHFONE  =     F    Hartree Fock one center treatment
   AEXX    =    0.0000 exact exchange contribution

 Linear response parameters
   LEPSILON=     F    determine dielectric tensor
   LRPA    =     F    only Hartree local field effects (RPA)
   LNABLA  =     F    use nabla operator in PAW spheres
   LVEL    =     F    velocity operator in full k-point grid
   LINTERFAST=   F  fast interpolation
   KINTER  =     0    interpolate to denser k-point grid
   CSHIFT  =0.1000    complex shift for real part using Kramers Kronig
   OMEGAMAX=  -1.0    maximum frequency
   DEG_THRESHOLD= 0.2000000E-02 threshold for treating states as degnerate
   RTIME   =   -0.100 relaxation time in fs
  (WPLASMAI=    0.000 imaginary part of plasma frequency in eV, 0.658/RTIME)
   DFIELD  = 0.0000000 0.0000000 0.0000000 field for delta impulse in time
 
 Orbital magnetization related:
   ORBITALMAG=     F  switch on orbital magnetization
   LCHIMAG   =     F  perturbation theory with respect to B field
   DQ        =  0.001000  dq finite difference perturbation B field
   LLRAUG    =     F  two centre corrections for induced B field



--------------------------------------------------------------------------------------------------------


 Static calculation
 charge density and potential will be updated during run
 non-spin polarized calculation
 Conjugate gradient for all bands (Freysoldt, et al. PRB 79, 241103 (2009))
 preconditioned conjugated gradient                                        
 perform sub-space diagonalisation
    before iterative eigenvector-optimisation
 modified Broyden-mixing scheme, WC =      100.0
 initial mixing is a Kerker type mixing with AMIX =  0.4000 and BMIX =      1.0000
 Hartree-type preconditioning will be used
 using additional bands           60
 reciprocal scheme for non local part
 use partial core corrections
 no Harris-corrections to forces 
 use gradient corrections 
 use of overlap-Matrix (Vanderbilt PP)
 Gauss-broadening in eV      SIGMA  =   0.01


--------------------------------------------------------------------------------------------------------


  energy-cutoff  :     1000.00
  volume of cell :     2631.08
      direct lattice vectors                 reciprocal lattice vectors
    12.325000000  0.000000000  0.000000000     0.081135903  0.046843835  0.000000000
    -6.162500000 10.673763102  0.000000000     0.000000000  0.093687670  0.000000000
     0.000000000  0.000000000 20.000000000     0.000000000  0.000000000  0.050000000

  length of vectors
    12.325000000 12.325000000 20.000000000     0.093687670  0.093687670  0.050000000


 
 k-points in units of 2pi/SCALE and weight: auto                                    
   0.00000000  0.00000000  0.00000000       1.000
 
 k-points in reciprocal lattice and weights: auto                                    
   0.00000000  0.00000000  0.00000000       1.000
 
 position of ions in fractional coordinates (direct lattice) 
   0.97245084  0.00032082  0.00070839
   0.03911838  0.13365950  0.00055022
   0.17244363  0.00029545  0.00062454
   0.23909628  0.13364792  0.00032058
   0.97245206  0.20032201  0.00060652
   0.03912836  0.33364377  0.00055519
   0.17245176  0.20035455  0.00027396
   0.23912436  0.33366572  0.00009033
   0.37246557  0.00032440  0.00056739
   0.43913747  0.13361994  0.00032292
   0.97244982  0.40030936  0.00068451
   0.03912498  0.53363679  0.00071676
   0.37241618  0.40032948  0.00000000
   0.43909960  0.53363898  0.00029052
   0.57244368  0.00031213  0.00069947
   0.63911021  0.13363175  0.00068409
   0.97245270  0.60030565  0.00080036
   0.03912449  0.73364036  0.00081814
   0.57243347  0.60030624  0.00050362
   0.63911189  0.73364188  0.00065988
   0.17245463  0.40031823  0.00036131
   0.23912018  0.53363655  0.00047314
   0.37245975  0.20029599  0.00011125
   0.43910710  0.33367342  0.00006970
   0.17245216  0.60031151  0.00065542
   0.23912337  0.73363857  0.00071891
   0.57243108  0.20028917  0.00051662
   0.63911277  0.33361863  0.00057797
   0.37243981  0.60030802  0.00045356
   0.43911609  0.73363786  0.00061774
   0.57246936  0.40032050  0.00042490
   0.63911941  0.53365087  0.00057451
   0.77244572  0.00031543  0.00074520
   0.83911628  0.13364020  0.00071913
   0.77244051  0.20030743  0.00072629
   0.83912024  0.33363573  0.00073183
   0.77244632  0.40029837  0.00072872
   0.83911898  0.53363396  0.00077638
   0.77245614  0.60030817  0.00074464
   0.83911503  0.73364318  0.00078939
   0.97245531  0.80030558  0.00081529
   0.03911471  0.93364329  0.00074756
   0.17245797  0.80031221  0.00077922
   0.23913455  0.93364719  0.00068106
   0.37245140  0.80031667  0.00068925
   0.43912449  0.93364477  0.00067679
   0.57244110  0.80031005  0.00066817
   0.63911507  0.93363899  0.00073456
   0.77244510  0.80031319  0.00075258
   0.83911661  0.93364434  0.00075854
   0.37302101  0.25122688  0.13243289
   0.42087980  0.18931315  0.13565398
   0.32515698  0.31316719  0.12946014
 
 position of ions in cartesian coordinates  (Angst):
  11.98347958  0.00342433  0.01416777
  -0.34154264  1.42664989  0.01100432
   2.12354700  0.00315355  0.01249070
   2.12325634  1.42652621  0.00641170
  10.75098721  2.13818970  0.01213047
  -1.57382270  3.56123457  0.01110375
   0.89078307  2.13853702  0.00547917
   0.89099273  3.56146885  0.00180651
   4.58863896  0.00346260  0.01134782
   4.58893648  1.42622757  0.00645846
   9.51853763  4.27280730  0.01369027
  -2.80632132  5.69591267  0.01433526
   2.12299894  4.27302204  0.00000000
   2.12335237  5.69593607  0.00581036
   7.05344483  0.00333155  0.01398950
   7.05352764  1.42635365  0.01368187
   8.28609598  6.40752033  0.01600723
  -4.03884931  7.83070339  0.01636283
   3.35585531  6.40752662  0.01007237
   3.35598594  7.83071962  0.01319763
  -0.34145776  4.27290193  0.00722612
  -0.34137895  5.69591010  0.00946273
   3.35624236  2.13791198  0.00222492
   3.35573251  3.56155103  0.00139405
  -1.57394684  6.40758280  0.01310850
  -1.57385216  7.83068434  0.01437823
   5.82093107  2.13783916  0.01033241
   5.82114012  3.56096622  0.01155939
   0.89092245  6.40754561  0.00907111
   0.89106251  7.83067670  0.01235474
   4.58870974  4.27292622  0.00849795
   4.58852320  5.69606300  0.01149026
   9.51844972  0.00336679  0.01490402
   9.51855036  1.42644387  0.01438264
   8.28593477  2.13803408  0.01452582
   8.28612680  3.56114872  0.01463668
   7.05356221  4.27268994  0.01457444
   7.05362213  5.69588251  0.01552751
   5.82112285  6.40754723  0.01489279
   5.82101669  7.83073350  0.01578780
   7.05362858  8.54227219  0.01630582
  -5.27148792  9.96548729  0.01495127
  -2.80637951  8.54234295  0.01558431
  -2.80626749  9.96552896  0.01362126
  -0.34148805  8.54239058  0.01378498
  -0.34137657  9.96550309  0.01353576
   2.12342586  8.54231992  0.01336337
   2.12354296  9.96544135  0.01469111
   4.58845581  8.54235337  0.01505154
   4.58852904  9.96549848  0.01517076
   3.04929830  2.68153618  2.64865774
   4.02070129  2.02068374  2.71307960
   2.07766701  3.34267235  2.58920287
 


--------------------------------------------------------------------------------------------------------


 k-point   1 :   0.0000 0.0000 0.0000  plane waves:  189031

 maximum and minimum number of plane-waves per node :    189031   189031

 maximum number of plane-waves:    189031
 maximum index in each direction: 
   IXMAX=   31   IYMAX=   31   IZMAX=   51
   IXMIN=  -31   IYMIN=  -31   IZMIN=  -51


 serial   3D FFT for wavefunctions
 parallel 3D FFT for charge:
    minimum data exchange during FFTs selected (reduces bandwidth)


 total amount of memory used by VASP MPI-rank0   441788. kBytes
=======================================================================

   base      :      30000. kBytes
   nonl-proj :     184518. kBytes
   fftplans  :      31725. kBytes
   grid      :     168095. kBytes
   one-center:        162. kBytes
   wavefun   :      27288. kBytes
 
     INWAV:  cpu time    0.0000: real time    0.0000
 Broyden mixing: mesh for mixing (old mesh)
   NGX = 63   NGY = 63   NGZ =103
  (NGX  =256   NGY  =256   NGZ  =420)
  gives a total of 408807 points

 initial charge density was supplied:
 charge density of overlapping atoms calculated
 number of electron     216.0000000 magnetization 
 keeping initial charge density in first step


--------------------------------------------------------------------------------------------------------


 Maximum index for augmentation-charges          459 (set IRDMAX)


--------------------------------------------------------------------------------------------------------


 First call to EWALD:  gamma=   0.128
 Maximum number of real-space cells 3x 3x 2
 Maximum number of reciprocal cells 3x 3x 4

    FEWALD:  cpu time    0.0023: real time    0.0023


--------------------------------------- Iteration      1(   1)  ---------------------------------------


    POTLOK:  cpu time    0.5704: real time    0.5757
    SETDIJ:  cpu time    0.0043: real time    0.0044
    TRIAL :  cpu time   12.0097: real time   12.1131
    CORREC:  cpu time    0.0007: real time    0.0008
    --------------------------------------------
      LOOP:  cpu time   12.5986: real time   12.7163

 eigenvalue-minimisations  :   336
 total energy-change (2. order) : 0.2492242E+04  (-0.1172988E+05)
 number of electron     216.0000000 magnetization 
 augmentation part      216.0000000 magnetization 

 Free energy of the ion-electron system (eV)
  ---------------------------------------------------
  alpha Z        PSCENC =        59.93625244
  Ewald energy   TEWEN  =     35168.46738301
  -Hartree energ DENC   =    -41341.79949817
  -exchange      EXHF   =         0.00000000
  -V(xc)+E(xc)   XCENC  =       421.45650469
  PAW double counting   =      6525.96553977    -6260.36035765
  entropy T*S    EENTRO =        -0.00000001
  eigenvalues    EBANDS =      -450.94765915
  atomic energy  EATOM  =      8369.52358910
  ---------------------------------------------------
  free energy    TOTEN  =      2492.24175404 eV

  energy without entropy =     2492.24175404  energy(sigma->0) =     2492.24175404


--------------------------------------------------------------------------------------------------------




--------------------------------------- Iteration      1(   2)  ---------------------------------------


    TRIAL :  cpu time   17.9973: real time   18.2016
    CORREC:  cpu time    0.0001: real time    0.0001
    --------------------------------------------
      LOOP:  cpu time   18.0224: real time   18.2292

 eigenvalue-minimisations  :   560
 total energy-change (2. order) :-0.2403861E+04  (-0.2265513E+04)
 number of electron     216.0000000 magnetization 
 augmentation part      216.0000000 magnetization 

 Free energy of the ion-electron system (eV)
  ---------------------------------------------------
  alpha Z        PSCENC =        59.93625244
  Ewald energy   TEWEN  =     35168.46738301
  -Hartree energ DENC   =    -41341.79949817
  -exchange      EXHF   =         0.00000000
  -V(xc)+E(xc)   XCENC  =       421.45650469
  PAW double counting   =      6525.96553977    -6260.36035765
  entropy T*S    EENTRO =        -0.00000000
  eigenvalues    EBANDS =     -2854.80880708
  atomic energy  EATOM  =      8369.52358910
  ---------------------------------------------------
  free energy    TOTEN  =        88.38060612 eV

  energy without entropy =       88.38060612  energy(sigma->0) =       88.38060612


--------------------------------------------------------------------------------------------------------




--------------------------------------- Iteration      1(   3)  ---------------------------------------


    TRIAL :  cpu time   13.4890: real time   13.6098
    CORREC:  cpu time    0.0001: real time    0.0001
    --------------------------------------------
      LOOP:  cpu time   13.5366: real time   13.6875

 eigenvalue-minimisations  :   392
 total energy-change (2. order) :-0.5759629E+03  (-0.5729535E+03)
 number of electron     216.0000000 magnetization 
 augmentation part      216.0000000 magnetization 

 Free energy of the ion-electron system (eV)
  ---------------------------------------------------
  alpha Z        PSCENC =        59.93625244
  Ewald energy   TEWEN  =     35168.46738301
  -Hartree energ DENC   =    -41341.79949817
  -exchange      EXHF   =         0.00000000
  -V(xc)+E(xc)   XCENC  =       421.45650469
  PAW double counting   =      6525.96553977    -6260.36035765
  entropy T*S    EENTRO =        -0.00000000
  eigenvalues    EBANDS =     -3430.77173365
  atomic energy  EATOM  =      8369.52358910
  ---------------------------------------------------
  free energy    TOTEN  =      -487.58232045 eV

  energy without entropy =     -487.58232045  energy(sigma->0) =     -487.58232045


--------------------------------------------------------------------------------------------------------




--------------------------------------- Iteration      1(   4)  ---------------------------------------


    TRIAL :  cpu time   14.9937: real time   15.1221
    CORREC:  cpu time    0.0001: real time    0.0001
    --------------------------------------------
      LOOP:  cpu time   15.0918: real time   15.2246

 eigenvalue-minimisations  :   448
 total energy-change (2. order) :-0.2873743E+02  (-0.2853389E+02)
 number of electron     216.0000000 magnetization 
 augmentation part      216.0000000 magnetization 

 Free energy of the ion-electron system (eV)
  ---------------------------------------------------
  alpha Z        PSCENC =        59.93625244
  Ewald energy   TEWEN  =     35168.46738301
  -Hartree energ DENC   =    -41341.79949817
  -exchange      EXHF   =         0.00000000
  -V(xc)+E(xc)   XCENC  =       421.45650469
  PAW double counting   =      6525.96553977    -6260.36035765
  entropy T*S    EENTRO =        -0.00000000
  eigenvalues    EBANDS =     -3459.50916073
  atomic energy  EATOM  =      8369.52358910
  ---------------------------------------------------
  free energy    TOTEN  =      -516.31974754 eV

  energy without entropy =     -516.31974754  energy(sigma->0) =     -516.31974754


--------------------------------------------------------------------------------------------------------




--------------------------------------- Iteration      1(   5)  ---------------------------------------


    TRIAL :  cpu time   14.9275: real time   15.1226
    CORREC:  cpu time    0.0001: real time    0.0001
    CHARGE:  cpu time    0.6174: real time    0.6224
    --------------------------------------------
      LOOP:  cpu time   15.5687: real time   15.7980

 eigenvalue-minimisations  :   448
 total energy-change (2. order) :-0.1078006E+01  (-0.1072888E+01)
 number of electron     216.0000000 magnetization 
 augmentation part       -0.2780053 magnetization 

 Free energy of the ion-electron system (eV)
  ---------------------------------------------------
  alpha Z        PSCENC =        59.93625244
  Ewald energy   TEWEN  =     35168.46738301
  -Hartree energ DENC   =    -41341.79949817
  -exchange      EXHF   =         0.00000000
  -V(xc)+E(xc)   XCENC  =       421.45650469
  PAW double counting   =      6525.96553977    -6260.36035765
  entropy T*S    EENTRO =        -0.00000000
  eigenvalues    EBANDS =     -3460.58716673
  atomic energy  EATOM  =      8369.52358910
  ---------------------------------------------------
  free energy    TOTEN  =      -517.39775353 eV

  energy without entropy =     -517.39775353  energy(sigma->0) =     -517.39775353


--------------------------------------------------------------------------------------------------------




--------------------------------------- Iteration      1(   6)  ---------------------------------------


    POTLOK:  cpu time    0.5440: real time    0.5476
    SETDIJ:  cpu time    0.0101: real time    0.0101
    TRIAL :  cpu time    5.3910: real time    5.4415
    CORREC:  cpu time    1.7245: real time    1.7380
    CHARGE:  cpu time    0.6132: real time    0.6175
    --------------------------------------------
      LOOP:  cpu time    8.3254: real time    8.4046

 eigenvalue-minimisations  :     0
 total energy-change (2. order) : 0.5081158E+02  (-0.1521262E+02)
 number of electron     216.0000000 magnetization 
 augmentation part       -0.3770881 magnetization 

 Free energy of the ion-electron system (eV)
  ---------------------------------------------------
  alpha Z        PSCENC =        59.93625244
  Ewald energy   TEWEN  =     35168.46738301
  -Hartree energ DENC   =    -42754.44283313
  -exchange      EXHF   =         0.00000000
  -V(xc)+E(xc)   XCENC  =       469.08754227
  PAW double counting   =     90323.72941760   -90066.36469903
  entropy T*S    EENTRO =        -0.00000000
  eigenvalues    EBANDS =     -2036.52282586
  atomic energy  EATOM  =      8369.52358910
  ---------------------------------------------------
  free energy    TOTEN  =      -466.58617360 eV

  energy without entropy =     -466.58617360  energy(sigma->0) =     -466.58617360


--------------------------------------------------------------------------------------------------------




--------------------------------------- Iteration      1(   7)  ---------------------------------------


    POTLOK:  cpu time    0.5429: real time    0.5471
    SETDIJ:  cpu time    0.0111: real time    0.0112
    TRIAL :  cpu time    5.3926: real time    5.4440
    CORREC:  cpu time    1.7193: real time    1.7333
    CHARGE:  cpu time    0.6124: real time    0.6171
    --------------------------------------------
      LOOP:  cpu time    8.3243: real time    8.4280

 eigenvalue-minimisations  :     0
 total energy-change (2. order) :-0.1523229E+02  (-0.1753950E+01)
 number of electron     216.0000000 magnetization 
 augmentation part       -0.4234989 magnetization 

 Free energy of the ion-electron system (eV)
  ---------------------------------------------------
  alpha Z        PSCENC =        59.93625244
  Ewald energy   TEWEN  =     35168.46738301
  -Hartree energ DENC   =    -42260.37325105
  -exchange      EXHF   =         0.00000000
  -V(xc)+E(xc)   XCENC  =       452.70323910
  PAW double counting   =    106688.22191760  -106428.05926228
  entropy T*S    EENTRO =        -0.00000000
  eigenvalues    EBANDS =     -2532.23833003
  atomic energy  EATOM  =      8369.52358910
  ---------------------------------------------------
  free energy    TOTEN  =      -481.81846211 eV

  energy without entropy =     -481.81846211  energy(sigma->0) =     -481.81846211


--------------------------------------------------------------------------------------------------------




--------------------------------------- Iteration      1(   8)  ---------------------------------------


    POTLOK:  cpu time    0.5428: real time    0.5465
    SETDIJ:  cpu time    0.0111: real time    0.0111
    TRIAL :  cpu time    5.3846: real time    5.4371
    CORREC:  cpu time    1.7210: real time    1.7340
    CHARGE:  cpu time    0.6117: real time    0.6167
    --------------------------------------------
      LOOP:  cpu time    8.3729: real time    8.5140

 eigenvalue-minimisations  :     0
 total energy-change (2. order) :-0.1755001E+01  (-0.4971462E+00)
 number of electron     216.0000000 magnetization 
 augmentation part       -0.4358734 magnetization 

 Free energy of the ion-electron system (eV)
  ---------------------------------------------------
  alpha Z        PSCENC =        59.93625244
  Ewald energy   TEWEN  =     35168.46738301
  -Hartree energ DENC   =    -42241.23827409
  -exchange      EXHF   =         0.00000000
  -V(xc)+E(xc)   XCENC  =       452.11241980
  PAW double counting   =    111093.56659542  -110832.99420585
  entropy T*S    EENTRO =        -0.00000000
  eigenvalues    EBANDS =     -2552.94722325
  atomic energy  EATOM  =      8369.52358910
  ---------------------------------------------------
  free energy    TOTEN  =      -483.57346342 eV

  energy without entropy =     -483.57346342  energy(sigma->0) =     -483.57346342


--------------------------------------------------------------------------------------------------------




--------------------------------------- Iteration      1(   9)  ---------------------------------------


    POTLOK:  cpu time    0.5547: real time    0.5584
    SETDIJ:  cpu time    0.0111: real time    0.0111
    TRIAL :  cpu time    5.3797: real time    5.4405
    CORREC:  cpu time    1.7200: real time    1.7354
    CHARGE:  cpu time    0.6117: real time    0.6159
    --------------------------------------------
      LOOP:  cpu time    8.3397: real time    8.4261

 eigenvalue-minimisations  :     0
 total energy-change (2. order) :-0.4969106E+00  (-0.1841521E+00)
 number of electron     216.0000000 magnetization 
 augmentation part       -0.4398723 magnetization 

 Free energy of the ion-electron system (eV)
  ---------------------------------------------------
  alpha Z        PSCENC =        59.93625244
  Ewald energy   TEWEN  =     35168.46738301
  -Hartree energ DENC   =    -42251.14879395
  -exchange      EXHF   =         0.00000000
  -V(xc)+E(xc)   XCENC  =       452.14418682
  PAW double counting   =    113754.47849832  -113493.75171298
  entropy T*S    EENTRO =        -0.00000000
  eigenvalues    EBANDS =     -2543.71977679
  atomic energy  EATOM  =      8369.52358910
  ---------------------------------------------------
  free energy    TOTEN  =      -484.07037404 eV

  energy without entropy =     -484.07037404  energy(sigma->0) =     -484.07037404


--------------------------------------------------------------------------------------------------------




--------------------------------------- Iteration      1(  10)  ---------------------------------------


    POTLOK:  cpu time    0.5445: real time    0.5483
    SETDIJ:  cpu time    0.0112: real time    0.0112
    TRIAL :  cpu time    5.3927: real time    5.4391
    CORREC:  cpu time    1.7230: real time    1.7361
    CHARGE:  cpu time    0.6094: real time    0.6161
    --------------------------------------------
      LOOP:  cpu time    8.3343: real time    8.4068

 eigenvalue-minimisations  :     0
 total energy-change (2. order) :-0.1837297E+00  (-0.8190144E-01)
 number of electron     216.0000000 magnetization 
 augmentation part       -0.4386204 magnetization 

 Free energy of the ion-electron system (eV)
  ---------------------------------------------------
  alpha Z        PSCENC =        59.93625244
  Ewald energy   TEWEN  =     35168.46738301
  -Hartree energ DENC   =    -42247.76449435
  -exchange      EXHF   =         0.00000000
  -V(xc)+E(xc)   XCENC  =       451.99678618
  PAW double counting   =    114023.11651280  -113762.31457078
  entropy T*S    EENTRO =        -0.00000000
  eigenvalues    EBANDS =     -2547.21556215
  atomic energy  EATOM  =      8369.52358910
  ---------------------------------------------------
  free energy    TOTEN  =      -484.25410375 eV

  energy without entropy =     -484.25410375  energy(sigma->0) =     -484.25410375


--------------------------------------------------------------------------------------------------------




--------------------------------------- Iteration      1(  11)  ---------------------------------------


    POTLOK:  cpu time    0.5434: real time    0.5470
    SETDIJ:  cpu time    0.0111: real time    0.0111
    TRIAL :  cpu time    5.3910: real time    5.4388
    CORREC:  cpu time    1.7222: real time    1.7355
    CHARGE:  cpu time    0.6112: real time    0.6155
    --------------------------------------------
      LOOP:  cpu time    8.3658: real time    8.4358

 eigenvalue-minimisations  :     0
 total energy-change (2. order) :-0.8147282E-01  (-0.3084748E-01)
 number of electron     216.0000000 magnetization 
 augmentation part       -0.4370909 magnetization 

 Free energy of the ion-electron system (eV)
  ---------------------------------------------------
  alpha Z        PSCENC =        59.93625244
  Ewald energy   TEWEN  =     35168.46738301
  -Hartree energ DENC   =    -42240.64786543
  -exchange      EXHF   =         0.00000000
  -V(xc)+E(xc)   XCENC  =       451.87861252
  PAW double counting   =    113311.32779816  -113050.53627025
  entropy T*S    EENTRO =        -0.00000000
  eigenvalues    EBANDS =     -2554.28507612
  atomic energy  EATOM  =      8369.52358910
  ---------------------------------------------------
  free energy    TOTEN  =      -484.33557657 eV

  energy without entropy =     -484.33557657  energy(sigma->0) =     -484.33557657


--------------------------------------------------------------------------------------------------------




--------------------------------------- Iteration      1(  12)  ---------------------------------------


    POTLOK:  cpu time    0.5451: real time    0.5486
    SETDIJ:  cpu time    0.0110: real time    0.0110
    TRIAL :  cpu time    5.3856: real time    5.4356
    CORREC:  cpu time    1.7115: real time    1.7266
    CHARGE:  cpu time    0.6058: real time    0.6101
    --------------------------------------------
      LOOP:  cpu time    8.3621: real time    8.4590

 eigenvalue-minimisations  :     0
 total energy-change (2. order) :-0.3075655E-01  (-0.9328204E-02)
 number of electron     216.0000000 magnetization 
 augmentation part       -0.4368410 magnetization 

 Free energy of the ion-electron system (eV)
  ---------------------------------------------------
  alpha Z        PSCENC =        59.93625244
  Ewald energy   TEWEN  =     35168.46738301
  -Hartree energ DENC   =    -42236.86034975
  -exchange      EXHF   =         0.00000000
  -V(xc)+E(xc)   XCENC  =       451.80958556
  PAW double counting   =    112829.16954951  -112568.40499346
  entropy T*S    EENTRO =        -0.00000000
  eigenvalues    EBANDS =     -2558.00734954
  atomic energy  EATOM  =      8369.52358910
  ---------------------------------------------------
  free energy    TOTEN  =      -484.36633312 eV

  energy without entropy =     -484.36633312  energy(sigma->0) =     -484.36633312


--------------------------------------------------------------------------------------------------------




--------------------------------------- Iteration      1(  13)  ---------------------------------------


    POTLOK:  cpu time    0.5441: real time    0.5476
    SETDIJ:  cpu time    0.0110: real time    0.0111
    TRIAL :  cpu time    5.3780: real time    5.4395
    CORREC:  cpu time    1.7134: real time    1.7268
    CHARGE:  cpu time    0.6121: real time    0.6185
    --------------------------------------------
      LOOP:  cpu time    8.3144: real time    8.4013

 eigenvalue-minimisations  :     0
 total energy-change (2. order) :-0.9319291E-02  (-0.2487912E-02)
 number of electron     216.0000000 magnetization 
 augmentation part       -0.4365478 magnetization 

 Free energy of the ion-electron system (eV)
  ---------------------------------------------------
  alpha Z        PSCENC =        59.93625244
  Ewald energy   TEWEN  =     35168.46738301
  -Hartree energ DENC   =    -42235.92868705
  -exchange      EXHF   =         0.00000000
  -V(xc)+E(xc)   XCENC  =       451.78059699
  PAW double counting   =    112701.99229861  -112441.23731805
  entropy T*S    EENTRO =        -0.00000000
  eigenvalues    EBANDS =     -2558.90976747
  atomic energy  EATOM  =      8369.52358910
  ---------------------------------------------------
  free energy    TOTEN  =      -484.37565241 eV

  energy without entropy =     -484.37565241  energy(sigma->0) =     -484.37565241


--------------------------------------------------------------------------------------------------------




--------------------------------------- Iteration      1(  14)  ---------------------------------------


    POTLOK:  cpu time    0.5368: real time    0.5403
    SETDIJ:  cpu time    0.0112: real time    0.0113
    TRIAL :  cpu time    5.3783: real time    5.4333
    CORREC:  cpu time    1.7106: real time    1.7262
    CHARGE:  cpu time    0.6102: real time    0.6150
    --------------------------------------------
      LOOP:  cpu time    8.3501: real time    8.4307

 eigenvalue-minimisations  :     0
 total energy-change (2. order) :-0.2487563E-02  (-0.6375535E-03)
 number of electron     216.0000000 magnetization 
 augmentation part       -0.4363387 magnetization 

 Free energy of the ion-electron system (eV)
  ---------------------------------------------------
  alpha Z        PSCENC =        59.93625244
  Ewald energy   TEWEN  =     35168.46738301
  -Hartree energ DENC   =    -42235.89852806
  -exchange      EXHF   =         0.00000000
  -V(xc)+E(xc)   XCENC  =       451.77995012
  PAW double counting   =    112726.87393102  -112466.12224443
  entropy T*S    EENTRO =        -0.00000000
  eigenvalues    EBANDS =     -2558.93847318
  atomic energy  EATOM  =      8369.52358910
  ---------------------------------------------------
  free energy    TOTEN  =      -484.37813998 eV

  energy without entropy =     -484.37813998  energy(sigma->0) =     -484.37813998


--------------------------------------------------------------------------------------------------------




--------------------------------------- Iteration      1(  15)  ---------------------------------------


    POTLOK:  cpu time    0.5394: real time    0.5441
    SETDIJ:  cpu time    0.0109: real time    0.0110
    TRIAL :  cpu time    5.3925: real time    5.4419
    CORREC:  cpu time    1.6965: real time    1.7204
    CHARGE:  cpu time    0.6095: real time    0.6166
    --------------------------------------------
      LOOP:  cpu time    8.2859: real time    8.3749

 eigenvalue-minimisations  :     0
 total energy-change (2. order) :-0.6383571E-03  (-0.1966520E-03)
 number of electron     216.0000000 magnetization 
 augmentation part       -0.4361600 magnetization 

 Free energy of the ion-electron system (eV)
  ---------------------------------------------------
  alpha Z        PSCENC =        59.93625244
  Ewald energy   TEWEN  =     35168.46738301
  -Hartree energ DENC   =    -42235.71921149
  -exchange      EXHF   =         0.00000000
  -V(xc)+E(xc)   XCENC  =       451.77453544
  PAW double counting   =    112754.54404564  -112493.79199476
  entropy T*S    EENTRO =        -0.00000000
  eigenvalues    EBANDS =     -2559.11337771
  atomic energy  EATOM  =      8369.52358910
  ---------------------------------------------------
  free energy    TOTEN  =      -484.37877833 eV

  energy without entropy =     -484.37877833  energy(sigma->0) =     -484.37877833


--------------------------------------------------------------------------------------------------------




--------------------------------------- Iteration      1(  16)  ---------------------------------------


    POTLOK:  cpu time    0.5336: real time    0.5371
    SETDIJ:  cpu time    0.0112: real time    0.0112
    TRIAL :  cpu time    5.3841: real time    5.4381
    CORREC:  cpu time    1.7139: real time    1.7304
    CHARGE:  cpu time    0.6096: real time    0.6138
    --------------------------------------------
      LOOP:  cpu time    8.3358: real time    8.4148

 eigenvalue-minimisations  :     0
 total energy-change (2. order) :-0.1975282E-03  (-0.6730585E-04)
 number of electron     216.0000000 magnetization 
 augmentation part       -0.4360030 magnetization 

 Free energy of the ion-electron system (eV)
  ---------------------------------------------------
  alpha Z        PSCENC =        59.93625244
  Ewald energy   TEWEN  =     35168.46738301
  -Hartree energ DENC   =    -42235.77205096
  -exchange      EXHF   =         0.00000000
  -V(xc)+E(xc)   XCENC  =       451.77478427
  PAW double counting   =    112747.98814308  -112487.23587815
  entropy T*S    EENTRO =        -0.00000000
  eigenvalues    EBANDS =     -2559.06119865
  atomic energy  EATOM  =      8369.52358910
  ---------------------------------------------------
  free energy    TOTEN  =      -484.37897586 eV

  energy without entropy =     -484.37897586  energy(sigma->0) =     -484.37897586


--------------------------------------------------------------------------------------------------------




--------------------------------------- Iteration      1(  17)  ---------------------------------------


    POTLOK:  cpu time    0.5371: real time    0.5406
    SETDIJ:  cpu time    0.0110: real time    0.0111
    TRIAL :  cpu time    5.3572: real time    5.4360
    CORREC:  cpu time    1.7204: real time    1.7336
    CHARGE:  cpu time    0.6103: real time    0.6146
    --------------------------------------------
      LOOP:  cpu time    8.2725: real time    8.3738

 eigenvalue-minimisations  :     0
 total energy-change (2. order) :-0.6783151E-04  (-0.2613028E-04)
 number of electron     216.0000000 magnetization 
 augmentation part       -0.4359880 magnetization 

 Free energy of the ion-electron system (eV)
  ---------------------------------------------------
  alpha Z        PSCENC =        59.93625244
  Ewald energy   TEWEN  =     35168.46738301
  -Hartree energ DENC   =    -42235.97932072
  -exchange      EXHF   =         0.00000000
  -V(xc)+E(xc)   XCENC  =       451.78060034
  PAW double counting   =    112731.42946223  -112470.67778099
  entropy T*S    EENTRO =        -0.00000000
  eigenvalues    EBANDS =     -2558.85922910
  atomic energy  EATOM  =      8369.52358910
  ---------------------------------------------------
  free energy    TOTEN  =      -484.37904369 eV

  energy without entropy =     -484.37904369  energy(sigma->0) =     -484.37904369


--------------------------------------------------------------------------------------------------------




--------------------------------------- Iteration      1(  18)  ---------------------------------------


    POTLOK:  cpu time    0.5373: real time    0.5409
    SETDIJ:  cpu time    0.0110: real time    0.0111
    TRIAL :  cpu time    5.3936: real time    5.4414
    CORREC:  cpu time    1.7133: real time    1.7265
    CHARGE:  cpu time    0.6126: real time    0.6168
    --------------------------------------------
      LOOP:  cpu time    8.3373: real time    8.4078

 eigenvalue-minimisations  :     0
 total energy-change (2. order) :-0.2640902E-04  (-0.1008028E-04)
 number of electron     216.0000000 magnetization 
 augmentation part       -0.4360172 magnetization 

 Free energy of the ion-electron system (eV)
  ---------------------------------------------------
  alpha Z        PSCENC =        59.93625244
  Ewald energy   TEWEN  =     35168.46738301
  -Hartree energ DENC   =    -42236.01258766
  -exchange      EXHF   =         0.00000000
  -V(xc)+E(xc)   XCENC  =       451.78065447
  PAW double counting   =    112727.02475883  -112466.27266996
  entropy T*S    EENTRO =        -0.00000000
  eigenvalues    EBANDS =     -2558.82645034
  atomic energy  EATOM  =      8369.52358910
  ---------------------------------------------------
  free energy    TOTEN  =      -484.37907010 eV

  energy without entropy =     -484.37907010  energy(sigma->0) =     -484.37907010


--------------------------------------------------------------------------------------------------------




--------------------------------------- Iteration      1(  19)  ---------------------------------------


    POTLOK:  cpu time    0.5353: real time    0.5390
    SETDIJ:  cpu time    0.0110: real time    0.0110
    TRIAL :  cpu time    5.3865: real time    5.4357
    CORREC:  cpu time    1.7107: real time    1.7241
    CHARGE:  cpu time    0.6094: real time    0.6136
    --------------------------------------------
      LOOP:  cpu time    8.2883: real time    8.3882

 eigenvalue-minimisations  :     0
 total energy-change (2. order) :-0.9979150E-05  (-0.3977504E-05)
 number of electron     216.0000000 magnetization 
 augmentation part       -0.4360497 magnetization 

 Free energy of the ion-electron system (eV)
  ---------------------------------------------------
  alpha Z        PSCENC =        59.93625244
  Ewald energy   TEWEN  =     35168.46738301
  -Hartree energ DENC   =    -42236.03993693
  -exchange      EXHF   =         0.00000000
  -V(xc)+E(xc)   XCENC  =       451.78133044
  PAW double counting   =    112732.75666463  -112472.00435019
  entropy T*S    EENTRO =        -0.00000000
  eigenvalues    EBANDS =     -2558.80001257
  atomic energy  EATOM  =      8369.52358910
  ---------------------------------------------------
  free energy    TOTEN  =      -484.37908008 eV

  energy without entropy =     -484.37908008  energy(sigma->0) =     -484.37908008


--------------------------------------------------------------------------------------------------------




--------------------------------------- Iteration      1(  20)  ---------------------------------------


    POTLOK:  cpu time    0.5413: real time    0.5502
    SETDIJ:  cpu time    0.0107: real time    0.0107
    TRIAL :  cpu time    5.3676: real time    5.4363
    CORREC:  cpu time    1.7037: real time    1.7248
    CHARGE:  cpu time    0.6063: real time    0.6160
    --------------------------------------------
      LOOP:  cpu time    8.2610: real time    8.3922

 eigenvalue-minimisations  :     0
 total energy-change (2. order) :-0.3714667E-05  (-0.1467839E-05)
 number of electron     216.0000000 magnetization 
 augmentation part       -0.4360675 magnetization 

 Free energy of the ion-electron system (eV)
  ---------------------------------------------------
  alpha Z        PSCENC =        59.93625244
  Ewald energy   TEWEN  =     35168.46738301
  -Hartree energ DENC   =    -42236.06565970
  -exchange      EXHF   =         0.00000000
  -V(xc)+E(xc)   XCENC  =       451.78202132
  PAW double counting   =    112738.76125656  -112478.00886839
  entropy T*S    EENTRO =        -0.00000000
  eigenvalues    EBANDS =     -2558.77505814
  atomic energy  EATOM  =      8369.52358910
  ---------------------------------------------------
  free energy    TOTEN  =      -484.37908380 eV

  energy without entropy =     -484.37908380  energy(sigma->0) =     -484.37908380


--------------------------------------------------------------------------------------------------------




--------------------------------------- Iteration      1(  21)  ---------------------------------------


    POTLOK:  cpu time    0.5343: real time    0.5377
    SETDIJ:  cpu time    0.0109: real time    0.0110
    TRIAL :  cpu time    5.3898: real time    5.4398
    CORREC:  cpu time    1.7095: real time    1.7222
    CHARGE:  cpu time    0.6096: real time    0.6139
    --------------------------------------------
      LOOP:  cpu time    8.3403: real time    8.4125

 eigenvalue-minimisations  :     0
 total energy-change (2. order) :-0.1287975E-05  (-0.6334552E-06)
 number of electron     216.0000000 magnetization 
 augmentation part       -0.4360618 magnetization 

 Free energy of the ion-electron system (eV)
  ---------------------------------------------------
  alpha Z        PSCENC =        59.93625244
  Ewald energy   TEWEN  =     35168.46738301
  -Hartree energ DENC   =    -42236.05894572
  -exchange      EXHF   =         0.00000000
  -V(xc)+E(xc)   XCENC  =       451.78162065
  PAW double counting   =    112740.06318706  -112479.31075632
  entropy T*S    EENTRO =        -0.00000000
  eigenvalues    EBANDS =     -2558.78141531
  atomic energy  EATOM  =      8369.52358910
  ---------------------------------------------------
  free energy    TOTEN  =      -484.37908509 eV

  energy without entropy =     -484.37908509  energy(sigma->0) =     -484.37908509


--------------------------------------------------------------------------------------------------------




--------------------------------------- Iteration      1(  22)  ---------------------------------------


    POTLOK:  cpu time    0.5347: real time    0.5381
    SETDIJ:  cpu time    0.0111: real time    0.0111
    TRIAL :  cpu time    5.3864: real time    5.4313
    CORREC:  cpu time    1.7056: real time    1.7204
    CHARGE:  cpu time    0.6088: real time    0.6131
    --------------------------------------------
      LOOP:  cpu time    8.3148: real time    8.4029

 eigenvalue-minimisations  :     0
 total energy-change (2. order) :-0.5325564E-06  (-0.2558689E-06)
 number of electron     216.0000000 magnetization 
 augmentation part       -0.4360628 magnetization 

 Free energy of the ion-electron system (eV)
  ---------------------------------------------------
  alpha Z        PSCENC =        59.93625244
  Ewald energy   TEWEN  =     35168.46738301
  -Hartree energ DENC   =    -42236.05687848
  -exchange      EXHF   =         0.00000000
  -V(xc)+E(xc)   XCENC  =       451.78173999
  PAW double counting   =    112738.47453698  -112477.72222708
  entropy T*S    EENTRO =        -0.00000000
  eigenvalues    EBANDS =     -2558.78348158
  atomic energy  EATOM  =      8369.52358910
  ---------------------------------------------------
  free energy    TOTEN  =      -484.37908562 eV

  energy without entropy =     -484.37908562  energy(sigma->0) =     -484.37908562


--------------------------------------------------------------------------------------------------------




--------------------------------------- Iteration      1(  23)  ---------------------------------------


    POTLOK:  cpu time    0.5330: real time    0.5365
    SETDIJ:  cpu time    0.0108: real time    0.0109
    TRIAL :  cpu time    5.4008: real time    5.4523
    CORREC:  cpu time    1.7074: real time    1.7209
    CHARGE:  cpu time    0.6098: real time    0.6148
    --------------------------------------------
      LOOP:  cpu time    8.3473: real time    8.4228

 eigenvalue-minimisations  :     0
 total energy-change (2. order) :-0.2131274E-06  (-0.1446389E-06)
 number of electron     216.0000000 magnetization 
 augmentation part       -0.4360604 magnetization 

 Free energy of the ion-electron system (eV)
  ---------------------------------------------------
  alpha Z        PSCENC =        59.93625244
  Ewald energy   TEWEN  =     35168.46738301
  -Hartree energ DENC   =    -42236.04695275
  -exchange      EXHF   =         0.00000000
  -V(xc)+E(xc)   XCENC  =       451.78138264
  PAW double counting   =    112737.11747325  -112476.36514769
  entropy T*S    EENTRO =        -0.00000000
  eigenvalues    EBANDS =     -2558.79306583
  atomic energy  EATOM  =      8369.52358910
  ---------------------------------------------------
  free energy    TOTEN  =      -484.37908583 eV

  energy without entropy =     -484.37908583  energy(sigma->0) =     -484.37908583


--------------------------------------------------------------------------------------------------------




--------------------------------------- Iteration      1(  24)  ---------------------------------------


    POTLOK:  cpu time    0.5382: real time    0.5436
    SETDIJ:  cpu time    0.0109: real time    0.0110
    TRIAL :  cpu time    5.3731: real time    5.4312
    CORREC:  cpu time    1.7127: real time    1.7258
    CHARGE:  cpu time    0.6089: real time    0.6131
    --------------------------------------------
      LOOP:  cpu time    8.2921: real time    8.3775

 eigenvalue-minimisations  :     0
 total energy-change (2. order) :-0.8038478E-07  (-0.1447893E-06)
 number of electron     216.0000000 magnetization 
 augmentation part       -0.4360665 magnetization 

 Free energy of the ion-electron system (eV)
  ---------------------------------------------------
  alpha Z        PSCENC =        59.93625244
  Ewald energy   TEWEN  =     35168.46738301
  -Hartree energ DENC   =    -42236.04431981
  -exchange      EXHF   =         0.00000000
  -V(xc)+E(xc)   XCENC  =       451.78145367
  PAW double counting   =    112736.44606332  -112475.69376186
  entropy T*S    EENTRO =        -0.00000000
  eigenvalues    EBANDS =     -2558.79574577
  atomic energy  EATOM  =      8369.52358910
  ---------------------------------------------------
  free energy    TOTEN  =      -484.37908591 eV

  energy without entropy =     -484.37908591  energy(sigma->0) =     -484.37908591


--------------------------------------------------------------------------------------------------------




--------------------------------------- Iteration      1(  25)  ---------------------------------------


    POTLOK:  cpu time    0.5354: real time    0.5389
    SETDIJ:  cpu time    0.0108: real time    0.0108
    TRIAL :  cpu time    5.3926: real time    5.4422
    CORREC:  cpu time    1.7095: real time    1.7227
    CHARGE:  cpu time    0.6097: real time    0.6140
    --------------------------------------------
      LOOP:  cpu time    8.3154: real time    8.3869

 eigenvalue-minimisations  :     0
 total energy-change (2. order) : 0.2544548E-06  (-0.2566510E-06)
 number of electron     216.0000000 magnetization 
 augmentation part       -0.4360623 magnetization 

 Free energy of the ion-electron system (eV)
  ---------------------------------------------------
  alpha Z        PSCENC =        59.93625244
  Ewald energy   TEWEN  =     35168.46738301
  -Hartree energ DENC   =    -42236.03888887
  -exchange      EXHF   =         0.00000000
  -V(xc)+E(xc)   XCENC  =       451.78128342
  PAW double counting   =    112736.30358029  -112475.55121153
  entropy T*S    EENTRO =        -0.00000000
  eigenvalues    EBANDS =     -2558.80107351
  atomic energy  EATOM  =      8369.52358910
  ---------------------------------------------------
  free energy    TOTEN  =      -484.37908566 eV

  energy without entropy =     -484.37908566  energy(sigma->0) =     -484.37908566


--------------------------------------------------------------------------------------------------------




--------------------------------------- Iteration      1(  26)  ---------------------------------------


    POTLOK:  cpu time    0.5344: real time    0.5378
    SETDIJ:  cpu time    0.0109: real time    0.0109
    TRIAL :  cpu time    5.3951: real time    5.4441
    CORREC:  cpu time    1.7142: real time    1.7280
    CHARGE:  cpu time    0.6119: real time    0.6159
    --------------------------------------------
      LOOP:  cpu time    8.3459: real time    8.4307

 eigenvalue-minimisations  :     0
 total energy-change (2. order) :-0.2409361E-06  (-0.9658779E-07)
 number of electron     216.0000000 magnetization 
 augmentation part       -0.4360625 magnetization 

 Free energy of the ion-electron system (eV)
  ---------------------------------------------------
  alpha Z        PSCENC =        59.93625244
  Ewald energy   TEWEN  =     35168.46738301
  -Hartree energ DENC   =    -42236.04080835
  -exchange      EXHF   =         0.00000000
  -V(xc)+E(xc)   XCENC  =       451.78141648
  PAW double counting   =    112736.31920537  -112475.56687376
  entropy T*S    EENTRO =        -0.00000000
  eigenvalues    EBANDS =     -2558.79925019
  atomic energy  EATOM  =      8369.52358910
  ---------------------------------------------------
  free energy    TOTEN  =      -484.37908590 eV

  energy without entropy =     -484.37908590  energy(sigma->0) =     -484.37908590


--------------------------------------------------------------------------------------------------------




--------------------------------------- Iteration      1(  27)  ---------------------------------------


    POTLOK:  cpu time    0.5330: real time    0.5364
    SETDIJ:  cpu time    0.0107: real time    0.0107
    TRIAL :  cpu time    5.3431: real time    5.4357
    CORREC:  cpu time    1.7067: real time    1.7240
    EDDIAG:  cpu time    0.8481: real time    0.8572
    CHARGE:  cpu time    0.6095: real time    0.6153
    --------------------------------------------
      LOOP:  cpu time    9.0840: real time    9.2512

 eigenvalue-minimisations  :     0
 total energy-change (2. order) :-0.3162131E-07  (-0.5885109E-07)
 number of electron     216.0000000 magnetization 
 augmentation part       -0.4360617 magnetization 

 Free energy of the ion-electron system (eV)
  ---------------------------------------------------
  alpha Z        PSCENC =        59.93625244
  Ewald energy   TEWEN  =     35168.46738301
  -Hartree energ DENC   =    -42236.04330056
  -exchange      EXHF   =         0.00000000
  -V(xc)+E(xc)   XCENC  =       451.78134213
  PAW double counting   =    112736.52107749  -112475.76873585
  entropy T*S    EENTRO =        -0.00000000
  eigenvalues    EBANDS =     -2558.79669368
  atomic energy  EATOM  =      8369.52358910
  ---------------------------------------------------
  free energy    TOTEN  =      -484.37908593 eV

  energy without entropy =     -484.37908593  energy(sigma->0) =     -484.37908593


--------------------------------------------------------------------------------------------------------


  average scaling for gradient   0.7447


 average (electrostatic) potential at core
  the test charge radii are     0.5770  0.5955
  (the norm of the test charge is              1.0000)
       1 -85.3084       2 -85.3004       3 -85.3161       4 -85.3235       5 -85.2979
       6 -85.2928       7 -85.3033       8 -85.2760       9 -85.2929      10 -85.2896
      11 -85.2978      12 -85.3054      13 -85.2886      14 -85.2887      15 -85.2971
      16 -85.2933      17 -85.3007      18 -85.3018      19 -85.3066      20 -85.3014
      21 -85.2832      22 -85.2899      23 -85.3230      24 -85.3131      25 -85.2968
      26 -85.2991      27 -85.2932      28 -85.3116      29 -85.2921      30 -85.2968
      31 -85.3235      32 -85.3084      33 -85.3085      34 -85.2996      35 -85.2958
      36 -85.3003      37 -85.3017      38 -85.3052      39 -85.3051      40 -85.3014
      41 -85.3031      42 -85.3072      43 -85.2999      44 -85.3076      45 -85.2953
      46 -85.2935      47 -85.3046      48 -85.3004      49 -85.3041      50 -85.3024
      51 -89.1010      52-119.8473      53-119.8592
 
 
 
 E-fermi :  -3.8854     XC(G=0):  -2.3127     alpha+bet : -2.1113

 Fermi energy:        -3.8854375952

 k-point     1 :       0.0000    0.0000    0.0000
  band No.  band energies     occupation 
      1     -27.2289      2.00000
      2     -26.2131      2.00000
      3     -22.0539      2.00000
      4     -21.1338      2.00000
      5     -21.1180      2.00000
      6     -21.1102      2.00000
      7     -21.1089      2.00000
      8     -21.1063      2.00000
[...]
     30     C        0.00058028
     31     C       -0.00309439
     32     C       -0.00107498
     33     C        0.00088563
     34     C        0.00044570
     35     C        0.00050285
     36     C        0.00058469
     37     C        0.00008457
     38     C        0.00016501
     39     C       -0.00019065
     40     C       -0.00018621
     41     C       -0.00008360
     42     C       -0.00049692
     43     C        0.00021379
     44     C        0.00014281
     45     C        0.00057722
     46     C        0.00107389
     47     C        0.00077004
     48     C        0.00048425
     49     C        0.00014926
     50     C       -0.00001038
     51     C        0.28497271
     52     O       -0.13155773
     53     O       -0.12604696

  Atomic reference data used in the T-S method for vdW correction:
            C6at              R0at           ALPHAat      REFSTATE
            (au)              (au)            (au)                
   ---------------------------------------------------------------
   C          46.600          3.590         12.000         0
   O          15.600          3.194          5.400         0
 
 Nth order contribution to Edisp (eV)
 Edisp(N=2):  -4.65856409995629     
 Edisp(N=3):  0.333068463412545     
 Edisp(N=4): -0.478524304310999     
 Edisp(N=5):  0.202195547063474     
 Edisp(N=6): -0.190128877375217     
 Edisp(N=inf):  -4.72197104867875     

  Tkatchenko/Scheffler method for vdW energy calculation
  ---------------------------------------------------------------------------------------------

  Parameters of vdW forcefield:
            C6ts              R0ts          ALPHAts         R0scs        ALPHAscs        RELVOL 
            (au)              (au)           (au)            (au)          (au)                 
   ---------------------------------------------------------------------------------------------
   C          32.947          3.389         10.090          3.265          9.026          0.841
   C          33.088          3.391         10.112          3.267          9.043          0.843
   C          33.255          3.394         10.137          3.276          9.112          0.845
   C          33.915          3.405         10.237          3.262          9.000          0.853
   C          32.941          3.389         10.089          3.266          9.033          0.841
   C          32.945          3.389         10.090          3.266          9.031          0.841
   C          33.758          3.403         10.214          3.273          9.093          0.851
   C          33.961          3.406         10.244          3.278          9.131          0.854
   C          33.406          3.397         10.160          3.275          9.104          0.847
   C          34.129          3.409         10.269          3.252          8.920          0.856
   C          32.876          3.388         10.079          3.267          9.043          0.840
   C          32.869          3.388         10.078          3.269          9.056          0.840
   C          34.176          3.410         10.277          3.260          8.983          0.856
   C          33.320          3.395         10.147          3.272          9.082          0.846
   C          32.930          3.389         10.088          3.262          9.002          0.841
   C          33.025          3.390         10.102          3.264          9.016          0.842
   C          32.883          3.388         10.080          3.269          9.060          0.840
   C          32.897          3.388         10.082          3.264          9.019          0.840
   C          33.053          3.391         10.106          3.273          9.090          0.842
   C          32.905          3.388         10.084          3.262          9.001          0.840
   C          33.163          3.393         10.123          3.261          8.990          0.844
   C          32.975          3.389         10.094          3.264          9.016          0.841
   C          34.546          3.416         10.332          3.247          8.875          0.861
   C          34.331          3.412         10.300          3.245          8.858          0.858
   C          32.876          3.388         10.079          3.267          9.036          0.840
   C          32.881          3.388         10.080          3.263          9.005          0.840
   C          33.569          3.399         10.185          3.277          9.123          0.849
   C          33.360          3.396         10.153          3.282          9.163          0.846
   C          33.006          3.390         10.099          3.269          9.057          0.842
   C          32.885          3.388         10.081          3.267          9.036          0.840
   C          33.521          3.399         10.178          3.274          9.095          0.848
   C          33.080          3.391         10.110          3.274          9.101          0.843
   C          32.871          3.388         10.078          3.267          9.041          0.840
   C          32.878          3.388         10.080          3.267          9.041          0.840
   C          32.899          3.388         10.083          3.265          9.027          0.840
   C          32.894          3.388         10.082          3.263          9.008          0.840
   C          32.966          3.389         10.093          3.262          9.000          0.841
   C          32.909          3.388         10.084          3.262          8.996          0.840
   C          32.929          3.389         10.087          3.263          9.009          0.841
   C          32.902          3.388         10.083          3.268          9.046          0.840
   C          32.908          3.388         10.084          3.266          9.029          0.840
   C          32.973          3.389         10.094          3.267          9.038          0.841
   C          32.924          3.388         10.087          3.262          8.995          0.841
   C          33.177          3.393         10.125          3.277          9.126          0.844
   C          32.885          3.388         10.081          3.266          9.032          0.840
   C          32.990          3.390         10.097          3.267          9.037          0.841
   C          32.875          3.388         10.079          3.264          9.012          0.840
   C          32.869          3.388         10.078          3.267          9.041          0.840
   C          32.893          3.388         10.082          3.266          9.035          0.840
   C          32.889          3.388         10.081          3.266          9.036          0.840
   C          28.944          3.317          9.457          3.173          8.280          0.788
   O          12.329          3.071          4.801          2.941          4.218          0.889
   O          12.272          3.068          4.790          2.932          4.178          0.887

  vdW correction parametrized for the method pbe       

  IVDW = 202
  VDW_RADIUS =    50.000 A
  VDW_SR =     0.830
  VDW_D =     6.000
  SCSRAD =   120.000 A
  LVDWSCS = T
  LSCSGRAD = T
  LSCALER0 = T
  ITIM = -1
  Edisp (eV):   -4.72197
    FORVDW:  cpu time   17.7951: real time   17.9011

 VOLUME and BASIS-vectors are now :
 -----------------------------------------------------------------------------
  energy-cutoff  :     1000.00
  volume of cell :     2631.08
      direct lattice vectors                 reciprocal lattice vectors
    12.325000000  0.000000000  0.000000000     0.081135903  0.046843835  0.000000000
    -6.162500000 10.673763102  0.000000000     0.000000000  0.093687670  0.000000000
     0.000000000  0.000000000 20.000000000     0.000000000  0.000000000  0.050000000

  length of vectors
    12.325000000 12.325000000 20.000000000     0.093687670  0.093687670  0.050000000


 FORCES acting on ions:
    Electron-Ion                     Ewald-Force                    Non-Local-Force
 -----------------------------------------------------------------------------------------------
   0.139E+02 0.122E+02 0.220E+02   -.139E+02 -.122E+02 -.220E+02   0.133E-01 -.978E-02 0.158E-01
   0.239E+02 0.120E+02 0.311E+02   -.239E+02 -.120E+02 -.311E+02   0.247E-01 -.164E-01 -.897E-02
   0.125E+02 0.313E+02 0.411E+02   -.125E+02 -.314E+02 -.412E+02   -.574E-03 0.662E-01 0.474E-01
   0.219E+02 0.322E+02 0.759E+02   -.220E+02 -.323E+02 -.761E+02   0.106E+00 0.480E-01 0.966E-01
   0.153E+02 0.363E+01 0.221E+02   -.153E+02 -.361E+01 -.221E+02   0.325E-03 -.222E-01 -.483E-02
   0.161E+02 -.264E+01 0.228E+02   -.161E+02 0.266E+01 -.228E+02   -.324E-01 -.756E-02 -.120E-01
   0.358E+02 0.155E+02 0.625E+02   -.359E+02 -.154E+02 -.625E+02   0.624E-01 -.109E+00 -.777E-01
   0.363E+02 -.118E+02 0.687E+02   -.363E+02 0.119E+02 -.686E+02   -.423E-01 -.339E-01 -.295E+00
   -.136E+02 0.297E+02 0.435E+02   0.136E+02 -.297E+02 -.434E+02   -.240E-01 -.111E-01 -.748E-01
   -.273E+02 0.236E+02 0.756E+02   0.274E+02 -.237E+02 -.755E+02   -.699E-01 0.264E-01 -.329E+00
   0.366E+01 -.315E+01 0.167E+02   -.364E+01 0.312E+01 -.167E+02   -.931E-02 0.740E-02 -.633E-02
   0.285E+01 -.229E+01 0.153E+02   -.285E+01 0.229E+01 -.153E+02   -.180E-01 0.774E-02 0.160E-02
   0.133E+02 -.345E+02 0.815E+02   -.134E+02 0.345E+02 -.814E+02   0.133E+00 0.283E-01 -.353E+00
   0.559E+01 -.321E+02 0.422E+02   -.564E+01 0.320E+02 -.421E+02   0.336E-01 -.472E-02 -.607E-01
   -.137E+02 0.865E+01 0.217E+02   0.137E+02 -.864E+01 -.217E+02   0.221E-01 -.122E-01 -.659E-02
   -.209E+02 0.579E+01 0.268E+02   0.209E+02 -.579E+01 -.268E+02   0.470E-02 0.594E-02 -.284E-01
   -.192E+01 -.797E+00 0.145E+02   0.193E+01 0.794E+00 -.145E+02   -.230E-02 -.431E-02 0.143E-02
   0.111E+01 0.720E+01 0.158E+02   -.111E+01 -.720E+01 -.158E+02   -.103E-01 0.449E-02 0.818E-02
   -.440E+01 -.248E+02 0.292E+02   0.438E+01 0.248E+02 -.292E+02   0.406E-01 0.496E-03 0.205E-01
   -.173E+01 -.113E+02 0.180E+02   0.173E+01 0.113E+02 -.180E+02   0.245E-02 -.447E-02 -.148E-02
   0.255E+02 -.110E+02 0.348E+02   -.255E+02 0.110E+02 -.347E+02   -.134E-01 -.378E-02 -.594E-01
   0.144E+02 -.125E+02 0.250E+02   -.144E+02 0.125E+02 -.250E+02   -.199E-01 0.281E-01 -.128E-01
   -.650E+01 0.165E+02 0.107E+03   0.667E+01 -.166E+02 -.107E+03   -.175E+00 0.117E+00 -.135E+00
   -.137E+02 -.264E+02 0.981E+02   0.136E+02 0.265E+02 -.983E+02   0.118E+00 -.127E+00 -.809E-01
   0.631E+01 -.285E+01 0.169E+02   -.628E+01 0.285E+01 -.169E+02   -.174E-01 0.368E-02 -.973E-02
   0.110E+01 0.569E+01 0.171E+02   -.109E+01 -.569E+01 -.171E+02   -.144E-01 0.593E-02 -.199E-02
   -.348E+02 0.358E+01 0.499E+02   0.348E+02 -.364E+01 -.498E+02   0.874E-02 0.383E-01 -.983E-01
   -.307E+02 -.136E+02 0.427E+02   0.307E+02 0.135E+02 -.427E+02   -.499E-01 0.493E-01 0.223E-01
   0.878E+01 -.182E+02 0.265E+02   -.879E+01 0.181E+02 -.265E+02   0.688E-02 0.191E-01 -.192E-01
   0.814E+00 -.636E+01 0.183E+02   -.834E+00 0.634E+01 -.183E+02   0.649E-02 0.149E-01 -.962E-02
   -.260E+02 -.284E+02 0.559E+02   0.261E+02 0.285E+02 -.560E+02   -.775E-01 -.532E-01 0.947E-01
   -.136E+02 -.246E+02 0.320E+02   0.136E+02 0.246E+02 -.320E+02   -.203E-02 -.397E-01 0.274E-01
   0.707E+00 0.296E+01 0.152E+02   -.708E+00 -.296E+01 -.152E+02   0.115E-01 -.108E-01 0.346E-02
   0.208E+01 0.303E+01 0.167E+02   -.208E+01 -.300E+01 -.167E+02   0.111E-02 -.105E-01 -.660E-02
   -.945E+01 0.109E+01 0.189E+02   0.944E+01 -.110E+01 -.189E+02   0.145E-01 0.194E-02 -.359E-02
   -.803E+01 -.317E+01 0.182E+02   0.803E+01 0.316E+01 -.182E+02   -.119E-01 0.106E-01 -.485E-02
   -.167E+02 -.874E+01 0.229E+02   0.167E+02 0.874E+01 -.229E+02   -.195E-01 0.317E-02 -.115E-02
   -.928E+01 -.757E+01 0.178E+02   0.929E+01 0.757E+01 -.178E+02   -.114E-01 0.365E-02 0.102E-01
   -.881E+01 -.116E+02 0.196E+02   0.882E+01 0.116E+02 -.196E+02   -.125E-01 -.122E-01 0.595E-02
   -.128E+01 -.267E+01 0.157E+02   0.127E+01 0.268E+01 -.157E+02   -.685E-03 -.144E-02 0.745E-02
   0.330E+01 0.780E+01 0.167E+02   -.329E+01 -.782E+01 -.167E+02   -.243E-02 0.127E-01 0.710E-02
   0.113E+02 0.177E+02 0.240E+02   -.113E+02 -.177E+02 -.240E+02   0.162E-01 0.199E-01 0.139E-01
   0.886E+00 0.142E+02 0.194E+02   -.877E+00 -.142E+02 -.194E+02   -.788E-02 0.114E-01 -.193E-02
   0.398E+00 0.287E+02 0.338E+02   -.365E+00 -.287E+02 -.338E+02   -.503E-01 0.109E-01 0.196E-01
   -.271E+01 0.543E+01 0.184E+02   0.271E+01 -.542E+01 -.184E+02   0.170E-02 -.947E-02 -.750E-02
   -.118E+02 0.152E+02 0.252E+02   0.118E+02 -.152E+02 -.252E+02   -.258E-02 -.461E-02 -.212E-01
   -.185E+01 -.529E+01 0.165E+02   0.184E+01 0.529E+01 -.165E+02   0.166E-01 0.194E-02 0.720E-03
   -.496E+01 0.205E+01 0.157E+02   0.493E+01 -.205E+01 -.157E+02   0.128E-01 -.170E-02 -.830E-02
   0.361E+00 -.327E+01 0.153E+02   -.353E+00 0.326E+01 -.154E+02   0.773E-02 -.234E-02 0.455E-02
   0.517E+01 0.382E+01 0.156E+02   -.517E+01 -.381E+01 -.156E+02   0.186E-02 0.770E-02 0.357E-02
   0.397E+00 -.214E+00 -.403E+03   -.388E+00 0.201E+00 0.403E+03   -.337E-01 0.136E-01 -.101E+00
   -.229E+03 0.155E+03 -.618E+03   0.279E+03 -.189E+03 0.621E+03   -.506E+02 0.346E+02 -.225E+01
   0.229E+03 -.155E+03 -.597E+03   -.279E+03 0.189E+03 0.593E+03   0.506E+02 -.347E+02 0.411E+01
 -----------------------------------------------------------------------------------------------
   0.604E-01 0.266E-01 -.422E+00   0.000E+00 0.284E-13 0.000E+00   -.596E-01 -.272E-01 0.424E+00
 
 
 POSITION                                       TOTAL-FORCE (eV/Angst)
 -----------------------------------------------------------------------------------
     11.98348      0.00342      0.01417        -0.001506     -0.003531      0.000076
     -0.34154      1.42665      0.01100         0.017281      0.013759     -0.000055
      2.12355      0.00315      0.01249         0.010930     -0.019103      0.008695
      2.12326      1.42653      0.00641        -0.017902      0.002678     -0.068403
     10.75099      2.13819      0.01213        -0.001923     -0.005058      0.003495
     -1.57382      3.56123      0.01110        -0.008120      0.009903      0.002595
      0.89078      2.13854      0.00548        -0.026050      0.010811     -0.058076
      0.89099      3.56147      0.00181        -0.031780      0.026202     -0.146496
      4.58864      0.00346      0.01135         0.011417      0.050489     -0.015525
      4.58894      1.42623      0.00646         0.051788     -0.042548     -0.194374
      9.51854      4.27281      0.01369         0.009324     -0.016233      0.000358
     -2.80632      5.69591      0.01434        -0.018451      0.010520      0.001094
      2.12300      4.27302      0.00000        -0.032888      0.082693     -0.243492
      2.12335      5.69594      0.00581        -0.008304     -0.061643     -0.014410
      7.05344      0.00333      0.01399         0.003161     -0.000973      0.003720
      7.05353      1.42635      0.01368        -0.008836      0.008353      0.000828
      8.28610      6.40752      0.01601         0.007392     -0.007960     -0.000293
     -4.03885      7.83070      0.01636        -0.009853      0.007168      0.000084
      3.35586      6.40753      0.01007         0.014931      0.003223      0.005575
      3.35599      7.83072      0.01320        -0.002256     -0.008452      0.000577
     -0.34146      4.27290      0.00723         0.037225     -0.023273     -0.005474
     -0.34138      5.69591      0.00946        -0.007090      0.007895      0.006617
      3.35624      2.13791      0.00222        -0.008682     -0.024915     -0.384084
      3.35573      3.56155      0.00139         0.030964      0.051303     -0.269250
     -1.57395      6.40758      0.01311         0.017486     -0.001574     -0.000921
     -1.57385      7.83068      0.01438        -0.005165      0.002037      0.000288
      5.82093      2.13784      0.01033        -0.029975     -0.026864     -0.030761
      5.82114      3.56097      0.01156        -0.004634     -0.000168      0.006939
      0.89092      6.40755      0.00907         0.000900      0.000656      0.005742
      0.89106      7.83068      0.01235        -0.015186     -0.006929      0.000311
      4.58871      4.27293      0.00850         0.004132     -0.017289     -0.003036
      4.58852      5.69606      0.01149        -0.004310      0.017552      0.004134
      9.51845      0.00337      0.01490         0.010200     -0.009789      0.000462
      9.51855      1.42644      0.01438        -0.004216      0.017273     -0.000429
      8.28593      2.13803      0.01453         0.002479     -0.012380      0.001509
      8.28613      3.56115      0.01464        -0.002632      0.004304      0.000428
      7.05356      4.27269      0.01457        -0.004696     -0.006103      0.001519
      7.05362      5.69588      0.01553        -0.000454      0.003947     -0.000132
      5.82112      6.40755      0.01489        -0.004504     -0.001906     -0.000770
      5.82102      7.83073      0.01579        -0.007001      0.007209     -0.000147
      7.05363      8.54227      0.01631         0.003733     -0.004800      0.000918
     -5.27149      9.96549      0.01495         0.002920      0.001386     -0.001995
     -2.80638      8.54234      0.01558         0.001588      0.006859     -0.000140
     -2.80627      9.96553      0.01362        -0.016223      0.001093      0.007084
     -0.34149      8.54239      0.01378         0.010011      0.002971      0.000797
     -0.34138      9.96550      0.01354        -0.010235      0.004005      0.003549
      2.12343      8.54232      0.01336         0.008241      0.002442      0.000864
      2.12354      9.96544      0.01469        -0.009424      0.001652     -0.002145
      4.58846      8.54235      0.01505         0.015220     -0.009574      0.001270
      4.58853      9.96550      0.01517        -0.001963      0.008678      0.000954
      3.04930      2.68154      2.64866        -0.025630      0.002440      0.262143
      4.02070      2.02068      2.71308        -0.508245      0.392613      0.471306
      2.07767      3.34267      2.58920         0.566811     -0.451046      0.636482
 -----------------------------------------------------------------------------------
    total drift:                                0.000788     -0.000588      0.001625


--------------------------------------------------------------------------------------------------------



  FREE ENERGIE OF THE ION-ELECTRON SYSTEM (eV)
  ---------------------------------------------------
  free  energy   TOTEN  =      -489.10105698 eV

  energy  without entropy=     -489.10105698  energy(sigma->0) =     -489.10105698
 


--------------------------------------------------------------------------------------------------------


    POTLOK:  cpu time    0.5611: real time    0.5650


--------------------------------------------------------------------------------------------------------


     LOOP+:  cpu time  302.4296: real time  306.0230
    4ORBIT:  cpu time    0.0000: real time    0.0000

 total amount of memory used by VASP MPI-rank0   441788. kBytes
=======================================================================

   base      :      30000. kBytes
   nonl-proj :     184518. kBytes
   fftplans  :      31725. kBytes
   grid      :     168095. kBytes
   one-center:        162. kBytes
   wavefun   :      27288. kBytes
 
  
  
 General timing and accounting informations for this job:
 ========================================================
  
                  Total CPU time used (sec):      342.835
                            User time (sec):      324.930
                          System time (sec):       17.904
                         Elapsed time (sec):      348.135
  
                   Maximum memory used (kb):      844448.
                   Average memory used (kb):          N/A
  
                          Minor page faults:       104715
                          Major page faults:          111
                 Voluntary context switches:         3700
