 vasp.6.2.1 16May21 (build Nov 06 2021 14:46:37) complex                        
  
 executed on             LinuxIFC date 2025.03.03  18:50:12
 running on  112 total cores
 distrk:  each k-point on   56 cores,    2 groups
 distr:  one band on NCORE=   1 cores,   56 groups


--------------------------------------------------------------------------------------------------------


 INCAR:
   ALGO = Conjugate
   KPAR = 2
   NCORE = 32
   PREC = Accurate
   EDIFF = 1E-7
   ENCUT = 1000
   ISMEAR = 0
   SIGMA = 0.01
   ISIF = 0
   GGA = PE
   IVDW = 202
   LVDWEXPANSION = .TRUE.
   LWAVE = .FALSE.
   LCHARGE = .FALSE.
   SYMPREC = 1E-7

 POTCAR:    PAW_PBE C_h 06Feb2004                 
 POTCAR:    PAW_PBE O_h 06Feb2004                 
 -----------------------------------------------------------------------------
|                                                                             |
|           W    W    AA    RRRRR   N    N  II  N    N   GGGG   !!!           |
|           W    W   A  A   R    R  NN   N  II  NN   N  G    G  !!!           |
|           W    W  A    A  R    R  N N  N  II  N N  N  G       !!!           |
|           W WW W  AAAAAA  RRRRR   N  N N  II  N  N N  G  GGG   !            |
|           WW  WW  A    A  R   R   N   NN  II  N   NN  G    G                |
|           W    W  A    A  R    R  N    N  II  N    N   GGGG   !!!           |
|                                                                             |
|     The value NCORE = 32 specified in the INCAR file was overwritten,       |
|     because it was not compatible with the 56 processes available:          |
|     NCORE = 1                                                               |
|     was used instead, please check that this makes sense for your           |
|     machine.                                                                |
|                                                                             |
 -----------------------------------------------------------------------------

 -----------------------------------------------------------------------------
|                                                                             |
|           W    W    AA    RRRRR   N    N  II  N    N   GGGG   !!!           |
|           W    W   A  A   R    R  NN   N  II  NN   N  G    G  !!!           |
|           W    W  A    A  R    R  N N  N  II  N N  N  G       !!!           |
|           W WW W  AAAAAA  RRRRR   N  N N  II  N  N N  G  GGG   !            |
|           WW  WW  A    A  R   R   N   NN  II  N   NN  G    G                |
|           W    W  A    A  R    R  N    N  II  N    N   GGGG   !!!           |
|                                                                             |
|     For optimal performance we recommend to set                             |
|       NCORE = 2 up to number-of-cores-per-socket                            |
|     NCORE specifies how many cores store one orbital (NPAR=cpu/NCORE).      |
|     This setting can greatly improve the performance of VASP for DFT.       |
|     The default, NCORE=1 might be grossly inefficient on modern             |
|     multi-core architectures or massively parallel machines. Do your        |
|     own testing! More info at https://www.vasp.at/wiki/index.php/NCORE      |
|     Unfortunately you need to use the default for GW and RPA                |
|     calculations (for HF NCORE is supported but not extensively tested      |
|     yet).                                                                   |
|                                                                             |
 -----------------------------------------------------------------------------

 POTCAR:    PAW_PBE C_h 06Feb2004                 
   VRHFIN =C: s2p2                                                                                  
   LEXCH  = PE                                                                                      
   EATOM  =   147.1560 eV,   10.8157 Ry                                                             
                                                                                                    
   TITEL  = PAW_PBE C_h 06Feb2004                                                                   
   LULTRA =        F    use ultrasoft PP ?                                                          
   IUNSCR =        1    unscreen: 0-lin 1-nonlin 2-no                                               
   RPACOR =    0.800    partial core radius                                                         
   POMASS =   12.011; ZVAL   =    4.000    mass and valenz                                          
   RCORE  =    1.100    outmost cutoff radius                                                       
   RWIGS  =    1.630; RWIGS  =    0.863    wigner-seitz radius (au A)                               
   ENMAX  =  700.000; ENMIN  =  500.000 eV                                                          
   ICORE  =        2    local potential                                                             
   LCOR   =        T    correct aug charges                                                         
   LPAW   =        T    paw PP                                                                      
   EAUG   =  946.768                                                                                
   DEXC   =    0.000                                                                                
   RMAX   =    1.128    core radius for proj-oper                                                   
   RAUG   =    1.300    factor for augmentation sphere                                              
   RDEP   =    1.162    radius for radial grids                                                     
   RDEPT  =    1.088    core radius for aug-charge                                                  
                                                                                                    
   Atomic configuration                                                                             
    4 entries                                                                                       
     n  l   j            E        occ.                                                              
     1  0  0.50      -273.3789   2.0000                                                             
     2  0  0.50       -13.7508   2.0000                                                             
     2  1  0.50        -5.2854   2.0000                                                             
     3  2  1.50        -5.4423   0.0000                                                             
   Description                                                                                      
     l       E           TYP  RCUT    TYP  RCUT                                                     
     0    -13.7508458     23  1.100                                                                 
     0     -8.2022199     23  1.100                                                                 
     1     -5.2854383     23  1.100                                                                 
     1      1.1560700     23  1.100                                                                 
     2     -5.4423304      7  1.100                                                                 
  local pseudopotential read in
  partial core-charges read in
  partial kinetic energy density read in
  atomic valenz-charges read in
  non local Contribution for L=           0  read in
    real space projection operators read in
  non local Contribution for L=           0  read in
    real space projection operators read in
  non local Contribution for L=           1  read in
    real space projection operators read in
  non local Contribution for L=           1  read in
    real space projection operators read in
    PAW grid and wavefunctions read in
 
   number of l-projection  operators is LMAX  =           4
   number of lm-projection operators is LMMAX =           8
 
 POTCAR:    PAW_PBE O_h 06Feb2004                 
   VRHFIN =O: s2p4                                                                                  
   LEXCH  = PE                                                                                      
   EATOM  =   432.3788 eV,   31.7789 Ry                                                             
                                                                                                    
   TITEL  = PAW_PBE O_h 06Feb2004                                                                   
   LULTRA =        F    use ultrasoft PP ?                                                          
   IUNSCR =        1    unscreen: 0-lin 1-nonlin 2-no                                               
   RPACOR =    0.800    partial core radius                                                         
   POMASS =   16.000; ZVAL   =    6.000    mass and valenz                                          
   RCORE  =    1.100    outmost cutoff radius                                                       
   RWIGS  =    1.400; RWIGS  =    0.741    wigner-seitz radius (au A)                               
   ENMAX  =  700.000; ENMIN  =  500.000 eV                                                          
   ICORE  =        2    local potential                                                             
   LCOR   =        T    correct aug charges                                                         
   LPAW   =        T    paw PP                                                                      
   EAUG   =  888.804                                                                                
   DEXC   =    0.000                                                                                
   RMAX   =    1.128    core radius for proj-oper                                                   
   RAUG   =    1.300    factor for augmentation sphere                                              
   RDEP   =    1.125    radius for radial grids                                                     
   RDEPT  =    1.088    core radius for aug-charge                                                  
                                                                                                    
   Atomic configuration                                                                             
    4 entries                                                                                       
     n  l   j            E        occ.                                                              
     1  0  0.50      -514.6923   2.0000                                                             
     2  0  0.50       -23.9615   2.0000                                                             
     2  1  0.50        -9.0305   4.0000                                                             
     3  2  1.50        -9.5241   0.0000                                                             
   Description                                                                                      
     l       E           TYP  RCUT    TYP  RCUT                                                     
     0    -23.9615319     23  1.100                                                                 
     0    -25.3221145     23  1.100                                                                 
     1     -9.0304911     23  1.100                                                                 
     1     -5.4802209     23  1.100                                                                 
     2     -9.5240782      7  1.100                                                                 
  local pseudopotential read in
  partial core-charges read in
  partial kinetic energy density read in
  atomic valenz-charges read in
  non local Contribution for L=           0  read in
    real space projection operators read in
  non local Contribution for L=           0  read in
    real space projection operators read in
  non local Contribution for L=           1  read in
    real space projection operators read in
  non local Contribution for L=           1  read in
    real space projection operators read in
    PAW grid and wavefunctions read in
 
   number of l-projection  operators is LMAX  =           4
   number of lm-projection operators is LMMAX =           8
 
 -----------------------------------------------------------------------------
|                                                                             |
|               ----> ADVICE to this user running VASP <----                  |
|                                                                             |
|     You have a (more or less) 'large supercell' and for larger cells it     |
|     might be more efficient to use real-space projection operators.         |
|     Therefore, try LREAL= Auto in the INCAR file.                           |
|     Mind: For very accurate calculation, you might also keep the            |
|     reciprocal projection scheme (i.e. LREAL=.FALSE.).                      |
|                                                                             |
 -----------------------------------------------------------------------------

  PAW_PBE C_h 06Feb2004                 :
 energy of atom  1       EATOM= -147.1560
 kinetic energy error for atom=    0.0031 (will be added to EATOM!!)
  PAW_PBE O_h 06Feb2004                 :
 energy of atom  2       EATOM= -432.3788
 kinetic energy error for atom=    0.0171 (will be added to EATOM!!)
 
 
 POSCAR:  C  O
  positions in cartesian coordinates
  No initial velocities read in
 exchange correlation table for  LEXCH =        8
   RHO(1)=    0.500       N(1)  =     2000
   RHO(2)=  100.500       N(2)  =     4000
 


--------------------------------------------------------------------------------------------------------


 ion  position               nearest neighbor table
   1  0.972  0.000  0.001-  50 1.42   2 1.42  42 1.42
   2  0.039  0.134  0.001-   5 1.42   7 1.42   1 1.42
   3  0.172  0.000  0.001-  42 1.42  44 1.42   4 1.42
   4  0.239  0.134  0.000-   7 1.42   3 1.42  23 1.42
   5  0.972  0.200  0.001-   6 1.42   2 1.42  34 1.42
   6  0.039  0.334  0.001-   5 1.42  21 1.42  11 1.42
   7  0.172  0.200  0.000-   8 1.42   2 1.42   4 1.42
   8  0.239  0.334  0.000-  13 1.42   7 1.42  21 1.42
   9  0.372  0.000  0.001-  10 1.42  44 1.42  46 1.42
  10  0.439  0.134  0.000-  27 1.42   9 1.42  23 1.42
  11  0.972  0.400  0.001-  12 1.42  36 1.42   6 1.42
  12  0.039  0.534  0.001-  25 1.42  11 1.42  17 1.42
  13  0.372  0.400  0.000-   8 1.42  14 1.42  24 1.42
  14  0.439  0.534  0.000-  13 1.42  29 1.42  19 1.42
  15  0.572  0.000  0.001-  46 1.42  16 1.42  48 1.42
  16  0.639  0.134  0.001-  15 1.42  35 1.42  27 1.42
  17  0.972  0.600  0.001-  38 1.42  18 1.42  12 1.42
  18  0.039  0.734  0.001-  43 1.42  41 1.42  17 1.42
  19  0.572  0.600  0.001-  14 1.42  20 1.42  32 1.42
  20  0.639  0.734  0.001-  49 1.42  19 1.42  47 1.42
  21  0.172  0.400  0.000-  22 1.42   8 1.42   6 1.42
  22  0.239  0.534  0.000-  21 1.42  29 1.42  25 1.42
  23  0.372  0.200  0.000-  10 1.42   4 1.42  24 1.42
  24  0.439  0.334  0.000-  13 1.42  31 1.42  23 1.42
  25  0.172  0.600  0.001-  26 1.42  12 1.42  22 1.42
  26  0.239  0.734  0.001-  25 1.42  45 1.42  43 1.42
  27  0.572  0.200  0.001-  10 1.42  28 1.42  16 1.42
  28  0.639  0.334  0.001-  27 1.42  37 1.42  31 1.42
  29  0.372  0.600  0.000-  22 1.42  14 1.42  30 1.42
  30  0.439  0.734  0.001-  47 1.42  29 1.42  45 1.42
  31  0.572  0.400  0.000-  32 1.42  28 1.42  24 1.42
  32  0.639  0.534  0.001-  31 1.42  39 1.42  19 1.42
  33  0.772  0.000  0.001-  34 1.42  48 1.42  50 1.42
  34  0.839  0.134  0.001-  33 1.42   5 1.42  35 1.42
  35  0.772  0.200  0.001-  36 1.42  16 1.42  34 1.42
  36  0.839  0.334  0.001-  35 1.42  11 1.42  37 1.42
  37  0.772  0.400  0.001-  28 1.42  38 1.42  36 1.42
  38  0.839  0.534  0.001-  17 1.42  37 1.42  39 1.42
  39  0.772  0.600  0.001-  40 1.42  38 1.42  32 1.42
  40  0.839  0.734  0.001-  39 1.42  49 1.42  41 1.42
  41  0.972  0.800  0.001-  18 1.42  42 1.42  40 1.42
  42  0.039  0.934  0.001-   3 1.42  41 1.42   1 1.42
  43  0.172  0.800  0.001-  18 1.42  44 1.42  26 1.42
  44  0.239  0.934  0.001-   9 1.42  43 1.42   3 1.42
  45  0.372  0.800  0.001-  26 1.42  46 1.42  30 1.42
  46  0.439  0.934  0.001-  15 1.42  45 1.42   9 1.42
  47  0.572  0.800  0.001-  30 1.42  48 1.42  20 1.42
  48  0.639  0.934  0.001-  47 1.42  33 1.42  15 1.42
  49  0.772  0.800  0.001-  50 1.42  20 1.42  40 1.42
  50  0.839  0.934  0.001-  49 1.42   1 1.42  33 1.42
  51  0.373  0.251  0.375-  52 1.18  53 1.18
  52  0.421  0.189  0.378-  51 1.18
  53  0.325  0.313  0.372-  51 1.18
 
  LATTYP: Found a hexagonal cell.
 ALAT       =    12.3250000000
 C/A-ratio  =     1.6227180527
  
  Lattice vectors:
  
 A1 = (  12.3250000000,   0.0000000000,   0.0000000000)
 A2 = (  -6.1625000000,  10.6737631016,   0.0000000000)
 A3 = (   0.0000000000,   0.0000000000,  20.0000000000)


Analysis of symmetry for initial positions (statically):
=====================================================================
 Subroutine PRICEL returns:
 Original cell was already a primitive cell.
 

 Routine SETGRP: Setting up the symmetry group for a 
 hexagonal supercell.


 Subroutine GETGRP returns: Found  1 space group operations
 (whereof  1 operations were pure point group operations)
 out of a pool of 24 trial point group operations.


The static configuration has the point symmetry C_1 .


Analysis of symmetry for dynamics (positions and initial velocities):
=====================================================================
 Subroutine PRICEL returns:
 Original cell was already a primitive cell.
 

 Routine SETGRP: Setting up the symmetry group for a 
 hexagonal supercell.


 Subroutine GETGRP returns: Found  1 space group operations
 (whereof  1 operations were pure point group operations)
 out of a pool of 24 trial point group operations.


The dynamic configuration has the point symmetry C_1 .


 Subroutine INISYM returns: Found  1 space group operations
 (whereof  1 operations are pure point group operations),
 and found     1 'primitive' translations


----------------------------------------------------------------------------------------

                                     Primitive cell                                     

  volume of cell :    2631.0826

  direct lattice vectors                    reciprocal lattice vectors
    12.325000000  0.000000000  0.000000000     0.081135903  0.046843835  0.000000000
    -6.162500000 10.673763102  0.000000000     0.000000000  0.093687670  0.000000000
     0.000000000  0.000000000 20.000000000     0.000000000  0.000000000  0.050000000

  length of vectors
    12.325000000 12.325000000 20.000000000     0.093687670  0.093687670  0.050000000

  position of ions in fractional coordinates (direct lattice)
     0.972450841  0.000320818  0.000708389
     0.039118382  0.133659505  0.000550216
     0.172443627  0.000295449  0.000624535
     0.239096278  0.133647917  0.000320585
     0.972452058  0.200322012  0.000606523
     0.039128360  0.333643771  0.000555187
     0.172451764  0.200354552  0.000273959
     0.239124359  0.333665720  0.000090325
     0.372465565  0.000324403  0.000567391
     0.439137473  0.133619939  0.000322923
     0.972449824  0.400309362  0.000684513
     0.039124981  0.533636789  0.000716763
     0.372416176  0.400329481  0.000000000
     0.439099602  0.533638981  0.000290518
     0.572443676  0.000312125  0.000699475
     0.639110207  0.133631751  0.000684093
     0.972452703  0.600305653  0.000800361
     0.039124495  0.733640359  0.000818141
     0.572433471  0.600306242  0.000503618
     0.639111888  0.733641879  0.000659881
     0.172454630  0.400318228  0.000361306
     0.239120185  0.533636548  0.000473136
     0.372459750  0.200295993  0.000111246
     0.439107096  0.333673419  0.000069702
     0.172452155  0.600311506  0.000655425
     0.239123371  0.733638574  0.000718912
     0.572431082  0.200289171  0.000516621
     0.639112773  0.333618630  0.000577970
     0.372439808  0.600308022  0.000453556
     0.439116090  0.733637858  0.000617737
     0.572469358  0.400320504  0.000424897
     0.639119408  0.533650873  0.000574513
     0.772445723  0.000315427  0.000745201
     0.839116277  0.133640203  0.000719132
     0.772440513  0.200307432  0.000726291
     0.839120241  0.333635728  0.000731834
     0.772446320  0.400298367  0.000728722
     0.839118980  0.533633964  0.000776376
     0.772456143  0.600308173  0.000744639
     0.839115033  0.733643180  0.000789390
     0.972455313  0.800305582  0.000815291
     0.039114714  0.933643289  0.000747563
     0.172457971  0.800312211  0.000779216
     0.239134551  0.933647193  0.000681063
     0.372451396  0.800316674  0.000689249
     0.439124489  0.933644769  0.000676788
     0.572441101  0.800310054  0.000668168
     0.639115067  0.933638985  0.000734556
     0.772445098  0.800313187  0.000752577
     0.839116614  0.933644338  0.000758538
     0.373021009  0.251226878  0.374576769
     0.420879805  0.189313152  0.377797862
     0.325156981  0.313167186  0.371604025

  ion indices of the primitive-cell ions
   primitive index   ion index
                 1           1
                 2           2
                 3           3
                 4           4
                 5           5
                 6           6
                 7           7
                 8           8
                 9           9
                10          10
                11          11
                12          12
                13          13
                14          14
                15          15
                16          16
                17          17
                18          18
                19          19
                20          20
                21          21
                22          22
                23          23
                24          24
                25          25
                26          26
                27          27
                28          28
                29          29
                30          30
                31          31
                32          32
                33          33
                34          34
                35          35
                36          36
                37          37
                38          38
                39          39
                40          40
                41          41
                42          42
                43          43
                44          44
                45          45
                46          46
                47          47
                48          48
                49          49
                50          50
                51          51
                52          52
                53          53

----------------------------------------------------------------------------------------

 
 
 KPOINTS: auto                                    

Automatic generation of k-mesh.
 Grid dimensions read from file:
 generate k-points for:    1    1    1

 Generating k-lattice:

  Cartesian coordinates                     Fractional coordinates (reciprocal lattice)
     0.081135903  0.046843835  0.000000000     1.000000000 -0.000000000  0.000000000
     0.000000000  0.093687670  0.000000000     0.000000000  1.000000000  0.000000000
     0.000000000  0.000000000  0.050000000     0.000000000  0.000000000  1.000000000

  Length of vectors
     0.093687670  0.093687670  0.050000000

  Shift w.r.t. Gamma in fractional coordinates (k-lattice)
     0.000000000  0.000000000  0.000000000

 
 Subroutine IBZKPT returns following result:
 ===========================================
 
 Found      1 irreducible k-points:
 
 Following reciprocal coordinates:
            Coordinates               Weight
  0.000000  0.000000  0.000000      1.000000
 
 Following cartesian coordinates:
            Coordinates               Weight
  0.000000  0.000000  0.000000      1.000000
 


--------------------------------------------------------------------------------------------------------




 Dimension of arrays:
   k-points           NKPTS =      1   k-points in BZ     NKDIM =      1   number of bands    NBANDS=    168
   number of dos      NEDOS =    301   number of ions     NIONS =     53
   non local maximal  LDIM  =      4   non local SUM 2l+1 LMDIM =      8
   total plane-waves  NPLWV = ******
   max r-space proj   IRMAX =      1   max aug-charges    IRDMAX=   9736
   dimension x,y,z NGX =   128 NGY =  128 NGZ =  210
   dimension x,y,z NGXF=   256 NGYF=  256 NGZF=  420
   support grid    NGXF=   256 NGYF=  256 NGZF=  420
   ions per type =              51   2
   NGX,Y,Z   is equivalent  to a cutoff of  17.27, 17.27, 17.46 a.u.
   NGXF,Y,Z  is equivalent  to a cutoff of  34.53, 34.53, 34.91 a.u.

 SYSTEM =  unknown system                          
 POSCAR =   C  O                                   

 Startparameter for this run:
   NWRITE =      2    write-flag & timer
   PREC   = accura    normal or accurate (medium, high low for compatibility)
   ISTART =      0    job   : 0-new  1-cont  2-samecut
   ICHARG =      2    charge: 1-file 2-atom 10-const
   ISPIN  =      1    spin polarized calculation?
   LNONCOLLINEAR =      F non collinear calculations
   LSORBIT =      F    spin-orbit coupling
   INIWAV =      1    electr: 0-lowe 1-rand  2-diag
   LASPH  =      F    aspherical Exc in radial PAW
 Electronic Relaxation 1
   ENCUT  = 1000.0 eV  73.50 Ry    8.57 a.u.  31.78 31.78 51.57*2*pi/ulx,y,z
   ENINI  = 1000.0     initial cutoff
   ENAUG  =  946.8 eV  augmentation charge cutoff
   NELM   =     60;   NELMIN=  2; NELMDL= -5     # of ELM steps 
   EDIFF  = 0.1E-06   stopping-criterion for ELM
   LREAL  =      F    real-space projection
   NLSPLINE    = F    spline interpolate recip. space projectors
   LCOMPAT=      F    compatible to vasp.4.4
   GGA_COMPAT  = T    GGA compatible to vasp.4.4-vasp.4.6
   LMAXPAW     = -100 max onsite density
   LMAXMIX     =    2 max onsite mixed and CHGCAR
   VOSKOWN=      0    Vosko Wilk Nusair interpolation
   ROPT   =    0.00000   0.00000
 Ionic relaxation
   EDIFFG = 0.1E-05   stopping-criterion for IOM
   NSW    =      0    number of steps for IOM
   NBLOCK =      1;   KBLOCK =      1    inner block; outer block 
   IBRION =     -1    ionic relax: 0-MD 1-quasi-New 2-CG
   NFREE  =      0    steps in history (QN), initial steepest desc. (CG)
   ISIF   =      0    stress and relaxation
   IWAVPR =     10    prediction:  0-non 1-charg 2-wave 3-comb
   ISYM   =      2    0-nonsym 1-usesym 2-fastsym
   LCORR  =      T    Harris-Foulkes like correction to forces

   POTIM  = 0.5000    time-step for ionic-motion
   TEIN   =    0.0    initial temperature
   TEBEG  =    0.0;   TEEND  =   0.0 temperature during run
   SMASS  =  -3.00    Nose mass-parameter (am)
   estimated Nose-frequenzy (Omega)   =  0.10E-29 period in steps = 0.13E+47 mass=  -0.347E-26a.u.
   SCALEE = 1.0000    scale energy and forces
   NPACO  =    256;   APACO  = 16.0  distance and # of slots for P.C.
   PSTRESS=    0.0 pullay stress

  Mass of Ions in am
   POMASS =  12.01 16.00
  Ionic Valenz
   ZVAL   =   4.00  6.00
  Atomic Wigner-Seitz radii
   RWIGS  =  -1.00 -1.00
  virtual crystal weights 
   VCA    =   1.00  1.00
   NELECT =     216.0000    total number of electrons
   NUPDOWN=      -1.0000    fix difference up-down

 DOS related values:
   EMIN   =  10.00;   EMAX   =-10.00  energy-range for DOS
   EFERMI =   0.00
   ISMEAR =     0;   SIGMA  =   0.01  broadening in eV -4-tet -1-fermi 0-gaus

 Electronic relaxation 2 (details)
   IALGO  =     58    algorithm
   LDIAG  =      T    sub-space diagonalisation (order eigenvalues)
   LSUBROT=      F    optimize rotation matrix (better conditioning)
   TURBO    =      0    0=normal 1=particle mesh
   IRESTART =      0    0=no restart 2=restart with 2 vectors
   NREBOOT  =      0    no. of reboots
   NMIN     =      0    reboot dimension
   EREF     =   0.00    reference energy to select bands
   IMIX   =      4    mixing-type and parameters
     AMIX     =   0.40;   BMIX     =  1.00
     AMIX_MAG =   1.60;   BMIX_MAG =  1.00
     AMIN     =   0.10
     WC   =   100.;   INIMIX=   1;  MIXPRE=   1;  MAXMIX= -45

 Intra band minimization:
   WEIMIN = 0.0000     energy-eigenvalue tresh-hold
   EBREAK =  0.15E-09  absolut break condition
   DEPER  =   0.30     relativ break condition  

   TIME   =   0.40     timestep for ELM

  volume/ion in A,a.u.               =      49.64       335.01
  Fermi-wavevector in a.u.,A,eV,Ry     =   0.711510  1.344560  6.887909  0.506247
  Thomas-Fermi vector in A             =   1.798641
 
 Write flags
   LWAVE        =      F    write WAVECAR
   LDOWNSAMPLE  =      F    k-point downsampling of WAVECAR
   LCHARG       =      T    write CHGCAR
   LVTOT        =      F    write LOCPOT, total local potential
   LVHAR        =      F    write LOCPOT, Hartree potential only
   LELF         =      F    write electronic localiz. function (ELF)
   LORBIT       =      0    0 simple, 1 ext, 2 COOP (PROOUT), +10 PAW based schemes


 Dipole corrections
   LMONO  =      F    monopole corrections only (constant potential shift)
   LDIPOL =      F    correct potential (dipole corrections)
   IDIPOL =      0    1-x, 2-y, 3-z, 4-all directions 
   EPSILON=  1.0000000 bulk dielectric constant

 Exchange correlation treatment:
   GGA     =    PE    GGA type
   LEXCH   =     8    internal setting for exchange type
   VOSKOWN=      0    Vosko Wilk Nusair interpolation
   LHFCALC =     F    Hartree Fock is set to
   LHFONE  =     F    Hartree Fock one center treatment
   AEXX    =    0.0000 exact exchange contribution

 Linear response parameters
   LEPSILON=     F    determine dielectric tensor
   LRPA    =     F    only Hartree local field effects (RPA)
   LNABLA  =     F    use nabla operator in PAW spheres
   LVEL    =     F    velocity operator in full k-point grid
   LINTERFAST=   F  fast interpolation
   KINTER  =     0    interpolate to denser k-point grid
   CSHIFT  =0.1000    complex shift for real part using Kramers Kronig
   OMEGAMAX=  -1.0    maximum frequency
   DEG_THRESHOLD= 0.2000000E-02 threshold for treating states as degnerate
   RTIME   =   -0.100 relaxation time in fs
  (WPLASMAI=    0.000 imaginary part of plasma frequency in eV, 0.658/RTIME)
   DFIELD  = 0.0000000 0.0000000 0.0000000 field for delta impulse in time
 
 Orbital magnetization related:
   ORBITALMAG=     F  switch on orbital magnetization
   LCHIMAG   =     F  perturbation theory with respect to B field
   DQ        =  0.001000  dq finite difference perturbation B field
   LLRAUG    =     F  two centre corrections for induced B field



--------------------------------------------------------------------------------------------------------


 Static calculation
 charge density and potential will be updated during run
 non-spin polarized calculation
 Conjugate gradient for all bands (Freysoldt, et al. PRB 79, 241103 (2009))
 preconditioned conjugated gradient                                        
 perform sub-space diagonalisation
    before iterative eigenvector-optimisation
 modified Broyden-mixing scheme, WC =      100.0
 initial mixing is a Kerker type mixing with AMIX =  0.4000 and BMIX =      1.0000
 Hartree-type preconditioning will be used
 using additional bands           60
 reciprocal scheme for non local part
 use partial core corrections
 no Harris-corrections to forces 
 use gradient corrections 
 use of overlap-Matrix (Vanderbilt PP)
 Gauss-broadening in eV      SIGMA  =   0.01


--------------------------------------------------------------------------------------------------------


  energy-cutoff  :     1000.00
  volume of cell :     2631.08
      direct lattice vectors                 reciprocal lattice vectors
    12.325000000  0.000000000  0.000000000     0.081135903  0.046843835  0.000000000
    -6.162500000 10.673763102  0.000000000     0.000000000  0.093687670  0.000000000
     0.000000000  0.000000000 20.000000000     0.000000000  0.000000000  0.050000000

  length of vectors
    12.325000000 12.325000000 20.000000000     0.093687670  0.093687670  0.050000000


 
 k-points in units of 2pi/SCALE and weight: auto                                    
   0.00000000  0.00000000  0.00000000       1.000
 
 k-points in reciprocal lattice and weights: auto                                    
   0.00000000  0.00000000  0.00000000       1.000
 
 position of ions in fractional coordinates (direct lattice) 
   0.97245084  0.00032082  0.00070839
   0.03911838  0.13365950  0.00055022
   0.17244363  0.00029545  0.00062454
   0.23909628  0.13364792  0.00032058
   0.97245206  0.20032201  0.00060652
   0.03912836  0.33364377  0.00055519
   0.17245176  0.20035455  0.00027396
   0.23912436  0.33366572  0.00009033
   0.37246557  0.00032440  0.00056739
   0.43913747  0.13361994  0.00032292
   0.97244982  0.40030936  0.00068451
   0.03912498  0.53363679  0.00071676
   0.37241618  0.40032948  0.00000000
   0.43909960  0.53363898  0.00029052
   0.57244368  0.00031213  0.00069947
   0.63911021  0.13363175  0.00068409
   0.97245270  0.60030565  0.00080036
   0.03912449  0.73364036  0.00081814
   0.57243347  0.60030624  0.00050362
   0.63911189  0.73364188  0.00065988
   0.17245463  0.40031823  0.00036131
   0.23912018  0.53363655  0.00047314
   0.37245975  0.20029599  0.00011125
   0.43910710  0.33367342  0.00006970
   0.17245216  0.60031151  0.00065542
   0.23912337  0.73363857  0.00071891
   0.57243108  0.20028917  0.00051662
   0.63911277  0.33361863  0.00057797
   0.37243981  0.60030802  0.00045356
   0.43911609  0.73363786  0.00061774
   0.57246936  0.40032050  0.00042490
   0.63911941  0.53365087  0.00057451
   0.77244572  0.00031543  0.00074520
   0.83911628  0.13364020  0.00071913
   0.77244051  0.20030743  0.00072629
   0.83912024  0.33363573  0.00073183
   0.77244632  0.40029837  0.00072872
   0.83911898  0.53363396  0.00077638
   0.77245614  0.60030817  0.00074464
   0.83911503  0.73364318  0.00078939
   0.97245531  0.80030558  0.00081529
   0.03911471  0.93364329  0.00074756
   0.17245797  0.80031221  0.00077922
   0.23913455  0.93364719  0.00068106
   0.37245140  0.80031667  0.00068925
   0.43912449  0.93364477  0.00067679
   0.57244110  0.80031005  0.00066817
   0.63911507  0.93363899  0.00073456
   0.77244510  0.80031319  0.00075258
   0.83911661  0.93364434  0.00075854
   0.37302101  0.25122688  0.37457677
   0.42087980  0.18931315  0.37779786
   0.32515698  0.31316719  0.37160403
 
 position of ions in cartesian coordinates  (Angst):
  11.98347958  0.00342433  0.01416777
  -0.34154264  1.42664989  0.01100432
   2.12354700  0.00315355  0.01249070
   2.12325634  1.42652621  0.00641170
  10.75098721  2.13818970  0.01213047
  -1.57382270  3.56123457  0.01110375
   0.89078307  2.13853702  0.00547917
   0.89099273  3.56146885  0.00180651
   4.58863896  0.00346260  0.01134782
   4.58893648  1.42622757  0.00645846
   9.51853763  4.27280730  0.01369027
  -2.80632132  5.69591267  0.01433526
   2.12299894  4.27302204  0.00000000
   2.12335237  5.69593607  0.00581036
   7.05344483  0.00333155  0.01398950
   7.05352764  1.42635365  0.01368187
   8.28609598  6.40752033  0.01600723
  -4.03884931  7.83070339  0.01636283
   3.35585531  6.40752662  0.01007237
   3.35598594  7.83071962  0.01319763
  -0.34145776  4.27290193  0.00722612
  -0.34137895  5.69591010  0.00946273
   3.35624236  2.13791198  0.00222492
   3.35573251  3.56155103  0.00139405
  -1.57394684  6.40758280  0.01310850
  -1.57385216  7.83068434  0.01437823
   5.82093107  2.13783916  0.01033241
   5.82114012  3.56096622  0.01155939
   0.89092245  6.40754561  0.00907111
   0.89106251  7.83067670  0.01235474
   4.58870974  4.27292622  0.00849795
   4.58852320  5.69606300  0.01149026
   9.51844972  0.00336679  0.01490402
   9.51855036  1.42644387  0.01438264
   8.28593477  2.13803408  0.01452582
   8.28612680  3.56114872  0.01463668
   7.05356221  4.27268994  0.01457444
   7.05362213  5.69588251  0.01552751
   5.82112285  6.40754723  0.01489279
   5.82101669  7.83073350  0.01578780
   7.05362858  8.54227219  0.01630582
  -5.27148792  9.96548729  0.01495127
  -2.80637951  8.54234295  0.01558431
  -2.80626749  9.96552896  0.01362126
  -0.34148805  8.54239058  0.01378498
  -0.34137657  9.96550309  0.01353576
   2.12342586  8.54231992  0.01336337
   2.12354296  9.96544135  0.01469111
   4.58845581  8.54235337  0.01505154
   4.58852904  9.96549848  0.01517076
   3.04929830  2.68153618  7.49153538
   4.02070129  2.02068374  7.55595724
   2.07766701  3.34267235  7.43208051
 


--------------------------------------------------------------------------------------------------------


 k-point   1 :   0.0000 0.0000 0.0000  plane waves:  189031

 maximum and minimum number of plane-waves per node :    189031   189031

 maximum number of plane-waves:    189031
 maximum index in each direction: 
   IXMAX=   31   IYMAX=   31   IZMAX=   51
   IXMIN=  -31   IYMIN=  -31   IZMIN=  -51


 serial   3D FFT for wavefunctions
 parallel 3D FFT for charge:
    minimum data exchange during FFTs selected (reduces bandwidth)


 total amount of memory used by VASP MPI-rank0   441788. kBytes
=======================================================================

   base      :      30000. kBytes
   nonl-proj :     184518. kBytes
   fftplans  :      31725. kBytes
   grid      :     168095. kBytes
   one-center:        162. kBytes
   wavefun   :      27288. kBytes
 
     INWAV:  cpu time    0.0000: real time    0.0000
 Broyden mixing: mesh for mixing (old mesh)
   NGX = 63   NGY = 63   NGZ =103
  (NGX  =256   NGY  =256   NGZ  =420)
  gives a total of 408807 points

 initial charge density was supplied:
 charge density of overlapping atoms calculated
 number of electron     216.0000000 magnetization 
 keeping initial charge density in first step


--------------------------------------------------------------------------------------------------------


 Maximum index for augmentation-charges          459 (set IRDMAX)


--------------------------------------------------------------------------------------------------------


 First call to EWALD:  gamma=   0.128
 Maximum number of real-space cells 3x 3x 2
 Maximum number of reciprocal cells 3x 3x 4

    FEWALD:  cpu time    0.0024: real time    0.0024


--------------------------------------- Iteration      1(   1)  ---------------------------------------


    POTLOK:  cpu time    0.5716: real time    0.5786
    SETDIJ:  cpu time    0.0371: real time    0.0374
    TRIAL :  cpu time   11.9762: real time   12.0910
    CORREC:  cpu time    0.0005: real time    0.0007
    --------------------------------------------
      LOOP:  cpu time   12.5951: real time   12.7301

 eigenvalue-minimisations  :   336
 total energy-change (2. order) : 0.2460351E+04  (-0.1172580E+05)
 number of electron     216.0000000 magnetization 
 augmentation part      216.0000000 magnetization 

 Free energy of the ion-electron system (eV)
  ---------------------------------------------------
  alpha Z        PSCENC =        59.93625244
  Ewald energy   TEWEN  =     29907.56189182
  -Hartree energ DENC   =    -36083.01706340
  -exchange      EXHF   =         0.00000000
  -V(xc)+E(xc)   XCENC  =       420.79827284
  PAW double counting   =      6525.96553977    -6260.36035765
  entropy T*S    EENTRO =        -0.00000000
  eigenvalues    EBANDS =      -480.05737560
  atomic energy  EATOM  =      8369.52358910
  ---------------------------------------------------
  free energy    TOTEN  =      2460.35074933 eV

  energy without entropy =     2460.35074933  energy(sigma->0) =     2460.35074933


--------------------------------------------------------------------------------------------------------




--------------------------------------- Iteration      1(   2)  ---------------------------------------


    TRIAL :  cpu time   17.9757: real time   18.1715
    CORREC:  cpu time    0.0001: real time    0.0001
    --------------------------------------------
      LOOP:  cpu time   17.9917: real time   18.1997

 eigenvalue-minimisations  :   560
 total energy-change (2. order) :-0.2382110E+04  (-0.2240980E+04)
 number of electron     216.0000000 magnetization 
 augmentation part      216.0000000 magnetization 

 Free energy of the ion-electron system (eV)
  ---------------------------------------------------
  alpha Z        PSCENC =        59.93625244
  Ewald energy   TEWEN  =     29907.56189182
  -Hartree energ DENC   =    -36083.01706340
  -exchange      EXHF   =         0.00000000
  -V(xc)+E(xc)   XCENC  =       420.79827284
  PAW double counting   =      6525.96553977    -6260.36035765
  entropy T*S    EENTRO =        -0.00000000
  eigenvalues    EBANDS =     -2862.16746468
  atomic energy  EATOM  =      8369.52358910
  ---------------------------------------------------
  free energy    TOTEN  =        78.24066025 eV

  energy without entropy =       78.24066025  energy(sigma->0) =       78.24066025


--------------------------------------------------------------------------------------------------------




--------------------------------------- Iteration      1(   3)  ---------------------------------------


    TRIAL :  cpu time   14.9589: real time   15.0933
    CORREC:  cpu time    0.0001: real time    0.0001
    --------------------------------------------
      LOOP:  cpu time   15.0082: real time   15.1455

 eigenvalue-minimisations  :   448
 total energy-change (2. order) :-0.5778914E+03  (-0.5755820E+03)
 number of electron     216.0000000 magnetization 
 augmentation part      216.0000000 magnetization 

 Free energy of the ion-electron system (eV)
  ---------------------------------------------------
  alpha Z        PSCENC =        59.93625244
  Ewald energy   TEWEN  =     29907.56189182
  -Hartree energ DENC   =    -36083.01706340
  -exchange      EXHF   =         0.00000000
  -V(xc)+E(xc)   XCENC  =       420.79827284
  PAW double counting   =      6525.96553977    -6260.36035765
  entropy T*S    EENTRO =        -0.00000000
  eigenvalues    EBANDS =     -3440.05887354
  atomic energy  EATOM  =      8369.52358910
  ---------------------------------------------------
  free energy    TOTEN  =      -499.65074860 eV

  energy without entropy =     -499.65074860  energy(sigma->0) =     -499.65074860


--------------------------------------------------------------------------------------------------------




--------------------------------------- Iteration      1(   4)  ---------------------------------------


    TRIAL :  cpu time   14.9711: real time   15.1347
    CORREC:  cpu time    0.0001: real time    0.0001
    --------------------------------------------
      LOOP:  cpu time   14.9999: real time   15.2104

 eigenvalue-minimisations  :   448
 total energy-change (2. order) :-0.1776585E+02  (-0.1769190E+02)
 number of electron     216.0000000 magnetization 
 augmentation part      216.0000000 magnetization 

 Free energy of the ion-electron system (eV)
  ---------------------------------------------------
  alpha Z        PSCENC =        59.93625244
  Ewald energy   TEWEN  =     29907.56189182
  -Hartree energ DENC   =    -36083.01706340
  -exchange      EXHF   =         0.00000000
  -V(xc)+E(xc)   XCENC  =       420.79827284
  PAW double counting   =      6525.96553977    -6260.36035765
  entropy T*S    EENTRO =        -0.00000000
  eigenvalues    EBANDS =     -3457.82472345
  atomic energy  EATOM  =      8369.52358910
  ---------------------------------------------------
  free energy    TOTEN  =      -517.41659851 eV

  energy without entropy =     -517.41659851  energy(sigma->0) =     -517.41659851


--------------------------------------------------------------------------------------------------------




--------------------------------------- Iteration      1(   5)  ---------------------------------------


    TRIAL :  cpu time   14.9620: real time   15.0951
    CORREC:  cpu time    0.0001: real time    0.0001
    CHARGE:  cpu time    0.6160: real time    0.6206
    --------------------------------------------
      LOOP:  cpu time   15.6033: real time   15.7553

 eigenvalue-minimisations  :   448
 total energy-change (2. order) :-0.6151029E+00  (-0.6130360E+00)
 number of electron     216.0000000 magnetization 
 augmentation part       -0.2710686 magnetization 

 Free energy of the ion-electron system (eV)
  ---------------------------------------------------
  alpha Z        PSCENC =        59.93625244
  Ewald energy   TEWEN  =     29907.56189182
  -Hartree energ DENC   =    -36083.01706340
  -exchange      EXHF   =         0.00000000
  -V(xc)+E(xc)   XCENC  =       420.79827284
  PAW double counting   =      6525.96553977    -6260.36035765
  entropy T*S    EENTRO =        -0.00000000
  eigenvalues    EBANDS =     -3458.43982632
  atomic energy  EATOM  =      8369.52358910
  ---------------------------------------------------
  free energy    TOTEN  =      -518.03170139 eV

  energy without entropy =     -518.03170139  energy(sigma->0) =     -518.03170139


--------------------------------------------------------------------------------------------------------




--------------------------------------- Iteration      1(   6)  ---------------------------------------


    POTLOK:  cpu time    0.5469: real time    0.5506
    SETDIJ:  cpu time    0.0098: real time    0.0098
    TRIAL :  cpu time    5.3987: real time    5.4537
    CORREC:  cpu time    1.7203: real time    1.7360
    CHARGE:  cpu time    0.6108: real time    0.6151
    --------------------------------------------
      LOOP:  cpu time    8.3263: real time    8.4063

 eigenvalue-minimisations  :     0
 total energy-change (2. order) : 0.5132934E+02  (-0.1532957E+02)
 number of electron     216.0000000 magnetization 
 augmentation part       -0.3731315 magnetization 

 Free energy of the ion-electron system (eV)
  ---------------------------------------------------
  alpha Z        PSCENC =        59.93625244
  Ewald energy   TEWEN  =     29907.56189182
  -Hartree energ DENC   =    -37491.86005299
  -exchange      EXHF   =         0.00000000
  -V(xc)+E(xc)   XCENC  =       469.01357867
  PAW double counting   =     90031.93514453   -89774.60932900
  entropy T*S    EENTRO =        -0.00000000
  eigenvalues    EBANDS =     -2038.20343955
  atomic energy  EATOM  =      8369.52358910
  ---------------------------------------------------
  free energy    TOTEN  =      -466.70236498 eV

  energy without entropy =     -466.70236498  energy(sigma->0) =     -466.70236498


--------------------------------------------------------------------------------------------------------




--------------------------------------- Iteration      1(   7)  ---------------------------------------


    POTLOK:  cpu time    0.5454: real time    0.5490
    SETDIJ:  cpu time    0.0100: real time    0.0100
    TRIAL :  cpu time    5.3986: real time    5.4461
    CORREC:  cpu time    1.7244: real time    1.7378
    CHARGE:  cpu time    0.6088: real time    0.6155
    --------------------------------------------
      LOOP:  cpu time    8.3216: real time    8.4031

 eigenvalue-minimisations  :     0
 total energy-change (2. order) :-0.1536116E+02  (-0.1843814E+01)
 number of electron     216.0000000 magnetization 
 augmentation part       -0.4205324 magnetization 

 Free energy of the ion-electron system (eV)
  ---------------------------------------------------
  alpha Z        PSCENC =        59.93625244
  Ewald energy   TEWEN  =     29907.56189182
  -Hartree energ DENC   =    -37006.60011927
  -exchange      EXHF   =         0.00000000
  -V(xc)+E(xc)   XCENC  =       452.39620946
  PAW double counting   =    106147.72894058  -105887.59507881
  entropy T*S    EENTRO =        -0.00000000
  eigenvalues    EBANDS =     -2525.01521406
  atomic energy  EATOM  =      8369.52358910
  ---------------------------------------------------
  free energy    TOTEN  =      -482.06352874 eV

  energy without entropy =     -482.06352874  energy(sigma->0) =     -482.06352874


--------------------------------------------------------------------------------------------------------




--------------------------------------- Iteration      1(   8)  ---------------------------------------


    POTLOK:  cpu time    0.5444: real time    0.5480
    SETDIJ:  cpu time    0.0101: real time    0.0101
    TRIAL :  cpu time    5.4023: real time    5.4452
    CORREC:  cpu time    1.7202: real time    1.7337
    CHARGE:  cpu time    0.6104: real time    0.6145
    --------------------------------------------
      LOOP:  cpu time    8.3260: real time    8.4267

 eigenvalue-minimisations  :     0
 total energy-change (2. order) :-0.1843393E+01  (-0.5332700E+00)
 number of electron     216.0000000 magnetization 
 augmentation part       -0.4350111 magnetization 

 Free energy of the ion-electron system (eV)
  ---------------------------------------------------
  alpha Z        PSCENC =        59.93625244
  Ewald energy   TEWEN  =     29907.56189182
  -Hartree energ DENC   =    -36977.26680596
  -exchange      EXHF   =         0.00000000
  -V(xc)+E(xc)   XCENC  =       451.70418561
  PAW double counting   =    110549.71251447  -110289.14870488
  entropy T*S    EENTRO =        -0.00000000
  eigenvalues    EBANDS =     -2555.92984412
  atomic energy  EATOM  =      8369.52358910
  ---------------------------------------------------
  free energy    TOTEN  =      -483.90692152 eV

  energy without entropy =     -483.90692152  energy(sigma->0) =     -483.90692152


--------------------------------------------------------------------------------------------------------




--------------------------------------- Iteration      1(   9)  ---------------------------------------


    POTLOK:  cpu time    0.5485: real time    0.5520
    SETDIJ:  cpu time    0.0103: real time    0.0103
    TRIAL :  cpu time    5.3910: real time    5.4384
    CORREC:  cpu time    1.7181: real time    1.7357
    CHARGE:  cpu time    0.6114: real time    0.6156
    --------------------------------------------
      LOOP:  cpu time    8.3523: real time    8.4261

 eigenvalue-minimisations  :     0
 total energy-change (2. order) :-0.5331969E+00  (-0.1971113E+00)
 number of electron     216.0000000 magnetization 
 augmentation part       -0.4406938 magnetization 

 Free energy of the ion-electron system (eV)
  ---------------------------------------------------
  alpha Z        PSCENC =        59.93625244
  Ewald energy   TEWEN  =     29907.56189182
  -Hartree energ DENC   =    -36989.45064238
  -exchange      EXHF   =         0.00000000
  -V(xc)+E(xc)   XCENC  =       451.76370927
  PAW double counting   =    113446.13776447  -113185.40975318
  entropy T*S    EENTRO =        -0.00000000
  eigenvalues    EBANDS =     -2544.50293002
  atomic energy  EATOM  =      8369.52358910
  ---------------------------------------------------
  free energy    TOTEN  =      -484.44011847 eV

  energy without entropy =     -484.44011847  energy(sigma->0) =     -484.44011847


--------------------------------------------------------------------------------------------------------




--------------------------------------- Iteration      1(  10)  ---------------------------------------


    POTLOK:  cpu time    0.5479: real time    0.5514
    SETDIJ:  cpu time    0.0102: real time    0.0102
    TRIAL :  cpu time    5.3960: real time    5.4460
    CORREC:  cpu time    1.7207: real time    1.7340
    CHARGE:  cpu time    0.6109: real time    0.6150
    --------------------------------------------
      LOOP:  cpu time    8.2992: real time    8.4007

 eigenvalue-minimisations  :     0
 total energy-change (2. order) :-0.1965966E+00  (-0.8614706E-01)
 number of electron     216.0000000 magnetization 
 augmentation part       -0.4394845 magnetization 

 Free energy of the ion-electron system (eV)
  ---------------------------------------------------
  alpha Z        PSCENC =        59.93625244
  Ewald energy   TEWEN  =     29907.56189182
  -Hartree energ DENC   =    -36987.87968347
  -exchange      EXHF   =         0.00000000
  -V(xc)+E(xc)   XCENC  =       451.60810827
  PAW double counting   =    113807.06799851  -113546.25175688
  entropy T*S    EENTRO =        -0.00000000
  eigenvalues    EBANDS =     -2546.20311485
  atomic energy  EATOM  =      8369.52358910
  ---------------------------------------------------
  free energy    TOTEN  =      -484.63671505 eV

  energy without entropy =     -484.63671505  energy(sigma->0) =     -484.63671505


--------------------------------------------------------------------------------------------------------




--------------------------------------- Iteration      1(  11)  ---------------------------------------


    POTLOK:  cpu time    0.5481: real time    0.5517
    SETDIJ:  cpu time    0.0103: real time    0.0103
    TRIAL :  cpu time    5.4050: real time    5.4503
    CORREC:  cpu time    1.7185: real time    1.7317
    CHARGE:  cpu time    0.6093: real time    0.6136
    --------------------------------------------
      LOOP:  cpu time    8.3354: real time    8.4063

 eigenvalue-minimisations  :     0
 total energy-change (2. order) :-0.8572091E-01  (-0.3221172E-01)
 number of electron     216.0000000 magnetization 
 augmentation part       -0.4377272 magnetization 

 Free energy of the ion-electron system (eV)
  ---------------------------------------------------
  alpha Z        PSCENC =        59.93625244
  Ewald energy   TEWEN  =     29907.56189182
  -Hartree energ DENC   =    -36980.68240904
  -exchange      EXHF   =         0.00000000
  -V(xc)+E(xc)   XCENC  =       451.47853241
  PAW double counting   =    113068.46119905  -112807.65422199
  entropy T*S    EENTRO =        -0.00000000
  eigenvalues    EBANDS =     -2553.34726975
  atomic energy  EATOM  =      8369.52358910
  ---------------------------------------------------
  free energy    TOTEN  =      -484.72243595 eV

  energy without entropy =     -484.72243595  energy(sigma->0) =     -484.72243595


--------------------------------------------------------------------------------------------------------




--------------------------------------- Iteration      1(  12)  ---------------------------------------


    POTLOK:  cpu time    0.5453: real time    0.5488
    SETDIJ:  cpu time    0.0098: real time    0.0098
    TRIAL :  cpu time    5.3922: real time    5.4385
    CORREC:  cpu time    1.7212: real time    1.7342
    CHARGE:  cpu time    0.6098: real time    0.6140
    --------------------------------------------
      LOOP:  cpu time    8.2917: real time    8.3969

 eigenvalue-minimisations  :     0
 total energy-change (2. order) :-0.3212422E-01  (-0.9965209E-02)
 number of electron     216.0000000 magnetization 
 augmentation part       -0.4374831 magnetization 

 Free energy of the ion-electron system (eV)
  ---------------------------------------------------
  alpha Z        PSCENC =        59.93625244
  Ewald energy   TEWEN  =     29907.56189182
  -Hartree energ DENC   =    -36976.96760823
  -exchange      EXHF   =         0.00000000
  -V(xc)+E(xc)   XCENC  =       451.40667126
  PAW double counting   =    112576.57544747  -112315.79801469
  entropy T*S    EENTRO =        -0.00000000
  eigenvalues    EBANDS =     -2556.99278935
  atomic energy  EATOM  =      8369.52358910
  ---------------------------------------------------
  free energy    TOTEN  =      -484.75456017 eV

  energy without entropy =     -484.75456017  energy(sigma->0) =     -484.75456017


--------------------------------------------------------------------------------------------------------




--------------------------------------- Iteration      1(  13)  ---------------------------------------


    POTLOK:  cpu time    0.5426: real time    0.5464
    SETDIJ:  cpu time    0.0099: real time    0.0099
    TRIAL :  cpu time    5.3642: real time    5.4460
    CORREC:  cpu time    1.7119: real time    1.7299
    CHARGE:  cpu time    0.6107: real time    0.6149
    --------------------------------------------
      LOOP:  cpu time    8.3164: real time    8.4283

 eigenvalue-minimisations  :     0
 total energy-change (2. order) :-0.9955003E-02  (-0.2596215E-02)
 number of electron     216.0000000 magnetization 
 augmentation part       -0.4372163 magnetization 

 Free energy of the ion-electron system (eV)
  ---------------------------------------------------
  alpha Z        PSCENC =        59.93625244
  Ewald energy   TEWEN  =     29907.56189182
  -Hartree energ DENC   =    -36976.20656338
  -exchange      EXHF   =         0.00000000
  -V(xc)+E(xc)   XCENC  =       451.37963528
  PAW double counting   =    112429.14295839  -112168.37665630
  entropy T*S    EENTRO =        -0.00000000
  eigenvalues    EBANDS =     -2557.72562254
  atomic energy  EATOM  =      8369.52358910
  ---------------------------------------------------
  free energy    TOTEN  =      -484.76451518 eV

  energy without entropy =     -484.76451518  energy(sigma->0) =     -484.76451518


--------------------------------------------------------------------------------------------------------




--------------------------------------- Iteration      1(  14)  ---------------------------------------


    POTLOK:  cpu time    0.5409: real time    0.5447
    SETDIJ:  cpu time    0.0100: real time    0.0101
    TRIAL :  cpu time    5.3971: real time    5.4419
    CORREC:  cpu time    1.7141: real time    1.7288
    CHARGE:  cpu time    0.6096: real time    0.6144
    --------------------------------------------
      LOOP:  cpu time    8.3472: real time    8.4158

 eigenvalue-minimisations  :     0
 total energy-change (2. order) :-0.2595999E-02  (-0.6580770E-03)
 number of electron     216.0000000 magnetization 
 augmentation part       -0.4369756 magnetization 

 Free energy of the ion-electron system (eV)
  ---------------------------------------------------
  alpha Z        PSCENC =        59.93625244
  Ewald energy   TEWEN  =     29907.56189182
  -Hartree energ DENC   =    -36976.03669401
  -exchange      EXHF   =         0.00000000
  -V(xc)+E(xc)   XCENC  =       451.37429131
  PAW double counting   =    112455.20422594  -112194.44044440
  entropy T*S    EENTRO =        -0.00000000
  eigenvalues    EBANDS =     -2557.89022337
  atomic energy  EATOM  =      8369.52358910
  ---------------------------------------------------
  free energy    TOTEN  =      -484.76711118 eV

  energy without entropy =     -484.76711118  energy(sigma->0) =     -484.76711118


--------------------------------------------------------------------------------------------------------




--------------------------------------- Iteration      1(  15)  ---------------------------------------


    POTLOK:  cpu time    0.5338: real time    0.5427
    SETDIJ:  cpu time    0.0098: real time    0.0098
    TRIAL :  cpu time    5.3811: real time    5.4451
    CORREC:  cpu time    1.7118: real time    1.7251
    CHARGE:  cpu time    0.6099: real time    0.6140
    --------------------------------------------
      LOOP:  cpu time    8.2837: real time    8.4698

 eigenvalue-minimisations  :     0
 total energy-change (2. order) :-0.6589797E-03  (-0.1899357E-03)
 number of electron     216.0000000 magnetization 
 augmentation part       -0.4367923 magnetization 

 Free energy of the ion-electron system (eV)
  ---------------------------------------------------
  alpha Z        PSCENC =        59.93625244
  Ewald energy   TEWEN  =     29907.56189182
  -Hartree energ DENC   =    -36975.84132939
  -exchange      EXHF   =         0.00000000
  -V(xc)+E(xc)   XCENC  =       451.36803283
  PAW double counting   =    112486.06260693  -112225.29839196
  entropy T*S    EENTRO =        -0.00000000
  eigenvalues    EBANDS =     -2558.08042195
  atomic energy  EATOM  =      8369.52358910
  ---------------------------------------------------
  free energy    TOTEN  =      -484.76777016 eV

  energy without entropy =     -484.76777016  energy(sigma->0) =     -484.76777016


--------------------------------------------------------------------------------------------------------




--------------------------------------- Iteration      1(  16)  ---------------------------------------


    POTLOK:  cpu time    0.5406: real time    0.5441
    SETDIJ:  cpu time    0.0101: real time    0.0102
    TRIAL :  cpu time    5.3879: real time    5.4362
    CORREC:  cpu time    1.7129: real time    1.7263
    CHARGE:  cpu time    0.6239: real time    0.6292
    --------------------------------------------
      LOOP:  cpu time    8.3104: real time    8.3812

 eigenvalue-minimisations  :     0
 total energy-change (2. order) :-0.1907431E-03  (-0.5881586E-04)
 number of electron     216.0000000 magnetization 
 augmentation part       -0.4366602 magnetization 

 Free energy of the ion-electron system (eV)
  ---------------------------------------------------
  alpha Z        PSCENC =        59.93625244
  Ewald energy   TEWEN  =     29907.56189182
  -Hartree energ DENC   =    -36975.91106332
  -exchange      EXHF   =         0.00000000
  -V(xc)+E(xc)   XCENC  =       451.36930567
  PAW double counting   =    112476.68812458  -112215.92388859
  entropy T*S    EENTRO =        -0.00000000
  eigenvalues    EBANDS =     -2558.01217259
  atomic energy  EATOM  =      8369.52358910
  ---------------------------------------------------
  free energy    TOTEN  =      -484.76796090 eV

  energy without entropy =     -484.76796090  energy(sigma->0) =     -484.76796090


--------------------------------------------------------------------------------------------------------




--------------------------------------- Iteration      1(  17)  ---------------------------------------


    POTLOK:  cpu time    0.5450: real time    0.5487
    SETDIJ:  cpu time    0.0100: real time    0.0101
    TRIAL :  cpu time    5.4288: real time    5.4777
    CORREC:  cpu time    1.7259: real time    1.7394
    CHARGE:  cpu time    0.6439: real time    0.6509
    --------------------------------------------
      LOOP:  cpu time    8.3701: real time    8.4568

 eigenvalue-minimisations  :     0
 total energy-change (2. order) :-0.5925115E-04  (-0.2036896E-04)
 number of electron     216.0000000 magnetization 
 augmentation part       -0.4366367 magnetization 

 Free energy of the ion-electron system (eV)
  ---------------------------------------------------
  alpha Z        PSCENC =        59.93625244
  Ewald energy   TEWEN  =     29907.56189182
  -Hartree energ DENC   =    -36976.06109523
  -exchange      EXHF   =         0.00000000
  -V(xc)+E(xc)   XCENC  =       451.37420489
  PAW double counting   =    112460.09322830  -112199.32942350
  entropy T*S    EENTRO =        -0.00000000
  eigenvalues    EBANDS =     -2557.86666798
  atomic energy  EATOM  =      8369.52358910
  ---------------------------------------------------
  free energy    TOTEN  =      -484.76802015 eV

  energy without entropy =     -484.76802015  energy(sigma->0) =     -484.76802015


--------------------------------------------------------------------------------------------------------




--------------------------------------- Iteration      1(  18)  ---------------------------------------


    POTLOK:  cpu time    0.5426: real time    0.5464
    SETDIJ:  cpu time    0.0102: real time    0.0102
    TRIAL :  cpu time    5.3967: real time    5.4437
    CORREC:  cpu time    1.7179: real time    1.7312
    CHARGE:  cpu time    0.6097: real time    0.6143
    --------------------------------------------
      LOOP:  cpu time    8.2901: real time    8.3834

 eigenvalue-minimisations  :     0
 total energy-change (2. order) :-0.2064147E-04  (-0.6867765E-05)
 number of electron     216.0000000 magnetization 
 augmentation part       -0.4366550 magnetization 

 Free energy of the ion-electron system (eV)
  ---------------------------------------------------
  alpha Z        PSCENC =        59.93625244
  Ewald energy   TEWEN  =     29907.56189182
  -Hartree energ DENC   =    -36976.08445296
  -exchange      EXHF   =         0.00000000
  -V(xc)+E(xc)   XCENC  =       451.37431926
  PAW double counting   =    112456.33217394  -112195.56803933
  entropy T*S    EENTRO =        -0.00000000
  eigenvalues    EBANDS =     -2557.84377507
  atomic energy  EATOM  =      8369.52358910
  ---------------------------------------------------
  free energy    TOTEN  =      -484.76804079 eV

  energy without entropy =     -484.76804079  energy(sigma->0) =     -484.76804079


--------------------------------------------------------------------------------------------------------




--------------------------------------- Iteration      1(  19)  ---------------------------------------


    POTLOK:  cpu time    0.5409: real time    0.5443
    SETDIJ:  cpu time    0.0102: real time    0.0102
    TRIAL :  cpu time    5.4010: real time    5.4444
    CORREC:  cpu time    1.7084: real time    1.7240
    CHARGE:  cpu time    0.6380: real time    0.6424
    --------------------------------------------
      LOOP:  cpu time    8.3820: real time    8.4506

 eigenvalue-minimisations  :     0
 total energy-change (2. order) :-0.6804141E-05  (-0.2551829E-05)
 number of electron     216.0000000 magnetization 
 augmentation part       -0.4366890 magnetization 

 Free energy of the ion-electron system (eV)
  ---------------------------------------------------
  alpha Z        PSCENC =        59.93625244
  Ewald energy   TEWEN  =     29907.56189182
  -Hartree energ DENC   =    -36976.11095195
  -exchange      EXHF   =         0.00000000
  -V(xc)+E(xc)   XCENC  =       451.37514447
  PAW double counting   =    112460.71721017  -112199.95291967
  entropy T*S    EENTRO =        -0.00000000
  eigenvalues    EBANDS =     -2557.81826398
  atomic energy  EATOM  =      8369.52358910
  ---------------------------------------------------
  free energy    TOTEN  =      -484.76804760 eV

  energy without entropy =     -484.76804760  energy(sigma->0) =     -484.76804760


--------------------------------------------------------------------------------------------------------




--------------------------------------- Iteration      1(  20)  ---------------------------------------


    POTLOK:  cpu time    0.5429: real time    0.5470
    SETDIJ:  cpu time    0.0098: real time    0.0099
    TRIAL :  cpu time    5.3904: real time    5.4412
    CORREC:  cpu time    1.7127: real time    1.7273
    CHARGE:  cpu time    0.6088: real time    0.6159
    --------------------------------------------
      LOOP:  cpu time    8.3196: real time    8.4073

 eigenvalue-minimisations  :     0
 total energy-change (2. order) :-0.2330198E-05  (-0.8824893E-06)
 number of electron     216.0000000 magnetization 
 augmentation part       -0.4367046 magnetization 

 Free energy of the ion-electron system (eV)
  ---------------------------------------------------
  alpha Z        PSCENC =        59.93625244
  Ewald energy   TEWEN  =     29907.56189182
  -Hartree energ DENC   =    -36976.13277501
  -exchange      EXHF   =         0.00000000
  -V(xc)+E(xc)   XCENC  =       451.37564763
  PAW double counting   =    112465.62919085  -112204.86477016
  entropy T*S    EENTRO =        -0.00000000
  eigenvalues    EBANDS =     -2557.79707660
  atomic energy  EATOM  =      8369.52358910
  ---------------------------------------------------
  free energy    TOTEN  =      -484.76804993 eV

  energy without entropy =     -484.76804993  energy(sigma->0) =     -484.76804993


--------------------------------------------------------------------------------------------------------




--------------------------------------- Iteration      1(  21)  ---------------------------------------


    POTLOK:  cpu time    0.5427: real time    0.5461
    SETDIJ:  cpu time    0.0099: real time    0.0100
    TRIAL :  cpu time    5.4016: real time    5.4438
    CORREC:  cpu time    1.7224: real time    1.7357
    CHARGE:  cpu time    0.6065: real time    0.6107
    --------------------------------------------
      LOOP:  cpu time    8.3441: real time    8.4088

 eigenvalue-minimisations  :     0
 total energy-change (2. order) :-0.7138879E-06  (-0.3740293E-06)
 number of electron     216.0000000 magnetization 
 augmentation part       -0.4367041 magnetization 

 Free energy of the ion-electron system (eV)
  ---------------------------------------------------
  alpha Z        PSCENC =        59.93625244
  Ewald energy   TEWEN  =     29907.56189182
  -Hartree energ DENC   =    -36976.13634257
  -exchange      EXHF   =         0.00000000
  -V(xc)+E(xc)   XCENC  =       451.37562761
  PAW double counting   =    112467.39084003  -112206.62637553
  entropy T*S    EENTRO =        -0.00000000
  eigenvalues    EBANDS =     -2557.79353355
  atomic energy  EATOM  =      8369.52358910
  ---------------------------------------------------
  free energy    TOTEN  =      -484.76805064 eV

  energy without entropy =     -484.76805064  energy(sigma->0) =     -484.76805064


--------------------------------------------------------------------------------------------------------




--------------------------------------- Iteration      1(  22)  ---------------------------------------


    POTLOK:  cpu time    0.5419: real time    0.5456
    SETDIJ:  cpu time    0.0098: real time    0.0098
    TRIAL :  cpu time    5.3923: real time    5.4387
    CORREC:  cpu time    1.7459: real time    1.7593
    CHARGE:  cpu time    0.6080: real time    0.6121
    --------------------------------------------
      LOOP:  cpu time    8.3591: real time    8.4291

 eigenvalue-minimisations  :     0
 total energy-change (2. order) :-0.2792221E-06  (-0.1641457E-06)
 number of electron     216.0000000 magnetization 
 augmentation part       -0.4367031 magnetization 

 Free energy of the ion-electron system (eV)
  ---------------------------------------------------
  alpha Z        PSCENC =        59.93625244
  Ewald energy   TEWEN  =     29907.56189182
  -Hartree energ DENC   =    -36976.13602160
  -exchange      EXHF   =         0.00000000
  -V(xc)+E(xc)   XCENC  =       451.37562957
  PAW double counting   =    112466.65143653  -112205.88702093
  entropy T*S    EENTRO =        -0.00000000
  eigenvalues    EBANDS =     -2557.79380786
  atomic energy  EATOM  =      8369.52358910
  ---------------------------------------------------
  free energy    TOTEN  =      -484.76805092 eV

  energy without entropy =     -484.76805092  energy(sigma->0) =     -484.76805092


--------------------------------------------------------------------------------------------------------




--------------------------------------- Iteration      1(  23)  ---------------------------------------


    POTLOK:  cpu time    0.5412: real time    0.5447
    SETDIJ:  cpu time    0.0101: real time    0.0102
    TRIAL :  cpu time    5.3960: real time    5.4444
    CORREC:  cpu time    1.7129: real time    1.7264
    CHARGE:  cpu time    0.6078: real time    0.6122
    --------------------------------------------
      LOOP:  cpu time    8.3694: real time    8.4424

 eigenvalue-minimisations  :     0
 total energy-change (2. order) :-0.1326407E-06  (-0.1299040E-06)
 number of electron     216.0000000 magnetization 
 augmentation part       -0.4367017 magnetization 

 Free energy of the ion-electron system (eV)
  ---------------------------------------------------
  alpha Z        PSCENC =        59.93625244
  Ewald energy   TEWEN  =     29907.56189182
  -Hartree energ DENC   =    -36976.13194531
  -exchange      EXHF   =         0.00000000
  -V(xc)+E(xc)   XCENC  =       451.37550122
  PAW double counting   =    112465.68361625  -112204.91921748
  entropy T*S    EENTRO =        -0.00000000
  eigenvalues    EBANDS =     -2557.79773910
  atomic energy  EATOM  =      8369.52358910
  ---------------------------------------------------
  free energy    TOTEN  =      -484.76805105 eV

  energy without entropy =     -484.76805105  energy(sigma->0) =     -484.76805105


--------------------------------------------------------------------------------------------------------




--------------------------------------- Iteration      1(  24)  ---------------------------------------


    POTLOK:  cpu time    0.5408: real time    0.5442
    SETDIJ:  cpu time    0.0102: real time    0.0102
    TRIAL :  cpu time    5.3904: real time    5.4405
    CORREC:  cpu time    1.7629: real time    1.7775
    CHARGE:  cpu time    0.6127: real time    0.6174
    --------------------------------------------
      LOOP:  cpu time    8.3843: real time    8.4883

 eigenvalue-minimisations  :     0
 total energy-change (2. order) :-0.7587369E-07  (-0.1413535E-06)
 number of electron     216.0000000 magnetization 
 augmentation part       -0.4367009 magnetization 

 Free energy of the ion-electron system (eV)
  ---------------------------------------------------
  alpha Z        PSCENC =        59.93625244
  Ewald energy   TEWEN  =     29907.56189182
  -Hartree energ DENC   =    -36976.12749330
  -exchange      EXHF   =         0.00000000
  -V(xc)+E(xc)   XCENC  =       451.37541339
  PAW double counting   =    112464.74458031  -112203.98019440
  entropy T*S    EENTRO =        -0.00000000
  eigenvalues    EBANDS =     -2557.80209048
  atomic energy  EATOM  =      8369.52358910
  ---------------------------------------------------
  free energy    TOTEN  =      -484.76805113 eV

  energy without entropy =     -484.76805113  energy(sigma->0) =     -484.76805113


--------------------------------------------------------------------------------------------------------




--------------------------------------- Iteration      1(  25)  ---------------------------------------


    POTLOK:  cpu time    0.5418: real time    0.5452
    SETDIJ:  cpu time    0.0101: real time    0.0101
    TRIAL :  cpu time    5.4008: real time    5.4427
    CORREC:  cpu time    1.7138: real time    1.7292
    CHARGE:  cpu time    0.6112: real time    0.6153
    --------------------------------------------
      LOOP:  cpu time    8.3320: real time    8.3995

 eigenvalue-minimisations  :     0
 total energy-change (2. order) : 0.2524612E-06  (-0.2541343E-06)
 number of electron     216.0000000 magnetization 
 augmentation part       -0.4367037 magnetization 

 Free energy of the ion-electron system (eV)
  ---------------------------------------------------
  alpha Z        PSCENC =        59.93625244
  Ewald energy   TEWEN  =     29907.56189182
  -Hartree energ DENC   =    -36976.12345826
  -exchange      EXHF   =         0.00000000
  -V(xc)+E(xc)   XCENC  =       451.37543166
  PAW double counting   =    112463.96743815  -112203.20306052
  entropy T*S    EENTRO =        -0.00000000
  eigenvalues    EBANDS =     -2557.80613526
  atomic energy  EATOM  =      8369.52358910
  ---------------------------------------------------
  free energy    TOTEN  =      -484.76805088 eV

  energy without entropy =     -484.76805088  energy(sigma->0) =     -484.76805088


--------------------------------------------------------------------------------------------------------




--------------------------------------- Iteration      1(  26)  ---------------------------------------


    POTLOK:  cpu time    0.5394: real time    0.5429
    SETDIJ:  cpu time    0.0100: real time    0.0100
    TRIAL :  cpu time    5.3998: real time    5.4434
    CORREC:  cpu time    1.7117: real time    1.7291
    CHARGE:  cpu time    0.6085: real time    0.6126
    --------------------------------------------
      LOOP:  cpu time    8.3147: real time    8.4206

 eigenvalue-minimisations  :     0
 total energy-change (2. order) :-0.2386514E-06  (-0.1182417E-06)
 number of electron     216.0000000 magnetization 
 augmentation part       -0.4367006 magnetization 

 Free energy of the ion-electron system (eV)
  ---------------------------------------------------
  alpha Z        PSCENC =        59.93625244
  Ewald energy   TEWEN  =     29907.56189182
  -Hartree energ DENC   =    -36976.12153761
  -exchange      EXHF   =         0.00000000
  -V(xc)+E(xc)   XCENC  =       451.37526886
  PAW double counting   =    112464.14377556  -112203.37936183
  entropy T*S    EENTRO =        -0.00000000
  eigenvalues    EBANDS =     -2557.80792946
  atomic energy  EATOM  =      8369.52358910
  ---------------------------------------------------
  free energy    TOTEN  =      -484.76805111 eV

  energy without entropy =     -484.76805111  energy(sigma->0) =     -484.76805111


--------------------------------------------------------------------------------------------------------




--------------------------------------- Iteration      1(  27)  ---------------------------------------


    POTLOK:  cpu time    0.5416: real time    0.5452
    SETDIJ:  cpu time    0.0099: real time    0.0099
    TRIAL :  cpu time    5.3905: real time    5.4452
    CORREC:  cpu time    1.7201: real time    1.7334
    CHARGE:  cpu time    0.6104: real time    0.6146
    --------------------------------------------
      LOOP:  cpu time    8.3341: real time    8.4125

 eigenvalue-minimisations  :     0
 total energy-change (2. order) : 0.3856258E-07  (-0.1142867E-06)
 number of electron     216.0000000 magnetization 
 augmentation part       -0.4367042 magnetization 

 Free energy of the ion-electron system (eV)
  ---------------------------------------------------
  alpha Z        PSCENC =        59.93625244
  Ewald energy   TEWEN  =     29907.56189182
  -Hartree energ DENC   =    -36976.13043681
  -exchange      EXHF   =         0.00000000
  -V(xc)+E(xc)   XCENC  =       451.37560816
  PAW double counting   =    112464.74066558  -112203.97629461
  entropy T*S    EENTRO =        -0.00000000
  eigenvalues    EBANDS =     -2557.79932676
  atomic energy  EATOM  =      8369.52358910
  ---------------------------------------------------
  free energy    TOTEN  =      -484.76805108 eV

  energy without entropy =     -484.76805108  energy(sigma->0) =     -484.76805108


--------------------------------------------------------------------------------------------------------




--------------------------------------- Iteration      1(  28)  ---------------------------------------


    POTLOK:  cpu time    0.5396: real time    0.5432
    SETDIJ:  cpu time    0.0101: real time    0.0101
    TRIAL :  cpu time    5.3991: real time    5.4452
    CORREC:  cpu time    1.6203: real time    1.6326
    CHARGE:  cpu time    0.6390: real time    0.6433
    --------------------------------------------
      LOOP:  cpu time    8.2652: real time    8.3336

 eigenvalue-minimisations  :     0
 total energy-change (2. order) :-0.1046865E-06  ( 0.1365926E-07)
 number of electron     216.0000000 magnetization 
 augmentation part       -0.4367035 magnetization 

 Free energy of the ion-electron system (eV)
  ---------------------------------------------------
  alpha Z        PSCENC =        59.93625244
  Ewald energy   TEWEN  =     29907.56189182
  -Hartree energ DENC   =    -36976.12633393
  -exchange      EXHF   =         0.00000000
  -V(xc)+E(xc)   XCENC  =       451.37537881
  PAW double counting   =    112464.83347176  -112204.06905624
  entropy T*S    EENTRO =        -0.00000000
  eigenvalues    EBANDS =     -2557.80324496
  atomic energy  EATOM  =      8369.52358910
  ---------------------------------------------------
  free energy    TOTEN  =      -484.76805118 eV

  energy without entropy =     -484.76805118  energy(sigma->0) =     -484.76805118


--------------------------------------------------------------------------------------------------------




--------------------------------------- Iteration      1(  29)  ---------------------------------------


[...]
     30     C        0.00011693
     31     C       -0.00013579
     32     C       -0.00009325
     33     C        0.00007205
     34     C        0.00009160
     35     C        0.00009691
     36     C        0.00006889
     37     C        0.00000790
     38     C        0.00000327
     39     C       -0.00004743
     40     C       -0.00002090
     41     C       -0.00002771
     42     C       -0.00007362
     43     C        0.00003751
     44     C       -0.00001616
     45     C        0.00011739
     46     C        0.00009630
     47     C        0.00008030
     48     C        0.00010677
     49     C        0.00001293
     50     C        0.00002415
     51     C        0.29455012
     52     O       -0.14763722
     53     O       -0.14768006

  Atomic reference data used in the T-S method for vdW correction:
            C6at              R0at           ALPHAat      REFSTATE
            (au)              (au)            (au)                
   ---------------------------------------------------------------
   C          46.600          3.590         12.000         0
   O          15.600          3.194          5.400         0
 
 Nth order contribution to Edisp (eV)
 Edisp(N=2):  -4.41917300728046     
 Edisp(N=3):  0.298422804790777     
 Edisp(N=4): -0.467154554477977     
 Edisp(N=5):  0.199814524781724     
 Edisp(N=6): -0.190045422517734     
 Edisp(N=inf):  -4.50787441214870     

  Tkatchenko/Scheffler method for vdW energy calculation
  ---------------------------------------------------------------------------------------------

  Parameters of vdW forcefield:
            C6ts              R0ts          ALPHAts         R0scs        ALPHAscs        RELVOL 
            (au)              (au)           (au)            (au)          (au)                 
   ---------------------------------------------------------------------------------------------
   C          32.895          3.388         10.082          3.266          9.032          0.840
   C          32.896          3.388         10.082          3.266          9.031          0.840
   C          32.903          3.388         10.083          3.266          9.033          0.840
   C          32.910          3.388         10.084          3.266          9.030          0.840
   C          32.889          3.388         10.081          3.266          9.030          0.840
   C          32.887          3.388         10.081          3.266          9.029          0.840
   C          32.903          3.388         10.083          3.266          9.034          0.840
   C          32.899          3.388         10.083          3.266          9.035          0.840
   C          32.896          3.388         10.082          3.266          9.033          0.840
   C          32.903          3.388         10.083          3.266          9.036          0.840
   C          32.886          3.388         10.081          3.266          9.032          0.840
   C          32.887          3.388         10.081          3.266          9.031          0.840
   C          32.903          3.388         10.083          3.266          9.035          0.840
   C          32.895          3.388         10.082          3.266          9.031          0.840
   C          32.887          3.388         10.081          3.265          9.027          0.840
   C          32.890          3.388         10.081          3.266          9.028          0.840
   C          32.890          3.388         10.081          3.266          9.031          0.840
   C          32.892          3.388         10.082          3.266          9.030          0.840
   C          32.896          3.388         10.082          3.266          9.032          0.840
   C          32.891          3.388         10.082          3.266          9.030          0.840
   C          32.890          3.388         10.081          3.266          9.028          0.840
   C          32.886          3.388         10.081          3.265          9.028          0.840
   C          32.913          3.388         10.085          3.266          9.030          0.840
   C          32.912          3.388         10.085          3.266          9.030          0.840
   C          32.885          3.388         10.081          3.266          9.032          0.840
   C          32.887          3.388         10.081          3.266          9.031          0.840
   C          32.897          3.388         10.082          3.266          9.035          0.840
   C          32.900          3.388         10.083          3.266          9.033          0.840
   C          32.888          3.388         10.081          3.266          9.028          0.840
   C          32.886          3.388         10.081          3.266          9.031          0.840
   C          32.906          3.388         10.084          3.266          9.031          0.840
   C          32.900          3.388         10.083          3.266          9.033          0.840
   C          32.888          3.388         10.081          3.266          9.031          0.840
   C          32.887          3.388         10.081          3.266          9.032          0.840
   C          32.888          3.388         10.081          3.266          9.031          0.840
   C          32.889          3.388         10.081          3.266          9.031          0.840
   C          32.894          3.388         10.082          3.266          9.030          0.840
   C          32.893          3.388         10.082          3.266          9.030          0.840
   C          32.896          3.388         10.082          3.266          9.032          0.840
   C          32.895          3.388         10.082          3.266          9.032          0.840
   C          32.895          3.388         10.082          3.266          9.032          0.840
   C          32.898          3.388         10.083          3.266          9.033          0.840
   C          32.891          3.388         10.082          3.266          9.030          0.840
   C          32.897          3.388         10.082          3.266          9.032          0.840
   C          32.886          3.388         10.081          3.266          9.031          0.840
   C          32.888          3.388         10.081          3.266          9.028          0.840
   C          32.887          3.388         10.081          3.266          9.031          0.840
   C          32.886          3.388         10.081          3.266          9.032          0.840
   C          32.892          3.388         10.082          3.266          9.031          0.840
   C          32.891          3.388         10.082          3.266          9.031          0.840
   C          26.355          3.265          9.024          3.199          8.490          0.752
   O          12.456          3.076          4.825          3.036          4.637          0.894
   O          12.456          3.076          4.825          3.036          4.638          0.894

  vdW correction parametrized for the method pbe       

  IVDW = 202
  VDW_RADIUS =    50.000 A
  VDW_SR =     0.830
  VDW_D =     6.000
  SCSRAD =   120.000 A
  LVDWSCS = T
  LSCSGRAD = T
  LSCALER0 = T
  ITIM = -1
  Edisp (eV):   -4.50787
    FORVDW:  cpu time   18.0056: real time   18.1256

 VOLUME and BASIS-vectors are now :
 -----------------------------------------------------------------------------
  energy-cutoff  :     1000.00
  volume of cell :     2631.08
      direct lattice vectors                 reciprocal lattice vectors
    12.325000000  0.000000000  0.000000000     0.081135903  0.046843835  0.000000000
    -6.162500000 10.673763102  0.000000000     0.000000000  0.093687670  0.000000000
     0.000000000  0.000000000 20.000000000     0.000000000  0.000000000  0.050000000

  length of vectors
    12.325000000 12.325000000 20.000000000     0.093687670  0.093687670  0.050000000


 FORCES acting on ions:
    Electron-Ion                     Ewald-Force                    Non-Local-Force
 -----------------------------------------------------------------------------------------------
   0.114E+01 0.995E+00 0.101E+02   -.114E+01 -.996E+00 -.102E+02   0.481E-02 -.681E-03 0.605E-02
   0.157E+01 0.815E+00 0.114E+02   -.157E+01 -.812E+00 -.114E+02   0.350E-02 -.321E-02 -.563E-02
   0.635E+00 0.173E+01 0.116E+02   -.636E+00 -.173E+01 -.116E+02   -.116E-03 0.119E-01 -.973E-03
   0.797E+00 0.116E+01 0.143E+02   -.796E+00 -.115E+01 -.143E+02   0.118E-01 0.886E-03 -.147E-01
   0.124E+01 0.311E+00 0.106E+02   -.124E+01 -.312E+00 -.106E+02   -.291E-03 -.551E-02 0.344E-02
   0.126E+01 -.277E+00 0.107E+02   -.127E+01 0.278E+00 -.107E+02   -.629E-02 0.335E-02 -.269E-02
   0.154E+01 0.613E+00 0.141E+02   -.154E+01 -.614E+00 -.141E+02   0.122E-01 -.192E-01 -.622E-02
   0.154E+01 -.518E+00 0.153E+02   -.154E+01 0.521E+00 -.153E+02   -.665E-02 -.557E-02 -.553E-02
   -.767E+00 0.163E+01 0.120E+02   0.771E+00 -.164E+01 -.120E+02   -.347E-03 -.126E-01 -.481E-02
   -.103E+01 0.886E+00 0.145E+02   0.103E+01 -.888E+00 -.145E+02   -.262E-01 0.151E-01 0.246E-02
   0.326E+00 -.342E+00 0.967E+01   -.323E+00 0.342E+00 -.967E+01   0.372E-02 -.278E-02 0.217E-03
   0.310E+00 -.261E+00 0.940E+01   -.310E+00 0.261E+00 -.941E+01   -.687E-02 0.339E-02 0.618E-02
   0.515E+00 -.123E+01 0.162E+02   -.516E+00 0.123E+01 -.162E+02   0.269E-01 -.787E-02 -.213E-02
   0.320E+00 -.180E+01 0.131E+02   -.325E+00 0.181E+01 -.131E+02   0.401E-02 0.643E-02 -.158E-01
   -.115E+01 0.694E+00 0.101E+02   0.115E+01 -.695E+00 -.101E+02   0.734E-02 -.387E-02 0.750E-02
   -.148E+01 0.425E+00 0.105E+02   0.148E+01 -.426E+00 -.105E+02   -.195E-02 0.539E-02 -.473E-02
   -.212E+00 -.848E-01 0.898E+01   0.216E+00 0.830E-01 -.898E+01   -.346E-03 0.393E-03 0.206E-02
   0.942E-01 0.725E+00 0.913E+01   -.934E-01 -.726E+00 -.914E+01   -.299E-02 0.164E-02 0.923E-02
   -.296E+00 -.174E+01 0.115E+02   0.295E+00 0.174E+01 -.115E+02   0.614E-02 -.185E-02 0.338E-03
   -.174E+00 -.106E+01 0.988E+01   0.171E+00 0.106E+01 -.988E+01   0.108E-03 -.114E-02 -.647E-03
   0.161E+01 -.697E+00 0.123E+02   -.161E+01 0.698E+00 -.123E+02   -.142E-02 -.243E-02 -.163E-01
   0.114E+01 -.920E+00 0.112E+02   -.115E+01 0.921E+00 -.112E+02   -.675E-02 0.525E-02 -.194E-02
   -.277E+00 0.495E+00 0.163E+02   0.274E+00 -.494E+00 -.163E+02   -.103E-01 0.106E-01 0.991E-03
   -.386E+00 -.784E+00 0.163E+02   0.388E+00 0.783E+00 -.162E+02   0.121E-01 -.149E-01 -.104E-01
   0.625E+00 -.228E+00 0.975E+01   -.623E+00 0.227E+00 -.975E+01   0.362E-02 -.263E-02 -.297E-02
   0.173E+00 0.538E+00 0.962E+01   -.173E+00 -.538E+00 -.963E+01   -.523E-02 0.348E-02 0.577E-02
   -.178E+01 0.204E+00 0.125E+02   0.178E+01 -.207E+00 -.125E+02   0.115E-01 0.796E-02 -.220E-02
   -.167E+01 -.679E+00 0.119E+02   0.168E+01 0.679E+00 -.119E+02   -.885E-02 0.907E-02 0.705E-03
   0.638E+00 -.131E+01 0.114E+02   -.638E+00 0.131E+01 -.114E+02   0.457E-02 0.207E-02 -.655E-02
   0.559E-01 -.577E+00 0.101E+02   -.582E-01 0.579E+00 -.101E+02   -.476E-02 0.233E-02 -.203E-02
   -.119E+01 -.121E+01 0.131E+02   0.119E+01 0.121E+01 -.131E+02   -.119E-01 -.815E-02 -.128E-01
   -.873E+00 -.165E+01 0.114E+02   0.874E+00 0.165E+01 -.114E+02   0.584E-03 -.120E-02 0.192E-02
   0.730E-01 0.353E+00 0.929E+01   -.732E-01 -.353E+00 -.929E+01   0.513E-02 -.469E-02 0.726E-02
   0.207E+00 0.321E+00 0.954E+01   -.210E+00 -.320E+00 -.954E+01   -.225E-02 0.461E-02 -.907E-03
   -.783E+00 0.144E+00 0.979E+01   0.786E+00 -.145E+00 -.979E+01   0.405E-02 -.242E-02 0.615E-02
   -.694E+00 -.317E+00 0.970E+01   0.694E+00 0.317E+00 -.970E+01   -.408E-02 0.239E-02 0.395E-02
   -.131E+01 -.706E+00 0.101E+02   0.132E+01 0.704E+00 -.101E+02   -.115E-02 0.978E-03 0.335E-02
   -.873E+00 -.698E+00 0.951E+01   0.874E+00 0.699E+00 -.952E+01   -.398E-02 0.125E-02 0.895E-02
   -.792E+00 -.100E+01 0.978E+01   0.793E+00 0.101E+01 -.978E+01   -.297E-02 0.163E-03 0.463E-02
   -.118E+00 -.278E+00 0.926E+01   0.119E+00 0.278E+00 -.926E+01   0.187E-02 0.604E-03 0.725E-02
   0.300E+00 0.752E+00 0.927E+01   -.301E+00 -.753E+00 -.927E+01   -.395E-02 0.175E-02 0.678E-02
   0.904E+00 0.138E+01 0.102E+02   -.903E+00 -.138E+01 -.102E+02   -.632E-03 -.796E-03 0.746E-02
   0.994E-01 0.124E+01 0.957E+01   -.959E-01 -.124E+01 -.958E+01   -.303E-03 0.883E-03 0.225E-02
   -.905E-02 0.180E+01 0.111E+02   0.102E-01 -.180E+01 -.111E+02   -.812E-02 0.195E-02 0.512E-02
   -.239E+00 0.444E+00 0.985E+01   0.241E+00 -.446E+00 -.985E+01   0.407E-02 -.296E-02 0.167E-02
   -.865E+00 0.108E+01 0.105E+02   0.866E+00 -.108E+01 -.105E+02   -.628E-02 0.376E-03 -.120E-02
   -.242E+00 -.547E+00 0.974E+01   0.242E+00 0.547E+00 -.974E+01   0.628E-02 -.137E-02 0.610E-02
   -.495E+00 0.175E+00 0.930E+01   0.494E+00 -.174E+00 -.930E+01   -.359E-02 0.325E-02 -.276E-02
   0.502E-01 -.337E+00 0.930E+01   -.506E-01 0.337E+00 -.930E+01   0.427E-02 -.315E-02 0.570E-02
   0.537E+00 0.382E+00 0.928E+01   -.539E+00 -.381E+00 -.928E+01   -.142E-03 0.167E-02 0.327E-02
   -.148E-03 0.248E-01 -.138E+03   -.413E-02 -.210E-01 0.138E+03   -.292E-02 0.191E-02 -.281E-02
   -.229E+03 0.156E+03 -.218E+03   0.279E+03 -.190E+03 0.221E+03   -.511E+02 0.348E+02 -.343E+01
   0.229E+03 -.156E+03 -.198E+03   -.279E+03 0.190E+03 0.195E+03   0.511E+02 -.348E+02 0.309E+01
 -----------------------------------------------------------------------------------------------
   -.717E-02 0.138E-01 0.342E+00   0.568E-13 0.284E-13 0.853E-13   0.726E-02 -.138E-01 -.341E+00
 
 
 POSITION                                       TOTAL-FORCE (eV/Angst)
 -----------------------------------------------------------------------------------
     11.98348      0.00342      0.01417         0.003203     -0.001633     -0.001116
     -0.34154      1.42665      0.01100        -0.000652     -0.000079     -0.003448
      2.12355      0.00315      0.01249        -0.001692      0.010772     -0.006489
      2.12326      1.42653      0.00641         0.013356      0.001307     -0.008229
     10.75099      2.13819      0.01213         0.000299     -0.005696     -0.000097
     -1.57382      3.56123      0.01110        -0.008946      0.004803     -0.001443
      0.89078      2.13854      0.00548         0.009602     -0.019045      0.002542
      0.89099      3.56147      0.00181        -0.011847     -0.002454      0.012084
      4.58864      0.00346      0.01135         0.003618     -0.015864     -0.003523
      4.58894      1.42623      0.00646        -0.023637      0.013341      0.013987
      9.51854      4.27281      0.01369         0.006576     -0.003105      0.000087
     -2.80632      5.69591      0.01434        -0.006490      0.003372      0.000687
      2.12300      4.27302      0.00000         0.025104     -0.005073      0.020745
      2.12335      5.69594      0.00581        -0.000523      0.009163     -0.002529
      7.05344      0.00333      0.01399         0.009401     -0.005301     -0.000416
      7.05353      1.42635      0.01368        -0.001657      0.005009     -0.003941
      8.28610      6.40752      0.01601         0.002963     -0.001485     -0.000971
     -4.03885      7.83070      0.01636        -0.002197      0.000846     -0.000228
      3.35586      6.40753      0.01007         0.005460      0.000516     -0.001226
      3.35599      7.83072      0.01320        -0.003211      0.000029     -0.000758
     -0.34146      4.27290      0.00723        -0.001890     -0.001474     -0.004418
     -0.34138      5.69591      0.00946        -0.009227      0.006527     -0.001006
      3.35624      2.13791      0.00222        -0.013527      0.011976      0.016221
      3.35573      3.56155      0.00139         0.013570     -0.015939      0.008710
     -1.57395      6.40758      0.01311         0.005411     -0.003946     -0.000694
     -1.57385      7.83068      0.01438        -0.004803      0.003725     -0.000055
      5.82093      2.13784      0.01033         0.016047      0.005215     -0.002883
      5.82114      3.56097      0.01156        -0.006361      0.008492     -0.003715
      0.89092      6.40755      0.00907         0.004561      0.002376     -0.002205
      0.89106      7.83068      0.01235        -0.006870      0.003863      0.000281
      4.58871      4.27293      0.00850        -0.012937     -0.006573     -0.010802
      4.58852      5.69606      0.01149         0.001935     -0.001116     -0.004010
      9.51845      0.00337      0.01490         0.004704     -0.004652      0.000083
      9.51855      1.42644      0.01438        -0.005121      0.005461     -0.000460
      8.28593      2.13803      0.01453         0.006724     -0.003420      0.000500
      8.28613      3.56115      0.01464        -0.004281      0.002216     -0.000169
      7.05356      4.27269      0.01457         0.002635     -0.001119     -0.000814
      7.05362      5.69588      0.01553        -0.002463      0.001554     -0.000206
      5.82112      6.40755      0.01489        -0.002941      0.001593     -0.000219
      5.82102      7.83073      0.01579         0.002720      0.000281     -0.000421
      7.05363      8.54227      0.01631        -0.004664      0.001261      0.000889
     -5.27149      9.96549      0.01495         0.000109     -0.002017     -0.002285
     -2.80638      8.54234      0.01558         0.003191     -0.001370     -0.001390
     -2.80627      9.96553      0.01362        -0.006738     -0.000096     -0.003874
     -0.34149      8.54239      0.01378         0.005813     -0.004894      0.000124
     -0.34138      9.96550      0.01354        -0.005927     -0.000143     -0.001377
      2.12343      8.54232      0.01336         0.005822     -0.001509      0.000716
      2.12354      9.96544      0.01469        -0.005170      0.003821     -0.002024
      4.58846      8.54235      0.01505         0.003682     -0.002792      0.000879
      4.58853      9.96550      0.01517        -0.002800      0.003360     -0.000005
      3.04930      2.68154      7.49154        -0.007037      0.005668      0.033954
      4.02070      2.02068      7.55596        -0.530834      0.360741     -0.051667
      2.07767      3.34267      7.43208         0.537939     -0.366490      0.016624
 -----------------------------------------------------------------------------------
    total drift:                                0.000087     -0.000042      0.000829


--------------------------------------------------------------------------------------------------------



  FREE ENERGIE OF THE ION-ELECTRON SYSTEM (eV)
  ---------------------------------------------------
  free  energy   TOTEN  =      -489.27592560 eV

  energy  without entropy=     -489.27592560  energy(sigma->0) =     -489.27592560
 


--------------------------------------------------------------------------------------------------------


    POTLOK:  cpu time    0.5561: real time    0.5604


--------------------------------------------------------------------------------------------------------


     LOOP+:  cpu time  320.9874: real time  324.5793
    4ORBIT:  cpu time    0.0000: real time    0.0000

 total amount of memory used by VASP MPI-rank0   441788. kBytes
=======================================================================

   base      :      30000. kBytes
   nonl-proj :     184518. kBytes
   fftplans  :      31725. kBytes
   grid      :     168095. kBytes
   one-center:        162. kBytes
   wavefun   :      27288. kBytes
 
  
  
 General timing and accounting informations for this job:
 ========================================================
  
                  Total CPU time used (sec):      357.094
                            User time (sec):      339.218
                          System time (sec):       17.877
                         Elapsed time (sec):      362.161
  
                   Maximum memory used (kb):      843100.
                   Average memory used (kb):          N/A
  
                          Minor page faults:       161881
                          Major page faults:           81
                 Voluntary context switches:         3759
