 vasp.6.2.1 16May21 (build Nov 06 2021 14:46:37) complex                        
  
 executed on             LinuxIFC date 2025.04.16  19:36:11
 running on  112 total cores
 distrk:  each k-point on   56 cores,    2 groups
 distr:  one band on NCORE=   1 cores,   56 groups


--------------------------------------------------------------------------------------------------------


 INCAR:
   ALGO = Conjugate
   KPAR = 2
   NCORE = 32
   PREC = Accurate
   EDIFF = 1E-7
   ENCUT = 1000
   ISMEAR = 0
   SIGMA = 0.01
   ISIF = 0
   GGA = PE
   IVDW = 202
   LVDWEXPANSION = .TRUE.
   LWAVE = .FALSE.
   LCHARGE = .FALSE.
   SYMPREC = 1E-7

 POTCAR:    PAW_PBE C_h 06Feb2004                 
 POTCAR:    PAW_PBE O_h 06Feb2004                 
 -----------------------------------------------------------------------------
|                                                                             |
|           W    W    AA    RRRRR   N    N  II  N    N   GGGG   !!!           |
|           W    W   A  A   R    R  NN   N  II  NN   N  G    G  !!!           |
|           W    W  A    A  R    R  N N  N  II  N N  N  G       !!!           |
|           W WW W  AAAAAA  RRRRR   N  N N  II  N  N N  G  GGG   !            |
|           WW  WW  A    A  R   R   N   NN  II  N   NN  G    G                |
|           W    W  A    A  R    R  N    N  II  N    N   GGGG   !!!           |
|                                                                             |
|     The value NCORE = 32 specified in the INCAR file was overwritten,       |
|     because it was not compatible with the 56 processes available:          |
|     NCORE = 1                                                               |
|     was used instead, please check that this makes sense for your           |
|     machine.                                                                |
|                                                                             |
 -----------------------------------------------------------------------------

 -----------------------------------------------------------------------------
|                                                                             |
|           W    W    AA    RRRRR   N    N  II  N    N   GGGG   !!!           |
|           W    W   A  A   R    R  NN   N  II  NN   N  G    G  !!!           |
|           W    W  A    A  R    R  N N  N  II  N N  N  G       !!!           |
|           W WW W  AAAAAA  RRRRR   N  N N  II  N  N N  G  GGG   !            |
|           WW  WW  A    A  R   R   N   NN  II  N   NN  G    G                |
|           W    W  A    A  R    R  N    N  II  N    N   GGGG   !!!           |
|                                                                             |
|     For optimal performance we recommend to set                             |
|       NCORE = 2 up to number-of-cores-per-socket                            |
|     NCORE specifies how many cores store one orbital (NPAR=cpu/NCORE).      |
|     This setting can greatly improve the performance of VASP for DFT.       |
|     The default, NCORE=1 might be grossly inefficient on modern             |
|     multi-core architectures or massively parallel machines. Do your        |
|     own testing! More info at https://www.vasp.at/wiki/index.php/NCORE      |
|     Unfortunately you need to use the default for GW and RPA                |
|     calculations (for HF NCORE is supported but not extensively tested      |
|     yet).                                                                   |
|                                                                             |
 -----------------------------------------------------------------------------

 POTCAR:    PAW_PBE C_h 06Feb2004                 
   VRHFIN =C: s2p2                                                                                  
   LEXCH  = PE                                                                                      
   EATOM  =   147.1560 eV,   10.8157 Ry                                                             
                                                                                                    
   TITEL  = PAW_PBE C_h 06Feb2004                                                                   
   LULTRA =        F    use ultrasoft PP ?                                                          
   IUNSCR =        1    unscreen: 0-lin 1-nonlin 2-no                                               
   RPACOR =    0.800    partial core radius                                                         
   POMASS =   12.011; ZVAL   =    4.000    mass and valenz                                          
   RCORE  =    1.100    outmost cutoff radius                                                       
   RWIGS  =    1.630; RWIGS  =    0.863    wigner-seitz radius (au A)                               
   ENMAX  =  700.000; ENMIN  =  500.000 eV                                                          
   ICORE  =        2    local potential                                                             
   LCOR   =        T    correct aug charges                                                         
   LPAW   =        T    paw PP                                                                      
   EAUG   =  946.768                                                                                
   DEXC   =    0.000                                                                                
   RMAX   =    1.128    core radius for proj-oper                                                   
   RAUG   =    1.300    factor for augmentation sphere                                              
   RDEP   =    1.162    radius for radial grids                                                     
   RDEPT  =    1.088    core radius for aug-charge                                                  
                                                                                                    
   Atomic configuration                                                                             
    4 entries                                                                                       
     n  l   j            E        occ.                                                              
     1  0  0.50      -273.3789   2.0000                                                             
     2  0  0.50       -13.7508   2.0000                                                             
     2  1  0.50        -5.2854   2.0000                                                             
     3  2  1.50        -5.4423   0.0000                                                             
   Description                                                                                      
     l       E           TYP  RCUT    TYP  RCUT                                                     
     0    -13.7508458     23  1.100                                                                 
     0     -8.2022199     23  1.100                                                                 
     1     -5.2854383     23  1.100                                                                 
     1      1.1560700     23  1.100                                                                 
     2     -5.4423304      7  1.100                                                                 
  local pseudopotential read in
  partial core-charges read in
  partial kinetic energy density read in
  atomic valenz-charges read in
  non local Contribution for L=           0  read in
    real space projection operators read in
  non local Contribution for L=           0  read in
    real space projection operators read in
  non local Contribution for L=           1  read in
    real space projection operators read in
  non local Contribution for L=           1  read in
    real space projection operators read in
    PAW grid and wavefunctions read in
 
   number of l-projection  operators is LMAX  =           4
   number of lm-projection operators is LMMAX =           8
 
 POTCAR:    PAW_PBE O_h 06Feb2004                 
   VRHFIN =O: s2p4                                                                                  
   LEXCH  = PE                                                                                      
   EATOM  =   432.3788 eV,   31.7789 Ry                                                             
                                                                                                    
   TITEL  = PAW_PBE O_h 06Feb2004                                                                   
   LULTRA =        F    use ultrasoft PP ?                                                          
   IUNSCR =        1    unscreen: 0-lin 1-nonlin 2-no                                               
   RPACOR =    0.800    partial core radius                                                         
   POMASS =   16.000; ZVAL   =    6.000    mass and valenz                                          
   RCORE  =    1.100    outmost cutoff radius                                                       
   RWIGS  =    1.400; RWIGS  =    0.741    wigner-seitz radius (au A)                               
   ENMAX  =  700.000; ENMIN  =  500.000 eV                                                          
   ICORE  =        2    local potential                                                             
   LCOR   =        T    correct aug charges                                                         
   LPAW   =        T    paw PP                                                                      
   EAUG   =  888.804                                                                                
   DEXC   =    0.000                                                                                
   RMAX   =    1.128    core radius for proj-oper                                                   
   RAUG   =    1.300    factor for augmentation sphere                                              
   RDEP   =    1.125    radius for radial grids                                                     
   RDEPT  =    1.088    core radius for aug-charge                                                  
                                                                                                    
   Atomic configuration                                                                             
    4 entries                                                                                       
     n  l   j            E        occ.                                                              
     1  0  0.50      -514.6923   2.0000                                                             
     2  0  0.50       -23.9615   2.0000                                                             
     2  1  0.50        -9.0305   4.0000                                                             
     3  2  1.50        -9.5241   0.0000                                                             
   Description                                                                                      
     l       E           TYP  RCUT    TYP  RCUT                                                     
     0    -23.9615319     23  1.100                                                                 
     0    -25.3221145     23  1.100                                                                 
     1     -9.0304911     23  1.100                                                                 
     1     -5.4802209     23  1.100                                                                 
     2     -9.5240782      7  1.100                                                                 
  local pseudopotential read in
  partial core-charges read in
  partial kinetic energy density read in
  atomic valenz-charges read in
  non local Contribution for L=           0  read in
    real space projection operators read in
  non local Contribution for L=           0  read in
    real space projection operators read in
  non local Contribution for L=           1  read in
    real space projection operators read in
  non local Contribution for L=           1  read in
    real space projection operators read in
    PAW grid and wavefunctions read in
 
   number of l-projection  operators is LMAX  =           4
   number of lm-projection operators is LMMAX =           8
 
 -----------------------------------------------------------------------------
|                                                                             |
|               ----> ADVICE to this user running VASP <----                  |
|                                                                             |
|     You have a (more or less) 'large supercell' and for larger cells it     |
|     might be more efficient to use real-space projection operators.         |
|     Therefore, try LREAL= Auto in the INCAR file.                           |
|     Mind: For very accurate calculation, you might also keep the            |
|     reciprocal projection scheme (i.e. LREAL=.FALSE.).                      |
|                                                                             |
 -----------------------------------------------------------------------------

  PAW_PBE C_h 06Feb2004                 :
 energy of atom  1       EATOM= -147.1560
 kinetic energy error for atom=    0.0031 (will be added to EATOM!!)
  PAW_PBE O_h 06Feb2004                 :
 energy of atom  2       EATOM= -432.3788
 kinetic energy error for atom=    0.0171 (will be added to EATOM!!)
 
 
 POSCAR:  C  O
  positions in cartesian coordinates
  No initial velocities read in
 exchange correlation table for  LEXCH =        8
   RHO(1)=    0.500       N(1)  =     2000
   RHO(2)=  100.500       N(2)  =     4000
 


--------------------------------------------------------------------------------------------------------


 ion  position               nearest neighbor table
   1  0.972  0.000  0.001-  50 1.42   2 1.42  42 1.42
   2  0.039  0.134  0.000-   5 1.42   7 1.42   1 1.42
   3  0.172  0.000  0.000-  42 1.42  44 1.42   4 1.42
   4  0.239  0.134  0.000-   7 1.42   3 1.42  23 1.42
   5  0.972  0.200  0.000-   6 1.42   2 1.42  34 1.42
   6  0.039  0.334  0.000-   5 1.42  21 1.42  11 1.42
   7  0.172  0.200  0.000-   8 1.42   2 1.42   4 1.42
   8  0.239  0.334  0.000-  13 1.42   7 1.42  21 1.42
   9  0.372  0.000  0.000-  10 1.42  44 1.42  46 1.42
  10  0.439  0.134  0.000-  27 1.42   9 1.42  23 1.42
  11  0.972  0.400  0.001-  12 1.42  36 1.42   6 1.42
  12  0.039  0.534  0.001-  25 1.42  11 1.42  17 1.42
  13  0.372  0.400  0.000-   8 1.42  14 1.42  24 1.42
  14  0.439  0.534  0.000-  13 1.42  29 1.42  19 1.42
  15  0.572  0.000  0.001-  46 1.42  16 1.42  48 1.42
  16  0.639  0.134  0.001-  15 1.42  35 1.42  27 1.42
  17  0.972  0.600  0.001-  38 1.42  18 1.42  12 1.42
  18  0.039  0.734  0.001-  43 1.42  41 1.42  17 1.42
  19  0.572  0.600  0.000-  14 1.42  20 1.42  32 1.42
  20  0.639  0.734  0.001-  49 1.42  19 1.42  47 1.42
  21  0.172  0.400  0.000-  22 1.42   8 1.42   6 1.42
  22  0.239  0.534  0.000-  21 1.42  29 1.42  25 1.42
  23  0.372  0.200  0.000-  10 1.42   4 1.42  24 1.42
  24  0.439  0.334  0.000-  13 1.42  31 1.42  23 1.42
  25  0.172  0.600  0.001-  26 1.42  12 1.42  22 1.42
  26  0.239  0.734  0.001-  25 1.42  45 1.42  43 1.42
  27  0.572  0.200  0.000-  10 1.42  28 1.42  16 1.42
  28  0.639  0.334  0.000-  27 1.42  37 1.42  31 1.42
  29  0.372  0.600  0.000-  22 1.42  14 1.42  30 1.42
  30  0.439  0.734  0.000-  47 1.42  29 1.42  45 1.42
  31  0.572  0.400  0.000-  32 1.42  28 1.42  24 1.42
  32  0.639  0.534  0.000-  31 1.42  39 1.42  19 1.42
  33  0.772  0.000  0.001-  34 1.42  48 1.42  50 1.42
  34  0.839  0.134  0.001-  33 1.42   5 1.42  35 1.42
  35  0.772  0.200  0.001-  36 1.42  16 1.42  34 1.42
  36  0.839  0.334  0.001-  35 1.42  11 1.42  37 1.42
  37  0.772  0.400  0.001-  28 1.42  38 1.42  36 1.42
  38  0.839  0.534  0.001-  17 1.42  37 1.42  39 1.42
  39  0.772  0.600  0.001-  40 1.42  38 1.42  32 1.42
  40  0.839  0.734  0.001-  39 1.42  49 1.42  41 1.42
  41  0.972  0.800  0.001-  18 1.42  42 1.42  40 1.42
  42  0.039  0.934  0.001-   3 1.42  41 1.42   1 1.42
  43  0.172  0.800  0.001-  18 1.42  44 1.42  26 1.42
  44  0.239  0.934  0.001-   9 1.42  43 1.42   3 1.42
  45  0.372  0.800  0.001-  26 1.42  46 1.42  30 1.42
  46  0.439  0.934  0.001-  15 1.42  45 1.42   9 1.42
  47  0.572  0.800  0.001-  30 1.42  48 1.42  20 1.42
  48  0.639  0.934  0.001-  47 1.42  33 1.42  15 1.42
  49  0.772  0.800  0.001-  50 1.42  20 1.42  40 1.42
  50  0.839  0.934  0.001-  49 1.42   1 1.42  33 1.42
  51  0.373  0.251  0.356-  52 1.18  53 1.18
  52  0.421  0.189  0.359-  51 1.18
  53  0.325  0.313  0.354-  51 1.18
 
  LATTYP: Found a hexagonal cell.
 ALAT       =    12.3250000000
 C/A-ratio  =     2.0283975659
  
  Lattice vectors:
  
 A1 = (  12.3250000000,   0.0000000000,   0.0000000000)
 A2 = (  -6.1625000000,  10.6737631016,   0.0000000000)
 A3 = (   0.0000000000,   0.0000000000,  25.0000000000)


Analysis of symmetry for initial positions (statically):
=====================================================================
 Subroutine PRICEL returns:
 Original cell was already a primitive cell.
 

 Routine SETGRP: Setting up the symmetry group for a 
 hexagonal supercell.


 Subroutine GETGRP returns: Found  1 space group operations
 (whereof  1 operations were pure point group operations)
 out of a pool of 24 trial point group operations.


The static configuration has the point symmetry C_1 .


Analysis of symmetry for dynamics (positions and initial velocities):
=====================================================================
 Subroutine PRICEL returns:
 Original cell was already a primitive cell.
 

 Routine SETGRP: Setting up the symmetry group for a 
 hexagonal supercell.


 Subroutine GETGRP returns: Found  1 space group operations
 (whereof  1 operations were pure point group operations)
 out of a pool of 24 trial point group operations.


The dynamic configuration has the point symmetry C_1 .


 Subroutine INISYM returns: Found  1 space group operations
 (whereof  1 operations are pure point group operations),
 and found     1 'primitive' translations


----------------------------------------------------------------------------------------

                                     Primitive cell                                     

  volume of cell :    3288.8533

  direct lattice vectors                    reciprocal lattice vectors
    12.325000000  0.000000000  0.000000000     0.081135903  0.046843835  0.000000000
    -6.162500000 10.673763102  0.000000000     0.000000000  0.093687670  0.000000000
     0.000000000  0.000000000 25.000000000     0.000000000  0.000000000  0.040000000

  length of vectors
    12.325000000 12.325000000 25.000000000     0.093687670  0.093687670  0.040000000

  position of ions in fractional coordinates (direct lattice)
     0.972450841  0.000320818  0.000566711
     0.039118382  0.133659505  0.000440173
     0.172443627  0.000295449  0.000499628
     0.239096278  0.133647917  0.000256468
     0.972452058  0.200322012  0.000485219
     0.039128360  0.333643771  0.000444150
     0.172451764  0.200354552  0.000219167
     0.239124359  0.333665720  0.000072260
     0.372465565  0.000324403  0.000453913
     0.439137473  0.133619939  0.000258338
     0.972449824  0.400309362  0.000547611
     0.039124981  0.533636789  0.000573410
     0.372416176  0.400329481  0.000000000
     0.439099602  0.533638981  0.000232414
     0.572443676  0.000312125  0.000559580
     0.639110207  0.133631751  0.000547275
     0.972452703  0.600305653  0.000640289
     0.039124495  0.733640359  0.000654513
     0.572433471  0.600306242  0.000402895
     0.639111888  0.733641879  0.000527905
     0.172454630  0.400318228  0.000289045
     0.239120185  0.533636548  0.000378509
     0.372459750  0.200295993  0.000088997
     0.439107096  0.333673419  0.000055762
     0.172452155  0.600311506  0.000524340
     0.239123371  0.733638574  0.000575129
     0.572431082  0.200289171  0.000413296
     0.639112773  0.333618630  0.000462376
     0.372439808  0.600308022  0.000362844
     0.439116090  0.733637858  0.000494190
     0.572469358  0.400320504  0.000339918
     0.639119408  0.533650873  0.000459610
     0.772445723  0.000315427  0.000596161
     0.839116277  0.133640203  0.000575306
     0.772440513  0.200307432  0.000581033
     0.839120241  0.333635728  0.000585467
     0.772446320  0.400298367  0.000582978
     0.839118980  0.533633964  0.000621100
     0.772456143  0.600308173  0.000595712
     0.839115033  0.733643180  0.000631512
     0.972455313  0.800305582  0.000652233
     0.039114714  0.933643289  0.000598051
     0.172457971  0.800312211  0.000623372
     0.239134551  0.933647193  0.000544850
     0.372451396  0.800316674  0.000551399
     0.439124489  0.933644769  0.000541430
     0.572441101  0.800310054  0.000534535
     0.639115067  0.933638985  0.000587644
     0.772445098  0.800313187  0.000602062
     0.839116614  0.933644338  0.000606830
     0.373021009  0.251226878  0.356359487
     0.420879805  0.189313152  0.358936362
     0.325156981  0.313167186  0.353981292

  ion indices of the primitive-cell ions
   primitive index   ion index
                 1           1
                 2           2
                 3           3
                 4           4
                 5           5
                 6           6
                 7           7
                 8           8
                 9           9
                10          10
                11          11
                12          12
                13          13
                14          14
                15          15
                16          16
                17          17
                18          18
                19          19
                20          20
                21          21
                22          22
                23          23
                24          24
                25          25
                26          26
                27          27
                28          28
                29          29
                30          30
                31          31
                32          32
                33          33
                34          34
                35          35
                36          36
                37          37
                38          38
                39          39
                40          40
                41          41
                42          42
                43          43
                44          44
                45          45
                46          46
                47          47
                48          48
                49          49
                50          50
                51          51
                52          52
                53          53

----------------------------------------------------------------------------------------

 
 
 KPOINTS: auto                                    

Automatic generation of k-mesh.
 Grid dimensions read from file:
 generate k-points for:    1    1    1

 Generating k-lattice:

  Cartesian coordinates                     Fractional coordinates (reciprocal lattice)
     0.081135903  0.046843835  0.000000000     1.000000000 -0.000000000  0.000000000
     0.000000000  0.093687670  0.000000000     0.000000000  1.000000000  0.000000000
     0.000000000  0.000000000  0.040000000     0.000000000  0.000000000  1.000000000

  Length of vectors
     0.093687670  0.093687670  0.040000000

  Shift w.r.t. Gamma in fractional coordinates (k-lattice)
     0.000000000  0.000000000  0.000000000

 
 Subroutine IBZKPT returns following result:
 ===========================================
 
 Found      1 irreducible k-points:
 
 Following reciprocal coordinates:
            Coordinates               Weight
  0.000000  0.000000  0.000000      1.000000
 
 Following cartesian coordinates:
            Coordinates               Weight
  0.000000  0.000000  0.000000      1.000000
 


--------------------------------------------------------------------------------------------------------




 Dimension of arrays:
   k-points           NKPTS =      1   k-points in BZ     NKDIM =      1   number of bands    NBANDS=    168
   number of dos      NEDOS =    301   number of ions     NIONS =     53
   non local maximal  LDIM  =      4   non local SUM 2l+1 LMDIM =      8
   total plane-waves  NPLWV = ******
   max r-space proj   IRMAX =      1   max aug-charges    IRDMAX=  10008
   dimension x,y,z NGX =   128 NGY =  128 NGZ =  270
   dimension x,y,z NGXF=   256 NGYF=  256 NGZF=  540
   support grid    NGXF=   256 NGYF=  256 NGZF=  540
   ions per type =              51   2
   NGX,Y,Z   is equivalent  to a cutoff of  17.27, 17.27, 17.95 a.u.
   NGXF,Y,Z  is equivalent  to a cutoff of  34.53, 34.53, 35.91 a.u.

 SYSTEM =  unknown system                          
 POSCAR =   C  O                                   

 Startparameter for this run:
   NWRITE =      2    write-flag & timer
   PREC   = accura    normal or accurate (medium, high low for compatibility)
   ISTART =      0    job   : 0-new  1-cont  2-samecut
   ICHARG =      2    charge: 1-file 2-atom 10-const
   ISPIN  =      1    spin polarized calculation?
   LNONCOLLINEAR =      F non collinear calculations
   LSORBIT =      F    spin-orbit coupling
   INIWAV =      1    electr: 0-lowe 1-rand  2-diag
   LASPH  =      F    aspherical Exc in radial PAW
 Electronic Relaxation 1
   ENCUT  = 1000.0 eV  73.50 Ry    8.57 a.u.  31.78 31.78 64.46*2*pi/ulx,y,z
   ENINI  = 1000.0     initial cutoff
   ENAUG  =  946.8 eV  augmentation charge cutoff
   NELM   =     60;   NELMIN=  2; NELMDL= -5     # of ELM steps 
   EDIFF  = 0.1E-06   stopping-criterion for ELM
   LREAL  =      F    real-space projection
   NLSPLINE    = F    spline interpolate recip. space projectors
   LCOMPAT=      F    compatible to vasp.4.4
   GGA_COMPAT  = T    GGA compatible to vasp.4.4-vasp.4.6
   LMAXPAW     = -100 max onsite density
   LMAXMIX     =    2 max onsite mixed and CHGCAR
   VOSKOWN=      0    Vosko Wilk Nusair interpolation
   ROPT   =    0.00000   0.00000
 Ionic relaxation
   EDIFFG = 0.1E-05   stopping-criterion for IOM
   NSW    =      0    number of steps for IOM
   NBLOCK =      1;   KBLOCK =      1    inner block; outer block 
   IBRION =     -1    ionic relax: 0-MD 1-quasi-New 2-CG
   NFREE  =      0    steps in history (QN), initial steepest desc. (CG)
   ISIF   =      0    stress and relaxation
   IWAVPR =     10    prediction:  0-non 1-charg 2-wave 3-comb
   ISYM   =      2    0-nonsym 1-usesym 2-fastsym
   LCORR  =      T    Harris-Foulkes like correction to forces

   POTIM  = 0.5000    time-step for ionic-motion
   TEIN   =    0.0    initial temperature
   TEBEG  =    0.0;   TEEND  =   0.0 temperature during run
   SMASS  =  -3.00    Nose mass-parameter (am)
   estimated Nose-frequenzy (Omega)   =  0.10E-29 period in steps = 0.13E+47 mass=  -0.347E-26a.u.
   SCALEE = 1.0000    scale energy and forces
   NPACO  =    256;   APACO  = 16.0  distance and # of slots for P.C.
   PSTRESS=    0.0 pullay stress

  Mass of Ions in am
   POMASS =  12.01 16.00
  Ionic Valenz
   ZVAL   =   4.00  6.00
  Atomic Wigner-Seitz radii
   RWIGS  =  -1.00 -1.00
  virtual crystal weights 
   VCA    =   1.00  1.00
   NELECT =     216.0000    total number of electrons
   NUPDOWN=      -1.0000    fix difference up-down

 DOS related values:
   EMIN   =  10.00;   EMAX   =-10.00  energy-range for DOS
   EFERMI =   0.00
   ISMEAR =     0;   SIGMA  =   0.01  broadening in eV -4-tet -1-fermi 0-gaus

 Electronic relaxation 2 (details)
   IALGO  =     58    algorithm
   LDIAG  =      T    sub-space diagonalisation (order eigenvalues)
   LSUBROT=      F    optimize rotation matrix (better conditioning)
   TURBO    =      0    0=normal 1=particle mesh
   IRESTART =      0    0=no restart 2=restart with 2 vectors
   NREBOOT  =      0    no. of reboots
   NMIN     =      0    reboot dimension
   EREF     =   0.00    reference energy to select bands
   IMIX   =      4    mixing-type and parameters
     AMIX     =   0.40;   BMIX     =  1.00
     AMIX_MAG =   1.60;   BMIX_MAG =  1.00
     AMIN     =   0.10
     WC   =   100.;   INIMIX=   1;  MIXPRE=   1;  MAXMIX= -45

 Intra band minimization:
   WEIMIN = 0.0000     energy-eigenvalue tresh-hold
   EBREAK =  0.15E-09  absolut break condition
   DEPER  =   0.30     relativ break condition  

   TIME   =   0.40     timestep for ELM

  volume/ion in A,a.u.               =      62.05       418.76
  Fermi-wavevector in a.u.,A,eV,Ry     =   0.660508  1.248179  5.935820  0.436270
  Thomas-Fermi vector in A             =   1.732977
 
 Write flags
   LWAVE        =      F    write WAVECAR
   LDOWNSAMPLE  =      F    k-point downsampling of WAVECAR
   LCHARG       =      T    write CHGCAR
   LVTOT        =      F    write LOCPOT, total local potential
   LVHAR        =      F    write LOCPOT, Hartree potential only
   LELF         =      F    write electronic localiz. function (ELF)
   LORBIT       =      0    0 simple, 1 ext, 2 COOP (PROOUT), +10 PAW based schemes


 Dipole corrections
   LMONO  =      F    monopole corrections only (constant potential shift)
   LDIPOL =      F    correct potential (dipole corrections)
   IDIPOL =      0    1-x, 2-y, 3-z, 4-all directions 
   EPSILON=  1.0000000 bulk dielectric constant

 Exchange correlation treatment:
   GGA     =    PE    GGA type
   LEXCH   =     8    internal setting for exchange type
   VOSKOWN=      0    Vosko Wilk Nusair interpolation
   LHFCALC =     F    Hartree Fock is set to
   LHFONE  =     F    Hartree Fock one center treatment
   AEXX    =    0.0000 exact exchange contribution

 Linear response parameters
   LEPSILON=     F    determine dielectric tensor
   LRPA    =     F    only Hartree local field effects (RPA)
   LNABLA  =     F    use nabla operator in PAW spheres
   LVEL    =     F    velocity operator in full k-point grid
   LINTERFAST=   F  fast interpolation
   KINTER  =     0    interpolate to denser k-point grid
   CSHIFT  =0.1000    complex shift for real part using Kramers Kronig
   OMEGAMAX=  -1.0    maximum frequency
   DEG_THRESHOLD= 0.2000000E-02 threshold for treating states as degnerate
   RTIME   =   -0.100 relaxation time in fs
  (WPLASMAI=    0.000 imaginary part of plasma frequency in eV, 0.658/RTIME)
   DFIELD  = 0.0000000 0.0000000 0.0000000 field for delta impulse in time
 
 Orbital magnetization related:
   ORBITALMAG=     F  switch on orbital magnetization
   LCHIMAG   =     F  perturbation theory with respect to B field
   DQ        =  0.001000  dq finite difference perturbation B field
   LLRAUG    =     F  two centre corrections for induced B field



--------------------------------------------------------------------------------------------------------


 Static calculation
 charge density and potential will be updated during run
 non-spin polarized calculation
 Conjugate gradient for all bands (Freysoldt, et al. PRB 79, 241103 (2009))
 preconditioned conjugated gradient                                        
 perform sub-space diagonalisation
    before iterative eigenvector-optimisation
 modified Broyden-mixing scheme, WC =      100.0
 initial mixing is a Kerker type mixing with AMIX =  0.4000 and BMIX =      1.0000
 Hartree-type preconditioning will be used
 using additional bands           60
 reciprocal scheme for non local part
 use partial core corrections
 no Harris-corrections to forces 
 use gradient corrections 
 use of overlap-Matrix (Vanderbilt PP)
 Gauss-broadening in eV      SIGMA  =   0.01


--------------------------------------------------------------------------------------------------------


  energy-cutoff  :     1000.00
  volume of cell :     3288.85
      direct lattice vectors                 reciprocal lattice vectors
    12.325000000  0.000000000  0.000000000     0.081135903  0.046843835  0.000000000
    -6.162500000 10.673763102  0.000000000     0.000000000  0.093687670  0.000000000
     0.000000000  0.000000000 25.000000000     0.000000000  0.000000000  0.040000000

  length of vectors
    12.325000000 12.325000000 25.000000000     0.093687670  0.093687670  0.040000000


 
 k-points in units of 2pi/SCALE and weight: auto                                    
   0.00000000  0.00000000  0.00000000       1.000
 
 k-points in reciprocal lattice and weights: auto                                    
   0.00000000  0.00000000  0.00000000       1.000
 
 position of ions in fractional coordinates (direct lattice) 
   0.97245084  0.00032082  0.00056671
   0.03911838  0.13365950  0.00044017
   0.17244363  0.00029545  0.00049963
   0.23909628  0.13364792  0.00025647
   0.97245206  0.20032201  0.00048522
   0.03912836  0.33364377  0.00044415
   0.17245176  0.20035455  0.00021917
   0.23912436  0.33366572  0.00007226
   0.37246557  0.00032440  0.00045391
   0.43913747  0.13361994  0.00025834
   0.97244982  0.40030936  0.00054761
   0.03912498  0.53363679  0.00057341
   0.37241618  0.40032948  0.00000000
   0.43909960  0.53363898  0.00023241
   0.57244368  0.00031213  0.00055958
   0.63911021  0.13363175  0.00054727
   0.97245270  0.60030565  0.00064029
   0.03912449  0.73364036  0.00065451
   0.57243347  0.60030624  0.00040289
   0.63911189  0.73364188  0.00052791
   0.17245463  0.40031823  0.00028904
   0.23912018  0.53363655  0.00037851
   0.37245975  0.20029599  0.00008900
   0.43910710  0.33367342  0.00005576
   0.17245216  0.60031151  0.00052434
   0.23912337  0.73363857  0.00057513
   0.57243108  0.20028917  0.00041330
   0.63911277  0.33361863  0.00046238
   0.37243981  0.60030802  0.00036284
   0.43911609  0.73363786  0.00049419
   0.57246936  0.40032050  0.00033992
   0.63911941  0.53365087  0.00045961
   0.77244572  0.00031543  0.00059616
   0.83911628  0.13364020  0.00057531
   0.77244051  0.20030743  0.00058103
   0.83912024  0.33363573  0.00058547
   0.77244632  0.40029837  0.00058298
   0.83911898  0.53363396  0.00062110
   0.77245614  0.60030817  0.00059571
   0.83911503  0.73364318  0.00063151
   0.97245531  0.80030558  0.00065223
   0.03911471  0.93364329  0.00059805
   0.17245797  0.80031221  0.00062337
   0.23913455  0.93364719  0.00054485
   0.37245140  0.80031667  0.00055140
   0.43912449  0.93364477  0.00054143
   0.57244110  0.80031005  0.00053453
   0.63911507  0.93363899  0.00058764
   0.77244510  0.80031319  0.00060206
   0.83911661  0.93364434  0.00060683
   0.37302101  0.25122688  0.35635949
   0.42087980  0.18931315  0.35893636
   0.32515698  0.31316719  0.35398129
 
 position of ions in cartesian coordinates  (Angst):
  11.98347958  0.00342433  0.01416777
  -0.34154264  1.42664989  0.01100432
   2.12354700  0.00315355  0.01249070
   2.12325634  1.42652621  0.00641170
  10.75098721  2.13818970  0.01213047
  -1.57382270  3.56123457  0.01110375
   0.89078307  2.13853702  0.00547917
   0.89099273  3.56146885  0.00180651
   4.58863896  0.00346260  0.01134782
   4.58893648  1.42622757  0.00645846
   9.51853763  4.27280730  0.01369027
  -2.80632132  5.69591267  0.01433526
   2.12299894  4.27302204  0.00000000
   2.12335237  5.69593607  0.00581036
   7.05344483  0.00333155  0.01398950
   7.05352764  1.42635365  0.01368187
   8.28609598  6.40752033  0.01600723
  -4.03884931  7.83070339  0.01636283
   3.35585531  6.40752662  0.01007237
   3.35598594  7.83071962  0.01319763
  -0.34145776  4.27290193  0.00722612
  -0.34137895  5.69591010  0.00946273
   3.35624236  2.13791198  0.00222492
   3.35573251  3.56155103  0.00139405
  -1.57394684  6.40758280  0.01310850
  -1.57385216  7.83068434  0.01437823
   5.82093107  2.13783916  0.01033241
   5.82114012  3.56096622  0.01155939
   0.89092245  6.40754561  0.00907111
   0.89106251  7.83067670  0.01235474
   4.58870974  4.27292622  0.00849795
   4.58852320  5.69606300  0.01149026
   9.51844972  0.00336679  0.01490402
   9.51855036  1.42644387  0.01438264
   8.28593477  2.13803408  0.01452582
   8.28612680  3.56114872  0.01463668
   7.05356221  4.27268994  0.01457444
   7.05362213  5.69588251  0.01552751
   5.82112285  6.40754723  0.01489279
   5.82101669  7.83073350  0.01578780
   7.05362858  8.54227219  0.01630582
  -5.27148792  9.96548729  0.01495127
  -2.80637951  8.54234295  0.01558431
  -2.80626749  9.96552896  0.01362126
  -0.34148805  8.54239058  0.01378498
  -0.34137657  9.96550309  0.01353576
   2.12342586  8.54231992  0.01336337
   2.12354296  9.96544135  0.01469111
   4.58845581  8.54235337  0.01505154
   4.58852904  9.96549848  0.01517076
   3.04929830  2.68153618  8.90898718
   4.02070129  2.02068374  8.97340904
   2.07766701  3.34267235  8.84953231
 


--------------------------------------------------------------------------------------------------------


 k-point   1 :   0.0000 0.0000 0.0000  plane waves:  236157

 maximum and minimum number of plane-waves per node :    236157   236157

 maximum number of plane-waves:    236157
 maximum index in each direction: 
   IXMAX=   31   IYMAX=   31   IZMAX=   64
   IXMIN=  -31   IYMIN=  -31   IZMIN=  -64


 serial   3D FFT for wavefunctions
 parallel 3D FFT for charge:
    minimum data exchange during FFTs selected (reduces bandwidth)


 total amount of memory used by VASP MPI-rank0   551512. kBytes
=======================================================================

   base      :      30000. kBytes
   nonl-proj :     230539. kBytes
   fftplans  :      40716. kBytes
   grid      :     216018. kBytes
   one-center:        162. kBytes
   wavefun   :      34077. kBytes
 
     INWAV:  cpu time    0.0000: real time    0.0000
 Broyden mixing: mesh for mixing (old mesh)
   NGX = 63   NGY = 63   NGZ =129
  (NGX  =256   NGY  =256   NGZ  =540)
  gives a total of 512001 points

 initial charge density was supplied:
 charge density of overlapping atoms calculated
 number of electron     216.0000000 magnetization 
 keeping initial charge density in first step


--------------------------------------------------------------------------------------------------------


 Maximum index for augmentation-charges          471 (set IRDMAX)


--------------------------------------------------------------------------------------------------------


 First call to EWALD:  gamma=   0.119
 Maximum number of real-space cells 4x 4x 2
 Maximum number of reciprocal cells 2x 2x 4

    FEWALD:  cpu time    0.0024: real time    0.0024


--------------------------------------- Iteration      1(   1)  ---------------------------------------


    POTLOK:  cpu time    0.7919: real time    0.7983
    SETDIJ:  cpu time    0.0041: real time    0.0042
    TRIAL :  cpu time   15.3733: real time   15.4954
    CORREC:  cpu time    0.0005: real time    0.0007
    --------------------------------------------
      LOOP:  cpu time   16.1832: real time   16.3174

 eigenvalue-minimisations  :   336
 total energy-change (2. order) : 0.2586220E+04  (-0.1073463E+05)
 number of electron     216.0000000 magnetization 
 augmentation part      216.0000000 magnetization 

 Free energy of the ion-electron system (eV)
  ---------------------------------------------------
  alpha Z        PSCENC =        47.94900195
  Ewald energy   TEWEN  =     40970.05347293
  -Hartree energ DENC   =    -47039.28430944
  -exchange      EXHF   =         0.00000000
  -V(xc)+E(xc)   XCENC  =       420.79772607
  PAW double counting   =      6525.96553977    -6260.36035765
  entropy T*S    EENTRO =        -0.00000000
  eigenvalues    EBANDS =      -448.42511163
  atomic energy  EATOM  =      8369.52358910
  ---------------------------------------------------
  free energy    TOTEN  =      2586.21955109 eV

  energy without entropy =     2586.21955109  energy(sigma->0) =     2586.21955109


--------------------------------------------------------------------------------------------------------




--------------------------------------- Iteration      1(   2)  ---------------------------------------


    TRIAL :  cpu time   23.1251: real time   23.3045
    CORREC:  cpu time    0.0001: real time    0.0001
    --------------------------------------------
      LOOP:  cpu time   23.1679: real time   23.3499

 eigenvalue-minimisations  :   560
 total energy-change (2. order) :-0.2421424E+04  (-0.2260195E+04)
 number of electron     216.0000000 magnetization 
 augmentation part      216.0000000 magnetization 

 Free energy of the ion-electron system (eV)
  ---------------------------------------------------
  alpha Z        PSCENC =        47.94900195
  Ewald energy   TEWEN  =     40970.05347293
  -Hartree energ DENC   =    -47039.28430944
  -exchange      EXHF   =         0.00000000
  -V(xc)+E(xc)   XCENC  =       420.79772607
  PAW double counting   =      6525.96553977    -6260.36035765
  entropy T*S    EENTRO =        -0.00000000
  eigenvalues    EBANDS =     -2869.84898191
  atomic energy  EATOM  =      8369.52358910
  ---------------------------------------------------
  free energy    TOTEN  =       164.79568082 eV

  energy without entropy =      164.79568082  energy(sigma->0) =      164.79568082


--------------------------------------------------------------------------------------------------------




--------------------------------------- Iteration      1(   3)  ---------------------------------------


    TRIAL :  cpu time   17.2941: real time   17.4285
    CORREC:  cpu time    0.0001: real time    0.0001
    --------------------------------------------
      LOOP:  cpu time   17.3420: real time   17.5130

 eigenvalue-minimisations  :   392
 total energy-change (2. order) :-0.6455617E+03  (-0.6424422E+03)
 number of electron     216.0000000 magnetization 
 augmentation part      216.0000000 magnetization 

 Free energy of the ion-electron system (eV)
  ---------------------------------------------------
  alpha Z        PSCENC =        47.94900195
  Ewald energy   TEWEN  =     40970.05347293
  -Hartree energ DENC   =    -47039.28430944
  -exchange      EXHF   =         0.00000000
  -V(xc)+E(xc)   XCENC  =       420.79772607
  PAW double counting   =      6525.96553977    -6260.36035765
  entropy T*S    EENTRO =        -0.00000000
  eigenvalues    EBANDS =     -3515.41065674
  atomic energy  EATOM  =      8369.52358910
  ---------------------------------------------------
  free energy    TOTEN  =      -480.76599402 eV

  energy without entropy =     -480.76599402  energy(sigma->0) =     -480.76599402


--------------------------------------------------------------------------------------------------------




--------------------------------------- Iteration      1(   4)  ---------------------------------------


    TRIAL :  cpu time   19.2075: real time   19.3603
    CORREC:  cpu time    0.0001: real time    0.0001
    --------------------------------------------
      LOOP:  cpu time   19.2230: real time   19.4120

 eigenvalue-minimisations  :   448
 total energy-change (2. order) :-0.3595353E+02  (-0.3567037E+02)
 number of electron     216.0000000 magnetization 
 augmentation part      216.0000000 magnetization 

 Free energy of the ion-electron system (eV)
  ---------------------------------------------------
  alpha Z        PSCENC =        47.94900195
  Ewald energy   TEWEN  =     40970.05347293
  -Hartree energ DENC   =    -47039.28430944
  -exchange      EXHF   =         0.00000000
  -V(xc)+E(xc)   XCENC  =       420.79772607
  PAW double counting   =      6525.96553977    -6260.36035765
  entropy T*S    EENTRO =        -0.00000000
  eigenvalues    EBANDS =     -3551.36419038
  atomic energy  EATOM  =      8369.52358910
  ---------------------------------------------------
  free energy    TOTEN  =      -516.71952765 eV

  energy without entropy =     -516.71952765  energy(sigma->0) =     -516.71952765


--------------------------------------------------------------------------------------------------------




--------------------------------------- Iteration      1(   5)  ---------------------------------------


    TRIAL :  cpu time   17.2632: real time   17.4145
    CORREC:  cpu time    0.0001: real time    0.0001
    CHARGE:  cpu time    0.8156: real time    0.8229
    --------------------------------------------
      LOOP:  cpu time   18.0813: real time   18.3009

 eigenvalue-minimisations  :   392
 total energy-change (2. order) :-0.1277715E+01  (-0.1275341E+01)
 number of electron     216.0000000 magnetization 
 augmentation part       -0.2800326 magnetization 

 Free energy of the ion-electron system (eV)
  ---------------------------------------------------
  alpha Z        PSCENC =        47.94900195
  Ewald energy   TEWEN  =     40970.05347293
  -Hartree energ DENC   =    -47039.28430944
  -exchange      EXHF   =         0.00000000
  -V(xc)+E(xc)   XCENC  =       420.79772607
  PAW double counting   =      6525.96553977    -6260.36035765
  entropy T*S    EENTRO =        -0.00000000
  eigenvalues    EBANDS =     -3552.64190580
  atomic energy  EATOM  =      8369.52358910
  ---------------------------------------------------
  free energy    TOTEN  =      -517.99724307 eV

  energy without entropy =     -517.99724307  energy(sigma->0) =     -517.99724307


--------------------------------------------------------------------------------------------------------




--------------------------------------- Iteration      1(   6)  ---------------------------------------


    POTLOK:  cpu time    0.7443: real time    0.7493
    SETDIJ:  cpu time    0.0026: real time    0.0026
    TRIAL :  cpu time    6.9185: real time    6.9730
    CORREC:  cpu time    2.2714: real time    2.2887
    CHARGE:  cpu time    0.8103: real time    0.8161
    --------------------------------------------
      LOOP:  cpu time   10.8165: real time   10.9032

 eigenvalue-minimisations  :     0
 total energy-change (2. order) : 0.5121291E+02  (-0.1525081E+02)
 number of electron     216.0000000 magnetization 
 augmentation part       -0.3788281 magnetization 

 Free energy of the ion-electron system (eV)
  ---------------------------------------------------
  alpha Z        PSCENC =        47.94900195
  Ewald energy   TEWEN  =     40970.05347293
  -Hartree energ DENC   =    -48477.74038775
  -exchange      EXHF   =         0.00000000
  -V(xc)+E(xc)   XCENC  =       468.99570892
  PAW double counting   =     90363.79881977   -90106.44109667
  entropy T*S    EENTRO =        -0.00000000
  eigenvalues    EBANDS =     -2102.92344120
  atomic energy  EATOM  =      8369.52358910
  ---------------------------------------------------
  free energy    TOTEN  =      -466.78433296 eV

  energy without entropy =     -466.78433296  energy(sigma->0) =     -466.78433296


--------------------------------------------------------------------------------------------------------




--------------------------------------- Iteration      1(   7)  ---------------------------------------


    POTLOK:  cpu time    0.7485: real time    0.7534
    SETDIJ:  cpu time    0.0026: real time    0.0026
    TRIAL :  cpu time    6.9147: real time    6.9712
    CORREC:  cpu time    2.2732: real time    2.2907
    CHARGE:  cpu time    0.8113: real time    0.8171
    --------------------------------------------
      LOOP:  cpu time   10.7622: real time   10.8778

 eigenvalue-minimisations  :     0
 total energy-change (2. order) :-0.1528135E+02  (-0.1828535E+01)
 number of electron     216.0000000 magnetization 
 augmentation part       -0.4241198 magnetization 

 Free energy of the ion-electron system (eV)
  ---------------------------------------------------
  alpha Z        PSCENC =        47.94900195
  Ewald energy   TEWEN  =     40970.05347293
  -Hartree energ DENC   =    -47983.96711198
  -exchange      EXHF   =         0.00000000
  -V(xc)+E(xc)   XCENC  =       452.45129785
  PAW double counting   =    106344.04699306  -106083.89860001
  entropy T*S    EENTRO =        -0.00000000
  eigenvalues    EBANDS =     -2598.22432314
  atomic energy  EATOM  =      8369.52358910
  ---------------------------------------------------
  free energy    TOTEN  =      -482.06568026 eV

  energy without entropy =     -482.06568026  energy(sigma->0) =     -482.06568026


--------------------------------------------------------------------------------------------------------




--------------------------------------- Iteration      1(   8)  ---------------------------------------


    POTLOK:  cpu time    0.7467: real time    0.7518
    SETDIJ:  cpu time    0.0026: real time    0.0026
    TRIAL :  cpu time    6.9100: real time    6.9717
    CORREC:  cpu time    2.2789: real time    2.2972
    CHARGE:  cpu time    0.8104: real time    0.8161
    --------------------------------------------
      LOOP:  cpu time   10.7778: real time   10.8826

 eigenvalue-minimisations  :     0
 total energy-change (2. order) :-0.1828262E+01  (-0.5339558E+00)
 number of electron     216.0000000 magnetization 
 augmentation part       -0.4367930 magnetization 

 Free energy of the ion-electron system (eV)
  ---------------------------------------------------
  alpha Z        PSCENC =        47.94900195
  Ewald energy   TEWEN  =     40970.05347293
  -Hartree energ DENC   =    -47955.12427928
  -exchange      EXHF   =         0.00000000
  -V(xc)+E(xc)   XCENC  =       451.75953374
  PAW double counting   =    110669.14811235  -110408.57741536
  entropy T*S    EENTRO =        -0.00000000
  eigenvalues    EBANDS =     -2628.62595760
  atomic energy  EATOM  =      8369.52358910
  ---------------------------------------------------
  free energy    TOTEN  =      -483.89394217 eV

  energy without entropy =     -483.89394217  energy(sigma->0) =     -483.89394217


--------------------------------------------------------------------------------------------------------




--------------------------------------- Iteration      1(   9)  ---------------------------------------


    POTLOK:  cpu time    0.7468: real time    0.7517
    SETDIJ:  cpu time    0.0027: real time    0.0027
    TRIAL :  cpu time    6.9136: real time    6.9703
    CORREC:  cpu time    2.2673: real time    2.2850
    CHARGE:  cpu time    0.8120: real time    0.8178
    --------------------------------------------
      LOOP:  cpu time   10.7783: real time   10.8655

 eigenvalue-minimisations  :     0
 total energy-change (2. order) :-0.5338221E+00  (-0.2044671E+00)
 number of electron     216.0000000 magnetization 
 augmentation part       -0.4413585 magnetization 

 Free energy of the ion-electron system (eV)
  ---------------------------------------------------
  alpha Z        PSCENC =        47.94900195
  Ewald energy   TEWEN  =     40970.05347293
  -Hartree energ DENC   =    -47966.85511747
  -exchange      EXHF   =         0.00000000
  -V(xc)+E(xc)   XCENC  =       451.78737341
  PAW double counting   =    113506.09864434  -113245.36724086
  entropy T*S    EENTRO =        -0.00000000
  eigenvalues    EBANDS =     -2617.61748765
  atomic energy  EATOM  =      8369.52358910
  ---------------------------------------------------
  free energy    TOTEN  =      -484.42776426 eV

  energy without entropy =     -484.42776426  energy(sigma->0) =     -484.42776426


--------------------------------------------------------------------------------------------------------




--------------------------------------- Iteration      1(  10)  ---------------------------------------


    POTLOK:  cpu time    0.7482: real time    0.7532
    SETDIJ:  cpu time    0.0026: real time    0.0027
    TRIAL :  cpu time    6.8917: real time    6.9653
    CORREC:  cpu time    2.2667: real time    2.2842
    CHARGE:  cpu time    0.8094: real time    0.8151
    --------------------------------------------
      LOOP:  cpu time   10.7753: real time   10.8775

 eigenvalue-minimisations  :     0
 total energy-change (2. order) :-0.2038764E+00  (-0.9068800E-01)
 number of electron     216.0000000 magnetization 
 augmentation part       -0.4395660 magnetization 

 Free energy of the ion-electron system (eV)
  ---------------------------------------------------
  alpha Z        PSCENC =        47.94900195
  Ewald energy   TEWEN  =     40970.05347293
  -Hartree energ DENC   =    -47964.88355587
  -exchange      EXHF   =         0.00000000
  -V(xc)+E(xc)   XCENC  =       451.61959844
  PAW double counting   =    113845.29694973  -113584.47862866
  entropy T*S    EENTRO =        -0.00000000
  eigenvalues    EBANDS =     -2619.71206826
  atomic energy  EATOM  =      8369.52358910
  ---------------------------------------------------
  free energy    TOTEN  =      -484.63164064 eV

  energy without entropy =     -484.63164064  energy(sigma->0) =     -484.63164064


--------------------------------------------------------------------------------------------------------




--------------------------------------- Iteration      1(  11)  ---------------------------------------


    POTLOK:  cpu time    0.7474: real time    0.7524
    SETDIJ:  cpu time    0.0028: real time    0.0028
    TRIAL :  cpu time    6.9143: real time    6.9693
    CORREC:  cpu time    2.2707: real time    2.2883
    CHARGE:  cpu time    0.8092: real time    0.8156
    --------------------------------------------
      LOOP:  cpu time   10.7632: real time   10.8927

 eigenvalue-minimisations  :     0
 total energy-change (2. order) :-0.9019120E-01  (-0.3346835E-01)
 number of electron     216.0000000 magnetization 
 augmentation part       -0.4375738 magnetization 

 Free energy of the ion-electron system (eV)
  ---------------------------------------------------
  alpha Z        PSCENC =        47.94900195
  Ewald energy   TEWEN  =     40970.05347293
  -Hartree energ DENC   =    -47957.03198355
  -exchange      EXHF   =         0.00000000
  -V(xc)+E(xc)   XCENC  =       451.47883002
  PAW double counting   =    113071.04187135  -112810.23450455
  entropy T*S    EENTRO =        -0.00000000
  eigenvalues    EBANDS =     -2627.50210909
  atomic energy  EATOM  =      8369.52358910
  ---------------------------------------------------
  free energy    TOTEN  =      -484.72183184 eV

  energy without entropy =     -484.72183184  energy(sigma->0) =     -484.72183184


--------------------------------------------------------------------------------------------------------




--------------------------------------- Iteration      1(  12)  ---------------------------------------


    POTLOK:  cpu time    0.7446: real time    0.7494
    SETDIJ:  cpu time    0.0027: real time    0.0027
    TRIAL :  cpu time    6.9132: real time    6.9681
    CORREC:  cpu time    2.2627: real time    2.2799
    CHARGE:  cpu time    0.8092: real time    0.8147
    --------------------------------------------
      LOOP:  cpu time   10.7677: real time   10.8507

 eigenvalue-minimisations  :     0
 total energy-change (2. order) :-0.3337652E-01  (-0.1025973E-01)
 number of electron     216.0000000 magnetization 
 augmentation part       -0.4372900 magnetization 

 Free energy of the ion-electron system (eV)
  ---------------------------------------------------
  alpha Z        PSCENC =        47.94900195
  Ewald energy   TEWEN  =     40970.05347293
  -Hartree energ DENC   =    -47953.06225055
  -exchange      EXHF   =         0.00000000
  -V(xc)+E(xc)   XCENC  =       451.40266227
  PAW double counting   =    112578.24209119  -112317.46512735
  entropy T*S    EENTRO =        -0.00000000
  eigenvalues    EBANDS =     -2631.39864790
  atomic energy  EATOM  =      8369.52358910
  ---------------------------------------------------
  free energy    TOTEN  =      -484.75520836 eV

  energy without entropy =     -484.75520836  energy(sigma->0) =     -484.75520836


--------------------------------------------------------------------------------------------------------




--------------------------------------- Iteration      1(  13)  ---------------------------------------


    POTLOK:  cpu time    0.7500: real time    0.7550
    SETDIJ:  cpu time    0.0025: real time    0.0025
    TRIAL :  cpu time    6.9194: real time    6.9758
    CORREC:  cpu time    2.2603: real time    2.2782
    CHARGE:  cpu time    0.8104: real time    0.8166
    --------------------------------------------
      LOOP:  cpu time   10.8147: real time   10.9043

 eigenvalue-minimisations  :     0
 total energy-change (2. order) :-0.1025011E-01  (-0.2772217E-02)
 number of electron     216.0000000 magnetization 
 augmentation part       -0.4371016 magnetization 

 Free energy of the ion-electron system (eV)
  ---------------------------------------------------
  alpha Z        PSCENC =        47.94900195
  Ewald energy   TEWEN  =     40970.05347293
  -Hartree energ DENC   =    -47952.28383012
  -exchange      EXHF   =         0.00000000
  -V(xc)+E(xc)   XCENC  =       451.37798374
  PAW double counting   =    112431.04017074  -112170.27455314
  entropy T*S    EENTRO =        -0.00000000
  eigenvalues    EBANDS =     -2632.15129365
  atomic energy  EATOM  =      8369.52358910
  ---------------------------------------------------
  free energy    TOTEN  =      -484.76545847 eV

  energy without entropy =     -484.76545847  energy(sigma->0) =     -484.76545847


--------------------------------------------------------------------------------------------------------




--------------------------------------- Iteration      1(  14)  ---------------------------------------


    POTLOK:  cpu time    0.7380: real time    0.7430
    SETDIJ:  cpu time    0.0028: real time    0.0028
    TRIAL :  cpu time    6.9060: real time    6.9663
    CORREC:  cpu time    2.2514: real time    2.2710
    CHARGE:  cpu time    0.8059: real time    0.8145
    --------------------------------------------
      LOOP:  cpu time   10.7948: real time   10.8901

 eigenvalue-minimisations  :     0
 total energy-change (2. order) :-0.2771905E-02  (-0.7700004E-03)
 number of electron     216.0000000 magnetization 
 augmentation part       -0.4369255 magnetization 

 Free energy of the ion-electron system (eV)
  ---------------------------------------------------
  alpha Z        PSCENC =        47.94900195
  Ewald energy   TEWEN  =     40970.05347293
  -Hartree energ DENC   =    -47952.10343189
  -exchange      EXHF   =         0.00000000
  -V(xc)+E(xc)   XCENC  =       451.37230937
  PAW double counting   =    112456.29902583  -112195.53557254
  entropy T*S    EENTRO =        -0.00000000
  eigenvalues    EBANDS =     -2632.32662512
  atomic energy  EATOM  =      8369.52358910
  ---------------------------------------------------
  free energy    TOTEN  =      -484.76823037 eV

  energy without entropy =     -484.76823037  energy(sigma->0) =     -484.76823037


--------------------------------------------------------------------------------------------------------




--------------------------------------- Iteration      1(  15)  ---------------------------------------


    POTLOK:  cpu time    0.7387: real time    0.7447
    SETDIJ:  cpu time    0.0028: real time    0.0028
    TRIAL :  cpu time    6.9234: real time    6.9885
    CORREC:  cpu time    2.2631: real time    2.2826
    CHARGE:  cpu time    0.8095: real time    0.8161
    --------------------------------------------
      LOOP:  cpu time   10.7884: real time   10.8866

 eigenvalue-minimisations  :     0
 total energy-change (2. order) :-0.7708591E-03  (-0.2560875E-03)
 number of electron     216.0000000 magnetization 
 augmentation part       -0.4367634 magnetization 

 Free energy of the ion-electron system (eV)
  ---------------------------------------------------
  alpha Z        PSCENC =        47.94900195
  Ewald energy   TEWEN  =     40970.05347293
  -Hartree energ DENC   =    -47951.89587560
  -exchange      EXHF   =         0.00000000
  -V(xc)+E(xc)   XCENC  =       451.36628578
  PAW double counting   =    112487.40836420  -112226.64428555
  entropy T*S    EENTRO =        -0.00000000
  eigenvalues    EBANDS =     -2632.52955404
  atomic energy  EATOM  =      8369.52358910
  ---------------------------------------------------
  free energy    TOTEN  =      -484.76900123 eV

  energy without entropy =     -484.76900123  energy(sigma->0) =     -484.76900123


--------------------------------------------------------------------------------------------------------




--------------------------------------- Iteration      1(  16)  ---------------------------------------


    POTLOK:  cpu time    0.7426: real time    0.7484
    SETDIJ:  cpu time    0.0027: real time    0.0027
    TRIAL :  cpu time    6.9003: real time    6.9645
    CORREC:  cpu time    2.2561: real time    2.2762
    CHARGE:  cpu time    0.8093: real time    0.8157
    --------------------------------------------
      LOOP:  cpu time   10.7583: real time   10.8582

 eigenvalue-minimisations  :     0
 total energy-change (2. order) :-0.2569561E-03  (-0.1049005E-03)
 number of electron     216.0000000 magnetization 
 augmentation part       -0.4366112 magnetization 

 Free energy of the ion-electron system (eV)
  ---------------------------------------------------
  alpha Z        PSCENC =        47.94900195
  Ewald energy   TEWEN  =     40970.05347293
  -Hartree energ DENC   =    -47951.98052554
  -exchange      EXHF   =         0.00000000
  -V(xc)+E(xc)   XCENC  =       451.36797825
  PAW double counting   =    112475.20975737  -112214.44555730
  entropy T*S    EENTRO =        -0.00000000
  eigenvalues    EBANDS =     -2632.44697495
  atomic energy  EATOM  =      8369.52358910
  ---------------------------------------------------
  free energy    TOTEN  =      -484.76925819 eV

  energy without entropy =     -484.76925819  energy(sigma->0) =     -484.76925819


--------------------------------------------------------------------------------------------------------




--------------------------------------- Iteration      1(  17)  ---------------------------------------


    POTLOK:  cpu time    0.7295: real time    0.7355
    SETDIJ:  cpu time    0.0028: real time    0.0028
    TRIAL :  cpu time    6.9053: real time    6.9708
    CORREC:  cpu time    2.2561: real time    2.2763
    CHARGE:  cpu time    0.8122: real time    0.8190
    --------------------------------------------
      LOOP:  cpu time   10.7570: real time   10.8899

 eigenvalue-minimisations  :     0
 total energy-change (2. order) :-0.1055566E-03  (-0.4550445E-04)
 number of electron     216.0000000 magnetization 
 augmentation part       -0.4366182 magnetization 

 Free energy of the ion-electron system (eV)
  ---------------------------------------------------
  alpha Z        PSCENC =        47.94900195
  Ewald energy   TEWEN  =     40970.05347293
  -Hartree energ DENC   =    -47952.19938973
  -exchange      EXHF   =         0.00000000
  -V(xc)+E(xc)   XCENC  =       451.37489481
  PAW double counting   =    112453.36334538  -112192.59969475
  entropy T*S    EENTRO =        -0.00000000
  eigenvalues    EBANDS =     -2632.23458342
  atomic energy  EATOM  =      8369.52358910
  ---------------------------------------------------
  free energy    TOTEN  =      -484.76936374 eV

  energy without entropy =     -484.76936374  energy(sigma->0) =     -484.76936374


--------------------------------------------------------------------------------------------------------




--------------------------------------- Iteration      1(  18)  ---------------------------------------


    POTLOK:  cpu time    0.7363: real time    0.7413
    SETDIJ:  cpu time    0.0028: real time    0.0028
    TRIAL :  cpu time    6.9086: real time    6.9653
    CORREC:  cpu time    2.2597: real time    2.2765
    CHARGE:  cpu time    0.8093: real time    0.8152
    --------------------------------------------
      LOOP:  cpu time   10.7635: real time   10.8492

 eigenvalue-minimisations  :     0
 total energy-change (2. order) :-0.4582811E-04  (-0.2011378E-04)
 number of electron     216.0000000 magnetization 
 augmentation part       -0.4366530 magnetization 

 Free energy of the ion-electron system (eV)
  ---------------------------------------------------
  alpha Z        PSCENC =        47.94900195
  Ewald energy   TEWEN  =     40970.05347293
  -Hartree energ DENC   =    -47952.21924574
  -exchange      EXHF   =         0.00000000
  -V(xc)+E(xc)   XCENC  =       451.37460171
  PAW double counting   =    112450.63151191  -112189.86723619
  entropy T*S    EENTRO =        -0.00000000
  eigenvalues    EBANDS =     -2632.21510524
  atomic energy  EATOM  =      8369.52358910
  ---------------------------------------------------
  free energy    TOTEN  =      -484.76940957 eV

  energy without entropy =     -484.76940957  energy(sigma->0) =     -484.76940957


--------------------------------------------------------------------------------------------------------




--------------------------------------- Iteration      1(  19)  ---------------------------------------


    POTLOK:  cpu time    0.7373: real time    0.7423
    SETDIJ:  cpu time    0.0027: real time    0.0027
    TRIAL :  cpu time    6.9021: real time    6.9595
    CORREC:  cpu time    2.2513: real time    2.2714
    CHARGE:  cpu time    0.8087: real time    0.8153
    --------------------------------------------
      LOOP:  cpu time   10.7667: real time   10.8576

 eigenvalue-minimisations  :     0
 total energy-change (2. order) :-0.1989979E-04  (-0.7906172E-05)
 number of electron     216.0000000 magnetization 
 augmentation part       -0.4367037 magnetization 

 Free energy of the ion-electron system (eV)
  ---------------------------------------------------
  alpha Z        PSCENC =        47.94900195
  Ewald energy   TEWEN  =     40970.05347293
  -Hartree energ DENC   =    -47952.26322923
  -exchange      EXHF   =         0.00000000
  -V(xc)+E(xc)   XCENC  =       451.37618868
  PAW double counting   =    112459.68707273  -112198.92265289
  entropy T*S    EENTRO =        -0.00000000
  eigenvalues    EBANDS =     -2632.17287274
  atomic energy  EATOM  =      8369.52358910
  ---------------------------------------------------
  free energy    TOTEN  =      -484.76942947 eV

  energy without entropy =     -484.76942947  energy(sigma->0) =     -484.76942947


--------------------------------------------------------------------------------------------------------




--------------------------------------- Iteration      1(  20)  ---------------------------------------


    POTLOK:  cpu time    0.7322: real time    0.7385
    SETDIJ:  cpu time    0.0028: real time    0.0028
    TRIAL :  cpu time    6.8894: real time    6.9627
    CORREC:  cpu time    2.2556: real time    2.2781
    CHARGE:  cpu time    0.8106: real time    0.8180
    --------------------------------------------
      LOOP:  cpu time   10.7152: real time   10.8609

 eigenvalue-minimisations  :     0
 total energy-change (2. order) :-0.7564071E-05  (-0.2867743E-05)
 number of electron     216.0000000 magnetization 
 augmentation part       -0.4367071 magnetization 

 Free energy of the ion-electron system (eV)
  ---------------------------------------------------
  alpha Z        PSCENC =        47.94900195
  Ewald energy   TEWEN  =     40970.05347293
  -Hartree energ DENC   =    -47952.27811582
  -exchange      EXHF   =         0.00000000
  -V(xc)+E(xc)   XCENC  =       451.37615441
  PAW double counting   =    112467.51420885  -112206.74962214
  entropy T*S    EENTRO =        -0.00000000
  eigenvalues    EBANDS =     -2632.15812631
  atomic energy  EATOM  =      8369.52358910
  ---------------------------------------------------
  free energy    TOTEN  =      -484.76943703 eV

  energy without entropy =     -484.76943703  energy(sigma->0) =     -484.76943703


--------------------------------------------------------------------------------------------------------




--------------------------------------- Iteration      1(  21)  ---------------------------------------


    POTLOK:  cpu time    0.7347: real time    0.7414
    SETDIJ:  cpu time    0.0029: real time    0.0029
    TRIAL :  cpu time    6.8816: real time    6.9633
    CORREC:  cpu time    2.2538: real time    2.2761
    CHARGE:  cpu time    0.8099: real time    0.8172
    --------------------------------------------
      LOOP:  cpu time   10.7182: real time   10.8553

 eigenvalue-minimisations  :     0
 total energy-change (2. order) :-0.2701723E-05  (-0.1096549E-05)
 number of electron     216.0000000 magnetization 
 augmentation part       -0.4367073 magnetization 

 Free energy of the ion-electron system (eV)
  ---------------------------------------------------
  alpha Z        PSCENC =        47.94900195
  Ewald energy   TEWEN  =     40970.05347293
  -Hartree energ DENC   =    -47952.27487914
  -exchange      EXHF   =         0.00000000
  -V(xc)+E(xc)   XCENC  =       451.37616699
  PAW double counting   =    112468.58566790  -112207.82120375
  entropy T*S    EENTRO =        -0.00000000
  eigenvalues    EBANDS =     -2632.16125571
  atomic energy  EATOM  =      8369.52358910
  ---------------------------------------------------
  free energy    TOTEN  =      -484.76943974 eV

  energy without entropy =     -484.76943974  energy(sigma->0) =     -484.76943974


--------------------------------------------------------------------------------------------------------




--------------------------------------- Iteration      1(  22)  ---------------------------------------


    POTLOK:  cpu time    0.7350: real time    0.7420
    SETDIJ:  cpu time    0.0027: real time    0.0028
    TRIAL :  cpu time    6.8850: real time    6.9640
    CORREC:  cpu time    2.2501: real time    2.2720
    CHARGE:  cpu time    0.8086: real time    0.8154
    --------------------------------------------
      LOOP:  cpu time   10.7205: real time   10.8383

 eigenvalue-minimisations  :     0
 total energy-change (2. order) :-0.1017557E-05  (-0.4764982E-06)
 number of electron     216.0000000 magnetization 
 augmentation part       -0.4366990 magnetization 

 Free energy of the ion-electron system (eV)
  ---------------------------------------------------
  alpha Z        PSCENC =        47.94900195
  Ewald energy   TEWEN  =     40970.05347293
  -Hartree energ DENC   =    -47952.25694813
  -exchange      EXHF   =         0.00000000
  -V(xc)+E(xc)   XCENC  =       451.37544099
  PAW double counting   =    112466.44849114  -112205.68403365
  entropy T*S    EENTRO =        -0.00000000
  eigenvalues    EBANDS =     -2632.17845508
  atomic energy  EATOM  =      8369.52358910
  ---------------------------------------------------
  free energy    TOTEN  =      -484.76944075 eV

  energy without entropy =     -484.76944075  energy(sigma->0) =     -484.76944075


--------------------------------------------------------------------------------------------------------




--------------------------------------- Iteration      1(  23)  ---------------------------------------


    POTLOK:  cpu time    0.7350: real time    0.7397
    SETDIJ:  cpu time    0.0028: real time    0.0028
    TRIAL :  cpu time    6.9179: real time    6.9746
    CORREC:  cpu time    2.2576: real time    2.2751
    CHARGE:  cpu time    0.8096: real time    0.8155
    --------------------------------------------
      LOOP:  cpu time   10.8065: real time   10.8951

 eigenvalue-minimisations  :     0
 total energy-change (2. order) :-0.3823225E-06  (-0.1974284E-06)
 number of electron     216.0000000 magnetization 
 augmentation part       -0.4367054 magnetization 

 Free energy of the ion-electron system (eV)
  ---------------------------------------------------
  alpha Z        PSCENC =        47.94900195
  Ewald energy   TEWEN  =     40970.05347293
  -Hartree energ DENC   =    -47952.25551528
  -exchange      EXHF   =         0.00000000
  -V(xc)+E(xc)   XCENC  =       451.37565515
  PAW double counting   =    112464.49232202  -112203.72797634
  entropy T*S    EENTRO =        -0.00000000
  eigenvalues    EBANDS =     -2632.17999067
  atomic energy  EATOM  =      8369.52358910
  ---------------------------------------------------
  free energy    TOTEN  =      -484.76944114 eV

  energy without entropy =     -484.76944114  energy(sigma->0) =     -484.76944114


--------------------------------------------------------------------------------------------------------




--------------------------------------- Iteration      1(  24)  ---------------------------------------


    POTLOK:  cpu time    0.7338: real time    0.7386
    SETDIJ:  cpu time    0.0027: real time    0.0027
    TRIAL :  cpu time    6.9072: real time    6.9764
    CORREC:  cpu time    2.2552: real time    2.2724
    CHARGE:  cpu time    0.8103: real time    0.8160
    --------------------------------------------
      LOOP:  cpu time   10.7876: real time   10.8873

 eigenvalue-minimisations  :     0
 total energy-change (2. order) :-0.1114095E-06  (-0.1328582E-06)
 number of electron     216.0000000 magnetization 
 augmentation part       -0.4367056 magnetization 

 Free energy of the ion-electron system (eV)
  ---------------------------------------------------
  alpha Z        PSCENC =        47.94900195
  Ewald energy   TEWEN  =     40970.05347293
  -Hartree energ DENC   =    -47952.24310993
  -exchange      EXHF   =         0.00000000
  -V(xc)+E(xc)   XCENC  =       451.37525045
  PAW double counting   =    112463.79284194  -112203.02843660
  entropy T*S    EENTRO =        -0.00000000
  eigenvalues    EBANDS =     -2632.19205108
  atomic energy  EATOM  =      8369.52358910
  ---------------------------------------------------
  free energy    TOTEN  =      -484.76944125 eV

  energy without entropy =     -484.76944125  energy(sigma->0) =     -484.76944125


--------------------------------------------------------------------------------------------------------




--------------------------------------- Iteration      1(  25)  ---------------------------------------


    POTLOK:  cpu time    0.7361: real time    0.7409
    SETDIJ:  cpu time    0.0027: real time    0.0027
    TRIAL :  cpu time    6.9050: real time    6.9641
    CORREC:  cpu time    2.2592: real time    2.2791
    CHARGE:  cpu time    0.8093: real time    0.8155
    --------------------------------------------
      LOOP:  cpu time   10.7857: real time   10.8793

 eigenvalue-minimisations  :     0
 total energy-change (2. order) : 0.2782326E-07  (-0.1310174E-06)
 number of electron     216.0000000 magnetization 
 augmentation part       -0.4367069 magnetization 

 Free energy of the ion-electron system (eV)
  ---------------------------------------------------
  alpha Z        PSCENC =        47.94900195
  Ewald energy   TEWEN  =     40970.05347293
  -Hartree energ DENC   =    -47952.24500219
  -exchange      EXHF   =         0.00000000
  -V(xc)+E(xc)   XCENC  =       451.37544464
  PAW double counting   =    112463.67519934  -112202.91081063
  entropy T*S    EENTRO =        -0.00000000
  eigenvalues    EBANDS =     -2632.19033635
  atomic energy  EATOM  =      8369.52358910
  ---------------------------------------------------
  free energy    TOTEN  =      -484.76944122 eV

  energy without entropy =     -484.76944122  energy(sigma->0) =     -484.76944122


--------------------------------------------------------------------------------------------------------




--------------------------------------- Iteration      1(  26)  ---------------------------------------


    POTLOK:  cpu time    0.7369: real time    0.7418
    SETDIJ:  cpu time    0.0028: real time    0.0028
    TRIAL :  cpu time    6.9093: real time    6.9651
    CORREC:  cpu time    9.0456: real time    9.1129
    CHARGE:  cpu time    0.8088: real time    0.8146
    --------------------------------------------
      LOOP:  cpu time   17.5451: real time   17.6811

 eigenvalue-minimisations  :     0
 total energy-change (2. order) :-0.1065928E-06  (-0.4037611E-06)
 number of electron     216.0000000 magnetization 
 augmentation part       -0.4366982 magnetization 

 Free energy of the ion-electron system (eV)
  ---------------------------------------------------
  alpha Z        PSCENC =        47.94900195
  Ewald energy   TEWEN  =     40970.05347293
  -Hartree energ DENC   =    -47952.24316531
  -exchange      EXHF   =         0.00000000
  -V(xc)+E(xc)   XCENC  =       451.37530025
  PAW double counting   =    112463.76823596  -112203.00382012
  entropy T*S    EENTRO =        -0.00000000
  eigenvalues    EBANDS =     -2632.19205608
  atomic energy  EATOM  =      8369.52358910
  ---------------------------------------------------
  free energy    TOTEN  =      -484.76944133 eV

  energy without entropy =     -484.76944133  energy(sigma->0) =     -484.76944133


--------------------------------------------------------------------------------------------------------




--------------------------------------- Iteration      1(  27)  ---------------------------------------


    POTLOK:  cpu time    0.7362: real time    0.7410
    SETDIJ:  cpu time    0.0029: real time    0.0029
    TRIAL :  cpu time    6.9060: real time    6.9620
    CORREC:  cpu time    2.2539: real time    2.2710
    CHARGE:  cpu time    0.8115: real time    0.8173
    --------------------------------------------
      LOOP:  cpu time   10.7631: real time   10.8479

 eigenvalue-minimisations  :     0
 total energy-change (2. order) : 0.7482740E-06  (-0.6725993E-06)
 number of electron     216.0000000 magnetization 
 augmentation part       -0.4367039 magnetization 

 Free energy of the ion-electron system (eV)
  ---------------------------------------------------
  alpha Z        PSCENC =        47.94900195
  Ewald energy   TEWEN  =     40970.05347293
  -Hartree energ DENC   =    -47952.26019313
  -exchange      EXHF   =         0.00000000
  -V(xc)+E(xc)   XCENC  =       451.37582033
  PAW double counting   =    112464.78674888  -112204.02239536
  entropy T*S    EENTRO =        -0.00000000
  eigenvalues    EBANDS =     -2632.17548527
  atomic energy  EATOM  =      8369.52358910
  ---------------------------------------------------
  free energy    TOTEN  =      -484.76944058 eV

  energy without entropy =     -484.76944058  energy(sigma->0) =     -484.76944058


--------------------------------------------------------------------------------------------------------




--------------------------------------- Iteration      1(  28)  ---------------------------------------


    POTLOK:  cpu time    0.7385: real time    0.7434
    SETDIJ:  cpu time    0.0030: real time    0.0030
    TRIAL :  cpu time    6.9037: real time    6.9617
    CORREC:  cpu time    2.2561: real time    2.2756
    CHARGE:  cpu time    0.8096: real time    0.8158
    --------------------------------------------
      LOOP:  cpu time   10.7393: real time   10.8292

 eigenvalue-minimisations  :     0
 total energy-change (2. order) :-0.6649643E-06  (-0.1197244E-06)
 number of electron     216.0000000 magnetization 
 augmentation part       -0.4367049 magnetization 

 Free energy of the ion-electron system (eV)
  ---------------------------------------------------
  alpha Z        PSCENC =        47.94900195
  Ewald energy   TEWEN  =     40970.05347293
  -Hartree energ DENC   =    -47952.25270052
  -exchange      EXHF   =         0.00000000
  -V(xc)+E(xc)   XCENC  =       451.37548949
  PAW double counting   =    112464.83521203  -112204.07079470
  entropy T*S    EENTRO =        -0.00000000
  eigenvalues    EBANDS =     -2632.18271152
  atomic energy  EATOM  =      8369.52358910
  ---------------------------------------------------
  free energy    TOTEN  =      -484.76944124 eV

  energy without entropy =     -484.76944124  energy(sigma->0) =     -484.76944124


--------------------------------------------------------------------------------------------------------




--------------------------------------- Iteration      1(  29)  ---------------------------------------


[...]
     30     C        0.00006303
     31     C       -0.00005058
     32     C       -0.00004057
     33     C        0.00003319
     34     C        0.00005142
     35     C        0.00005357
     36     C        0.00003239
     37     C        0.00001547
     38     C        0.00000926
     39     C       -0.00001636
     40     C       -0.00000049
     41     C       -0.00000581
     42     C       -0.00003070
     43     C        0.00002993
     44     C        0.00000563
     45     C        0.00006213
     46     C        0.00005138
     47     C        0.00003528
     48     C        0.00006095
     49     C        0.00001299
     50     C        0.00002305
     51     C        0.29453761
     52     O       -0.14762924
     53     O       -0.14769388

  Atomic reference data used in the T-S method for vdW correction:
            C6at              R0at           ALPHAat      REFSTATE
            (au)              (au)            (au)                
   ---------------------------------------------------------------
   C          46.600          3.590         12.000         0
   O          15.600          3.194          5.400         0
 
 Nth order contribution to Edisp (eV)
 Edisp(N=2):  -4.52492476406669     
 Edisp(N=3):  0.341085590040982     
 Edisp(N=4): -0.523897035654993     
 Edisp(N=5):  0.243488464608004     
 Edisp(N=6): -0.235536701766826     
 Edisp(N=inf):  -4.60926082057920     

  Tkatchenko/Scheffler method for vdW energy calculation
  ---------------------------------------------------------------------------------------------

  Parameters of vdW forcefield:
            C6ts              R0ts          ALPHAts         R0scs        ALPHAscs        RELVOL 
            (au)              (au)           (au)            (au)          (au)                 
   ---------------------------------------------------------------------------------------------
   C          32.894          3.388         10.082          3.266          9.032          0.840
   C          32.893          3.388         10.082          3.266          9.030          0.840
   C          32.897          3.388         10.082          3.266          9.032          0.840
   C          32.900          3.388         10.083          3.266          9.029          0.840
   C          32.891          3.388         10.081          3.266          9.030          0.840
   C          32.889          3.388         10.081          3.266          9.030          0.840
   C          32.895          3.388         10.082          3.266          9.033          0.840
   C          32.891          3.388         10.082          3.266          9.034          0.840
   C          32.892          3.388         10.082          3.266          9.033          0.840
   C          32.895          3.388         10.082          3.266          9.035          0.840
   C          32.890          3.388         10.081          3.266          9.032          0.840
   C          32.890          3.388         10.081          3.266          9.032          0.840
   C          32.894          3.388         10.082          3.266          9.034          0.840
   C          32.892          3.388         10.082          3.266          9.031          0.840
   C          32.889          3.388         10.081          3.265          9.027          0.840
   C          32.890          3.388         10.081          3.266          9.028          0.840
   C          32.892          3.388         10.082          3.266          9.031          0.840
   C          32.893          3.388         10.082          3.266          9.030          0.840
   C          32.894          3.388         10.082          3.266          9.032          0.840
   C          32.892          3.388         10.082          3.266          9.030          0.840
   C          32.889          3.388         10.081          3.266          9.028          0.840
   C          32.888          3.388         10.081          3.266          9.028          0.840
   C          32.901          3.388         10.083          3.266          9.029          0.840
   C          32.900          3.388         10.083          3.266          9.029          0.840
   C          32.889          3.388         10.081          3.266          9.032          0.840
   C          32.890          3.388         10.081          3.266          9.032          0.840
   C          32.892          3.388         10.082          3.266          9.034          0.840
   C          32.895          3.388         10.082          3.266          9.033          0.840
   C          32.889          3.388         10.081          3.266          9.029          0.840
   C          32.889          3.388         10.081          3.266          9.032          0.840
   C          32.898          3.388         10.083          3.266          9.031          0.840
   C          32.896          3.388         10.082          3.266          9.032          0.840
   C          32.891          3.388         10.081          3.266          9.031          0.840
   C          32.890          3.388         10.081          3.266          9.032          0.840
   C          32.890          3.388         10.081          3.266          9.031          0.840
   C          32.891          3.388         10.081          3.266          9.031          0.840
   C          32.893          3.388         10.082          3.266          9.030          0.840
   C          32.893          3.388         10.082          3.266          9.031          0.840
   C          32.895          3.388         10.082          3.266          9.032          0.840
   C          32.894          3.388         10.082          3.266          9.032          0.840
   C          32.894          3.388         10.082          3.266          9.031          0.840
   C          32.895          3.388         10.082          3.266          9.033          0.840
   C          32.892          3.388         10.082          3.266          9.030          0.840
   C          32.894          3.388         10.082          3.266          9.032          0.840
   C          32.889          3.388         10.081          3.266          9.031          0.840
   C          32.890          3.388         10.081          3.266          9.028          0.840
   C          32.890          3.388         10.081          3.266          9.032          0.840
   C          32.890          3.388         10.081          3.266          9.032          0.840
   C          32.893          3.388         10.082          3.266          9.031          0.840
   C          32.892          3.388         10.082          3.266          9.031          0.840
   C          26.353          3.265          9.024          3.199          8.490          0.752
   O          12.457          3.076          4.825          3.036          4.638          0.894
   O          12.458          3.076          4.826          3.036          4.638          0.894

  vdW correction parametrized for the method pbe       

  IVDW = 202
  VDW_RADIUS =    50.000 A
  VDW_SR =     0.830
  VDW_D =     6.000
  SCSRAD =   120.000 A
  LVDWSCS = T
  LSCSGRAD = T
  LSCALER0 = T
  ITIM = -1
  Edisp (eV):   -4.60926
    FORVDW:  cpu time   18.9394: real time   19.0727

 VOLUME and BASIS-vectors are now :
 -----------------------------------------------------------------------------
  energy-cutoff  :     1000.00
  volume of cell :     3288.85
      direct lattice vectors                 reciprocal lattice vectors
    12.325000000  0.000000000  0.000000000     0.081135903  0.046843835  0.000000000
    -6.162500000 10.673763102  0.000000000     0.000000000  0.093687670  0.000000000
     0.000000000  0.000000000 25.000000000     0.000000000  0.000000000  0.040000000

  length of vectors
    12.325000000 12.325000000 25.000000000     0.093687670  0.093687670  0.040000000


 FORCES acting on ions:
    Electron-Ion                     Ewald-Force                    Non-Local-Force
 -----------------------------------------------------------------------------------------------
   0.466E+00 0.422E+00 0.119E+02   -.467E+00 -.423E+00 -.119E+02   0.406E-02 -.617E-03 0.566E-02
   0.636E+00 0.380E+00 0.128E+02   -.639E+00 -.378E+00 -.128E+02   0.237E-02 -.293E-02 -.581E-02
   0.251E+00 0.691E+00 0.127E+02   -.253E+00 -.691E+00 -.127E+02   0.911E-05 0.111E-01 -.216E-02
   0.316E+00 0.468E+00 0.147E+02   -.313E+00 -.468E+00 -.147E+02   0.112E-01 0.637E-03 -.164E-01
   0.543E+00 0.152E+00 0.124E+02   -.541E+00 -.153E+00 -.124E+02   -.105E-02 -.502E-02 0.399E-02
   0.555E+00 -.128E+00 0.126E+02   -.558E+00 0.129E+00 -.126E+02   -.653E-02 0.364E-02 -.180E-02
   0.592E+00 0.302E+00 0.148E+02   -.593E+00 -.303E+00 -.148E+02   0.111E-01 -.187E-01 -.708E-02
   0.630E+00 -.177E+00 0.160E+02   -.635E+00 0.179E+00 -.160E+02   -.793E-02 -.479E-02 -.566E-02
   -.290E+00 0.714E+00 0.131E+02   0.293E+00 -.716E+00 -.131E+02   0.652E-03 -.136E-01 -.494E-02
   -.340E+00 0.314E+00 0.151E+02   0.340E+00 -.314E+00 -.151E+02   -.250E-01 0.142E-01 0.150E-02
   0.144E+00 -.143E+00 0.118E+02   -.141E+00 0.143E+00 -.118E+02   0.400E-02 -.275E-02 0.991E-03
   0.152E+00 -.122E+00 0.116E+02   -.153E+00 0.123E+00 -.116E+02   -.625E-02 0.319E-02 0.683E-02
   0.127E+00 -.471E+00 0.168E+02   -.126E+00 0.473E+00 -.168E+02   0.258E-01 -.698E-02 -.289E-02
   0.878E-01 -.777E+00 0.143E+02   -.911E-01 0.779E+00 -.143E+02   0.303E-02 0.738E-02 -.158E-01
   -.520E+00 0.308E+00 0.120E+02   0.522E+00 -.309E+00 -.120E+02   0.758E-02 -.414E-02 0.834E-02
   -.636E+00 0.158E+00 0.121E+02   0.635E+00 -.158E+00 -.121E+02   -.111E-02 0.482E-02 -.412E-02
   -.863E-01 -.395E-01 0.112E+02   0.887E-01 0.380E-01 -.112E+02   0.434E-03 0.948E-04 0.222E-02
   0.460E-01 0.310E+00 0.113E+02   -.459E-01 -.311E+00 -.113E+02   -.246E-02 0.122E-02 0.917E-02
   -.144E+00 -.723E+00 0.130E+02   0.144E+00 0.724E+00 -.130E+02   0.548E-02 -.114E-02 0.226E-04
   -.882E-01 -.454E+00 0.119E+02   0.857E-01 0.454E+00 -.119E+02   -.581E-03 -.541E-03 -.520E-03
   0.701E+00 -.285E+00 0.138E+02   -.701E+00 0.285E+00 -.137E+02   -.230E-02 -.178E-02 -.154E-01
   0.516E+00 -.408E+00 0.130E+02   -.518E+00 0.409E+00 -.130E+02   -.704E-02 0.550E-02 -.851E-03
   -.109E+00 0.180E+00 0.165E+02   0.105E+00 -.178E+00 -.165E+02   -.990E-02 0.102E-01 -.103E-02
   -.178E+00 -.287E+00 0.165E+02   0.181E+00 0.285E+00 -.165E+02   0.118E-01 -.143E-01 -.123E-01
   0.272E+00 -.990E-01 0.119E+02   -.271E+00 0.977E-01 -.119E+02   0.385E-02 -.272E-02 -.206E-02
   0.921E-01 0.226E+00 0.117E+02   -.925E-01 -.225E+00 -.117E+02   -.462E-02 0.306E-02 0.647E-02
   -.751E+00 0.390E-01 0.135E+02   0.755E+00 -.408E-01 -.135E+02   0.128E-01 0.737E-02 -.250E-02
   -.668E+00 -.295E+00 0.129E+02   0.669E+00 0.295E+00 -.129E+02   -.776E-02 0.879E-02 -.747E-04
   0.262E+00 -.578E+00 0.131E+02   -.261E+00 0.578E+00 -.131E+02   0.374E-02 0.256E-02 -.569E-02
   0.299E-01 -.252E+00 0.121E+02   -.319E-01 0.253E+00 -.121E+02   -.504E-02 0.244E-02 -.114E-02
   -.479E+00 -.460E+00 0.138E+02   0.477E+00 0.461E+00 -.138E+02   -.113E-01 -.781E-02 -.143E-01
   -.361E+00 -.698E+00 0.127E+02   0.362E+00 0.697E+00 -.127E+02   0.523E-03 -.433E-03 0.102E-02
   0.196E-01 0.166E+00 0.115E+02   -.191E-01 -.167E+00 -.115E+02   0.452E-02 -.446E-02 0.776E-02
   0.869E-01 0.133E+00 0.116E+02   -.896E-01 -.132E+00 -.116E+02   -.250E-02 0.470E-02 -.257E-03
   -.337E+00 0.662E-01 0.117E+02   0.340E+00 -.672E-01 -.118E+02   0.431E-02 -.254E-02 0.685E-02
   -.292E+00 -.145E+00 0.117E+02   0.291E+00 0.146E+00 -.117E+02   -.334E-02 0.210E-02 0.447E-02
   -.542E+00 -.311E+00 0.118E+02   0.545E+00 0.309E+00 -.118E+02   -.781E-04 0.826E-03 0.325E-02
   -.365E+00 -.299E+00 0.115E+02   0.366E+00 0.300E+00 -.115E+02   -.326E-02 0.118E-02 0.873E-02
   -.341E+00 -.424E+00 0.117E+02   0.340E+00 0.425E+00 -.117E+02   -.249E-02 0.372E-03 0.411E-02
   -.486E-01 -.127E+00 0.114E+02   0.496E-01 0.126E+00 -.114E+02   0.169E-02 0.812E-03 0.692E-02
   0.133E+00 0.322E+00 0.113E+02   -.134E+00 -.322E+00 -.113E+02   -.375E-02 0.132E-02 0.639E-02
   0.397E+00 0.578E+00 0.118E+02   -.395E+00 -.579E+00 -.118E+02   -.112E-02 -.115E-02 0.673E-02
   0.539E-01 0.523E+00 0.115E+02   -.513E-01 -.525E+00 -.115E+02   0.419E-03 0.118E-03 0.238E-02
   0.143E-01 0.742E+00 0.123E+02   -.140E-01 -.743E+00 -.124E+02   -.737E-02 0.109E-02 0.465E-02
   -.106E+00 0.189E+00 0.118E+02   0.108E+00 -.191E+00 -.118E+02   0.428E-02 -.320E-02 0.255E-02
   -.349E+00 0.471E+00 0.121E+02   0.349E+00 -.471E+00 -.121E+02   -.549E-02 -.218E-03 -.478E-03
   -.123E+00 -.238E+00 0.119E+02   0.124E+00 0.237E+00 -.119E+02   0.565E-02 -.108E-02 0.672E-02
   -.217E+00 0.713E-01 0.115E+02   0.215E+00 -.707E-01 -.115E+02   -.385E-02 0.327E-02 -.203E-02
   0.112E-01 -.139E+00 0.115E+02   -.111E-01 0.139E+00 -.115E+02   0.378E-02 -.291E-02 0.560E-02
   0.225E+00 0.165E+00 0.114E+02   -.227E+00 -.164E+00 -.114E+02   -.926E-03 0.188E-02 0.331E-02
   -.446E-02 0.296E-01 -.157E+03   -.336E-03 -.254E-01 0.158E+03   -.273E-02 0.179E-02 -.279E-02
   -.229E+03 0.156E+03 -.249E+03   0.279E+03 -.190E+03 0.252E+03   -.511E+02 0.348E+02 -.343E+01
   0.229E+03 -.156E+03 -.227E+03   -.279E+03 0.190E+03 0.224E+03   0.511E+02 -.348E+02 0.309E+01
 -----------------------------------------------------------------------------------------------
   -.814E-02 0.144E-01 0.344E+00   0.114E-12 -.853E-13 0.284E-13   0.754E-02 -.141E-01 -.343E+00
 
 
 POSITION                                       TOTAL-FORCE (eV/Angst)
 -----------------------------------------------------------------------------------
     11.98348      0.00342      0.01417         0.003305     -0.001681     -0.001127
     -0.34154      1.42665      0.01100        -0.000471     -0.000131     -0.003489
      2.12355      0.00315      0.01249        -0.001735      0.010935     -0.006568
      2.12326      1.42653      0.00641         0.013508      0.001324     -0.008330
     10.75099      2.13819      0.01213         0.000420     -0.005795     -0.000089
     -1.57382      3.56123      0.01110        -0.008971      0.004750     -0.001429
      0.89078      2.13854      0.00548         0.009802     -0.019185      0.002492
      0.89099      3.56147      0.00181        -0.011615     -0.002612      0.012067
      4.58864      0.00346      0.01135         0.003471     -0.015725     -0.003558
      4.58894      1.42623      0.00646        -0.023844      0.013485      0.013933
      9.51854      4.27281      0.01369         0.006558     -0.003098      0.000098
     -2.80632      5.69591      0.01434        -0.006569      0.003396      0.000698
      2.12300      4.27302      0.00000         0.025326     -0.005240      0.020705
      2.12335      5.69594      0.00581        -0.000351      0.009022     -0.002545
      7.05344      0.00333      0.01399         0.009436     -0.005308     -0.000398
      7.05353      1.42635      0.01368        -0.001756      0.005081     -0.003941
      8.28610      6.40752      0.01601         0.002864     -0.001460     -0.000980
     -4.03885      7.83070      0.01636        -0.002260      0.000876     -0.000224
      3.35586      6.40753      0.01007         0.005606      0.000442     -0.001227
      3.35599      7.83072      0.01320        -0.003104     -0.000065     -0.000768
     -0.34146      4.27290      0.00723        -0.001756     -0.001585     -0.004413
     -0.34138      5.69591      0.00946        -0.009220      0.006532     -0.000988
      3.35624      2.13791      0.00222        -0.013655      0.012050      0.016118
      3.35573      3.56155      0.00139         0.013679     -0.016078      0.008619
     -1.57395      6.40758      0.01311         0.005366     -0.003939     -0.000685
     -1.57385      7.83068      0.01438        -0.004877      0.003774     -0.000044
      5.82093      2.13784      0.01033         0.015857      0.005308     -0.002914
      5.82114      3.56097      0.01156        -0.006518      0.008582     -0.003744
      0.89092      6.40755      0.00907         0.004710      0.002324     -0.002192
      0.89106      7.83068      0.01235        -0.006809      0.003884      0.000301
      4.58871      4.27293      0.00850        -0.013077     -0.006620     -0.010881
      4.58852      5.69606      0.01149         0.001971     -0.001264     -0.004044
      9.51845      0.00337      0.01490         0.004817     -0.004694      0.000089
      9.51855      1.42644      0.01438        -0.005097      0.005419     -0.000450
      8.28593      2.13803      0.01453         0.006777     -0.003400      0.000517
      8.28613      3.56115      0.01464        -0.004379      0.002254     -0.000151
      7.05356      4.27269      0.01457         0.002491     -0.001108     -0.000824
      7.05362      5.69588      0.01553        -0.002541      0.001571     -0.000197
      5.82112      6.40755      0.01489        -0.003017      0.001561     -0.000232
      5.82102      7.83073      0.01579         0.002748      0.000233     -0.000429
      7.05363      8.54227      0.01631        -0.004691      0.001329      0.000874
     -5.27149      9.96549      0.01495         0.000203     -0.001968     -0.002327
     -2.80638      8.54234      0.01558         0.003100     -0.001274     -0.001408
     -2.80627      9.96553      0.01362        -0.006875      0.000002     -0.003903
     -0.34149      8.54239      0.01378         0.005808     -0.004925      0.000140
     -0.34138      9.96550      0.01354        -0.006022     -0.000078     -0.001376
      2.12343      8.54232      0.01336         0.005940     -0.001550      0.000728
      2.12354      9.96544      0.01469        -0.005098      0.003795     -0.002016
      4.58846      8.54235      0.01505         0.003756     -0.002818      0.000883
      4.58853      9.96550      0.01517        -0.002663      0.003333     -0.000018
      3.04930      2.68154      8.90899        -0.007326      0.005884      0.034331
      4.02070      2.02068      8.97341        -0.531392      0.361119     -0.051607
      2.07767      3.34267      8.84953         0.538166     -0.366664      0.016920
 -----------------------------------------------------------------------------------
    total drift:                               -0.000598      0.000309      0.000571


--------------------------------------------------------------------------------------------------------



  FREE ENERGIE OF THE ION-ELECTRON SYSTEM (eV)
  ---------------------------------------------------
  free  energy   TOTEN  =      -489.37870215 eV

  energy  without entropy=     -489.37870215  energy(sigma->0) =     -489.37870215
 


--------------------------------------------------------------------------------------------------------


    POTLOK:  cpu time    0.7561: real time    0.7622


--------------------------------------------------------------------------------------------------------


     LOOP+:  cpu time  423.7567: real time  427.8638
    4ORBIT:  cpu time    0.0000: real time    0.0000

 total amount of memory used by VASP MPI-rank0   551512. kBytes
=======================================================================

   base      :      30000. kBytes
   nonl-proj :     230539. kBytes
   fftplans  :      40716. kBytes
   grid      :     216018. kBytes
   one-center:        162. kBytes
   wavefun   :      34077. kBytes
 
  
  
 General timing and accounting informations for this job:
 ========================================================
  
                  Total CPU time used (sec):      469.904
                            User time (sec):      446.496
                          System time (sec):       23.409
                         Elapsed time (sec):      475.214
  
                   Maximum memory used (kb):     1008164.
                   Average memory used (kb):          N/A
  
                          Minor page faults:       128246
                          Major page faults:           73
                 Voluntary context switches:         3467
