 vasp.6.2.1 16May21 (build Nov 06 2021 14:46:37) complex                        
  
 executed on             LinuxIFC date 2025.03.03  19:18:49
 running on  112 total cores
 distrk:  each k-point on   56 cores,    2 groups
 distr:  one band on NCORE=   1 cores,   56 groups


--------------------------------------------------------------------------------------------------------


 INCAR:
   ALGO = Conjugate
   KPAR = 2
   NCORE = 32
   PREC = Accurate
   EDIFF = 1E-7
   ENCUT = 1000
   ISMEAR = 0
   SIGMA = 0.01
   ISIF = 0
   GGA = PE
   IVDW = 202
   LVDWEXPANSION = .TRUE.
   LWAVE = .FALSE.
   LCHARGE = .FALSE.
   SYMPREC = 1E-7

 POTCAR:    PAW_PBE C_h 06Feb2004                 
 POTCAR:    PAW_PBE O_h 06Feb2004                 
 -----------------------------------------------------------------------------
|                                                                             |
|           W    W    AA    RRRRR   N    N  II  N    N   GGGG   !!!           |
|           W    W   A  A   R    R  NN   N  II  NN   N  G    G  !!!           |
|           W    W  A    A  R    R  N N  N  II  N N  N  G       !!!           |
|           W WW W  AAAAAA  RRRRR   N  N N  II  N  N N  G  GGG   !            |
|           WW  WW  A    A  R   R   N   NN  II  N   NN  G    G                |
|           W    W  A    A  R    R  N    N  II  N    N   GGGG   !!!           |
|                                                                             |
|     The value NCORE = 32 specified in the INCAR file was overwritten,       |
|     because it was not compatible with the 56 processes available:          |
|     NCORE = 1                                                               |
|     was used instead, please check that this makes sense for your           |
|     machine.                                                                |
|                                                                             |
 -----------------------------------------------------------------------------

 -----------------------------------------------------------------------------
|                                                                             |
|           W    W    AA    RRRRR   N    N  II  N    N   GGGG   !!!           |
|           W    W   A  A   R    R  NN   N  II  NN   N  G    G  !!!           |
|           W    W  A    A  R    R  N N  N  II  N N  N  G       !!!           |
|           W WW W  AAAAAA  RRRRR   N  N N  II  N  N N  G  GGG   !            |
|           WW  WW  A    A  R   R   N   NN  II  N   NN  G    G                |
|           W    W  A    A  R    R  N    N  II  N    N   GGGG   !!!           |
|                                                                             |
|     For optimal performance we recommend to set                             |
|       NCORE = 2 up to number-of-cores-per-socket                            |
|     NCORE specifies how many cores store one orbital (NPAR=cpu/NCORE).      |
|     This setting can greatly improve the performance of VASP for DFT.       |
|     The default, NCORE=1 might be grossly inefficient on modern             |
|     multi-core architectures or massively parallel machines. Do your        |
|     own testing! More info at https://www.vasp.at/wiki/index.php/NCORE      |
|     Unfortunately you need to use the default for GW and RPA                |
|     calculations (for HF NCORE is supported but not extensively tested      |
|     yet).                                                                   |
|                                                                             |
 -----------------------------------------------------------------------------

 POTCAR:    PAW_PBE C_h 06Feb2004                 
   VRHFIN =C: s2p2                                                                                  
   LEXCH  = PE                                                                                      
   EATOM  =   147.1560 eV,   10.8157 Ry                                                             
                                                                                                    
   TITEL  = PAW_PBE C_h 06Feb2004                                                                   
   LULTRA =        F    use ultrasoft PP ?                                                          
   IUNSCR =        1    unscreen: 0-lin 1-nonlin 2-no                                               
   RPACOR =    0.800    partial core radius                                                         
   POMASS =   12.011; ZVAL   =    4.000    mass and valenz                                          
   RCORE  =    1.100    outmost cutoff radius                                                       
   RWIGS  =    1.630; RWIGS  =    0.863    wigner-seitz radius (au A)                               
   ENMAX  =  700.000; ENMIN  =  500.000 eV                                                          
   ICORE  =        2    local potential                                                             
   LCOR   =        T    correct aug charges                                                         
   LPAW   =        T    paw PP                                                                      
   EAUG   =  946.768                                                                                
   DEXC   =    0.000                                                                                
   RMAX   =    1.128    core radius for proj-oper                                                   
   RAUG   =    1.300    factor for augmentation sphere                                              
   RDEP   =    1.162    radius for radial grids                                                     
   RDEPT  =    1.088    core radius for aug-charge                                                  
                                                                                                    
   Atomic configuration                                                                             
    4 entries                                                                                       
     n  l   j            E        occ.                                                              
     1  0  0.50      -273.3789   2.0000                                                             
     2  0  0.50       -13.7508   2.0000                                                             
     2  1  0.50        -5.2854   2.0000                                                             
     3  2  1.50        -5.4423   0.0000                                                             
   Description                                                                                      
     l       E           TYP  RCUT    TYP  RCUT                                                     
     0    -13.7508458     23  1.100                                                                 
     0     -8.2022199     23  1.100                                                                 
     1     -5.2854383     23  1.100                                                                 
     1      1.1560700     23  1.100                                                                 
     2     -5.4423304      7  1.100                                                                 
  local pseudopotential read in
  partial core-charges read in
  partial kinetic energy density read in
  atomic valenz-charges read in
  non local Contribution for L=           0  read in
    real space projection operators read in
  non local Contribution for L=           0  read in
    real space projection operators read in
  non local Contribution for L=           1  read in
    real space projection operators read in
  non local Contribution for L=           1  read in
    real space projection operators read in
    PAW grid and wavefunctions read in
 
   number of l-projection  operators is LMAX  =           4
   number of lm-projection operators is LMMAX =           8
 
 POTCAR:    PAW_PBE O_h 06Feb2004                 
   VRHFIN =O: s2p4                                                                                  
   LEXCH  = PE                                                                                      
   EATOM  =   432.3788 eV,   31.7789 Ry                                                             
                                                                                                    
   TITEL  = PAW_PBE O_h 06Feb2004                                                                   
   LULTRA =        F    use ultrasoft PP ?                                                          
   IUNSCR =        1    unscreen: 0-lin 1-nonlin 2-no                                               
   RPACOR =    0.800    partial core radius                                                         
   POMASS =   16.000; ZVAL   =    6.000    mass and valenz                                          
   RCORE  =    1.100    outmost cutoff radius                                                       
   RWIGS  =    1.400; RWIGS  =    0.741    wigner-seitz radius (au A)                               
   ENMAX  =  700.000; ENMIN  =  500.000 eV                                                          
   ICORE  =        2    local potential                                                             
   LCOR   =        T    correct aug charges                                                         
   LPAW   =        T    paw PP                                                                      
   EAUG   =  888.804                                                                                
   DEXC   =    0.000                                                                                
   RMAX   =    1.128    core radius for proj-oper                                                   
   RAUG   =    1.300    factor for augmentation sphere                                              
   RDEP   =    1.125    radius for radial grids                                                     
   RDEPT  =    1.088    core radius for aug-charge                                                  
                                                                                                    
   Atomic configuration                                                                             
    4 entries                                                                                       
     n  l   j            E        occ.                                                              
     1  0  0.50      -514.6923   2.0000                                                             
     2  0  0.50       -23.9615   2.0000                                                             
     2  1  0.50        -9.0305   4.0000                                                             
     3  2  1.50        -9.5241   0.0000                                                             
   Description                                                                                      
     l       E           TYP  RCUT    TYP  RCUT                                                     
     0    -23.9615319     23  1.100                                                                 
     0    -25.3221145     23  1.100                                                                 
     1     -9.0304911     23  1.100                                                                 
     1     -5.4802209     23  1.100                                                                 
     2     -9.5240782      7  1.100                                                                 
  local pseudopotential read in
  partial core-charges read in
  partial kinetic energy density read in
  atomic valenz-charges read in
  non local Contribution for L=           0  read in
    real space projection operators read in
  non local Contribution for L=           0  read in
    real space projection operators read in
  non local Contribution for L=           1  read in
    real space projection operators read in
  non local Contribution for L=           1  read in
    real space projection operators read in
    PAW grid and wavefunctions read in
 
   number of l-projection  operators is LMAX  =           4
   number of lm-projection operators is LMMAX =           8
 
 -----------------------------------------------------------------------------
|                                                                             |
|               ----> ADVICE to this user running VASP <----                  |
|                                                                             |
|     You have a (more or less) 'large supercell' and for larger cells it     |
|     might be more efficient to use real-space projection operators.         |
|     Therefore, try LREAL= Auto in the INCAR file.                           |
|     Mind: For very accurate calculation, you might also keep the            |
|     reciprocal projection scheme (i.e. LREAL=.FALSE.).                      |
|                                                                             |
 -----------------------------------------------------------------------------

  PAW_PBE C_h 06Feb2004                 :
 energy of atom  1       EATOM= -147.1560
 kinetic energy error for atom=    0.0031 (will be added to EATOM!!)
  PAW_PBE O_h 06Feb2004                 :
 energy of atom  2       EATOM= -432.3788
 kinetic energy error for atom=    0.0171 (will be added to EATOM!!)
 
 
 POSCAR:  C  O
  positions in cartesian coordinates
  No initial velocities read in
 exchange correlation table for  LEXCH =        8
   RHO(1)=    0.500       N(1)  =     2000
   RHO(2)=  100.500       N(2)  =     4000
 


--------------------------------------------------------------------------------------------------------


 ion  position               nearest neighbor table
   1  0.972  0.000  0.001-  50 1.42   2 1.42  42 1.42
   2  0.039  0.134  0.001-   5 1.42   7 1.42   1 1.42
   3  0.172  0.000  0.001-  42 1.42  44 1.42   4 1.42
   4  0.239  0.134  0.000-   7 1.42   3 1.42  23 1.42
   5  0.972  0.200  0.001-   6 1.42   2 1.42  34 1.42
   6  0.039  0.334  0.001-   5 1.42  21 1.42  11 1.42
   7  0.172  0.200  0.000-   8 1.42   2 1.42   4 1.42
   8  0.239  0.334  0.000-  13 1.42   7 1.42  21 1.42
   9  0.372  0.000  0.001-  10 1.42  44 1.42  46 1.42
  10  0.439  0.134  0.000-  27 1.42   9 1.42  23 1.42
  11  0.972  0.400  0.001-  12 1.42  36 1.42   6 1.42
  12  0.039  0.534  0.001-  25 1.42  11 1.42  17 1.42
  13  0.372  0.400  0.000-   8 1.42  14 1.42  24 1.42
  14  0.439  0.534  0.000-  13 1.42  29 1.42  19 1.42
  15  0.572  0.000  0.001-  46 1.42  16 1.42  48 1.42
  16  0.639  0.134  0.001-  15 1.42  35 1.42  27 1.42
  17  0.972  0.600  0.001-  38 1.42  18 1.42  12 1.42
  18  0.039  0.734  0.001-  43 1.42  41 1.42  17 1.42
  19  0.572  0.600  0.001-  14 1.42  20 1.42  32 1.42
  20  0.639  0.734  0.001-  49 1.42  19 1.42  47 1.42
  21  0.172  0.400  0.000-  22 1.42   8 1.42   6 1.42
  22  0.239  0.534  0.000-  21 1.42  29 1.42  25 1.42
  23  0.372  0.200  0.000-  10 1.42   4 1.42  24 1.42
  24  0.439  0.334  0.000-  13 1.42  31 1.42  23 1.42
  25  0.172  0.600  0.001-  26 1.42  12 1.42  22 1.42
  26  0.239  0.734  0.001-  25 1.42  45 1.42  43 1.42
  27  0.572  0.200  0.001-  10 1.42  28 1.42  16 1.42
  28  0.639  0.334  0.001-  27 1.42  37 1.42  31 1.42
  29  0.372  0.600  0.000-  22 1.42  14 1.42  30 1.42
  30  0.439  0.734  0.001-  47 1.42  29 1.42  45 1.42
  31  0.572  0.400  0.000-  32 1.42  28 1.42  24 1.42
  32  0.639  0.534  0.001-  31 1.42  39 1.42  19 1.42
  33  0.772  0.000  0.001-  34 1.42  48 1.42  50 1.42
  34  0.839  0.134  0.001-  33 1.42   5 1.42  35 1.42
  35  0.772  0.200  0.001-  36 1.42  16 1.42  34 1.42
  36  0.839  0.334  0.001-  35 1.42  11 1.42  37 1.42
  37  0.772  0.400  0.001-  28 1.42  38 1.42  36 1.42
  38  0.839  0.534  0.001-  17 1.42  37 1.42  39 1.42
  39  0.772  0.600  0.001-  40 1.42  38 1.42  32 1.42
  40  0.839  0.734  0.001-  39 1.42  49 1.42  41 1.42
  41  0.972  0.800  0.001-  18 1.42  42 1.42  40 1.42
  42  0.039  0.934  0.001-   3 1.42  41 1.42   1 1.42
  43  0.172  0.800  0.001-  18 1.42  44 1.42  26 1.42
  44  0.239  0.934  0.001-   9 1.42  43 1.42   3 1.42
  45  0.372  0.800  0.001-  26 1.42  46 1.42  30 1.42
  46  0.439  0.934  0.001-  15 1.42  45 1.42   9 1.42
  47  0.572  0.800  0.001-  30 1.42  48 1.42  20 1.42
  48  0.639  0.934  0.001-  47 1.42  33 1.42  15 1.42
  49  0.772  0.800  0.001-  50 1.42  20 1.42  40 1.42
  50  0.839  0.934  0.001-  49 1.42   1 1.42  33 1.42
  51  0.373  0.251  0.500-  52 1.18  53 1.18
  52  0.421  0.189  0.503-  51 1.18
  53  0.325  0.313  0.497-  51 1.18
 
  LATTYP: Found a hexagonal cell.
 ALAT       =    12.3250000000
 C/A-ratio  =     1.6227180527
  
  Lattice vectors:
  
 A1 = (  12.3250000000,   0.0000000000,   0.0000000000)
 A2 = (  -6.1625000000,  10.6737631016,   0.0000000000)
 A3 = (   0.0000000000,   0.0000000000,  20.0000000000)


Analysis of symmetry for initial positions (statically):
=====================================================================
 Subroutine PRICEL returns:
 Original cell was already a primitive cell.
 

 Routine SETGRP: Setting up the symmetry group for a 
 hexagonal supercell.


 Subroutine GETGRP returns: Found  1 space group operations
 (whereof  1 operations were pure point group operations)
 out of a pool of 24 trial point group operations.


The static configuration has the point symmetry C_1 .


Analysis of symmetry for dynamics (positions and initial velocities):
=====================================================================
 Subroutine PRICEL returns:
 Original cell was already a primitive cell.
 

 Routine SETGRP: Setting up the symmetry group for a 
 hexagonal supercell.


 Subroutine GETGRP returns: Found  1 space group operations
 (whereof  1 operations were pure point group operations)
 out of a pool of 24 trial point group operations.


The dynamic configuration has the point symmetry C_1 .


 Subroutine INISYM returns: Found  1 space group operations
 (whereof  1 operations are pure point group operations),
 and found     1 'primitive' translations


----------------------------------------------------------------------------------------

                                     Primitive cell                                     

  volume of cell :    2631.0826

  direct lattice vectors                    reciprocal lattice vectors
    12.325000000  0.000000000  0.000000000     0.081135903  0.046843835  0.000000000
    -6.162500000 10.673763102  0.000000000     0.000000000  0.093687670  0.000000000
     0.000000000  0.000000000 20.000000000     0.000000000  0.000000000  0.050000000

  length of vectors
    12.325000000 12.325000000 20.000000000     0.093687670  0.093687670  0.050000000

  position of ions in fractional coordinates (direct lattice)
     0.972450841  0.000320818  0.000708389
     0.039118382  0.133659505  0.000550216
     0.172443627  0.000295449  0.000624535
     0.239096278  0.133647917  0.000320585
     0.972452058  0.200322012  0.000606523
     0.039128360  0.333643771  0.000555187
     0.172451764  0.200354552  0.000273959
     0.239124359  0.333665720  0.000090325
     0.372465565  0.000324403  0.000567391
     0.439137473  0.133619939  0.000322923
     0.972449824  0.400309362  0.000684513
     0.039124981  0.533636789  0.000716763
     0.372416176  0.400329481  0.000000000
     0.439099602  0.533638981  0.000290518
     0.572443676  0.000312125  0.000699475
     0.639110207  0.133631751  0.000684093
     0.972452703  0.600305653  0.000800361
     0.039124495  0.733640359  0.000818141
     0.572433471  0.600306242  0.000503618
     0.639111888  0.733641879  0.000659881
     0.172454630  0.400318228  0.000361306
     0.239120185  0.533636548  0.000473136
     0.372459750  0.200295993  0.000111246
     0.439107096  0.333673419  0.000069702
     0.172452155  0.600311506  0.000655425
     0.239123371  0.733638574  0.000718912
     0.572431082  0.200289171  0.000516621
     0.639112773  0.333618630  0.000577970
     0.372439808  0.600308022  0.000453556
     0.439116090  0.733637858  0.000617737
     0.572469358  0.400320504  0.000424897
     0.639119408  0.533650873  0.000574513
     0.772445723  0.000315427  0.000745201
     0.839116277  0.133640203  0.000719132
     0.772440513  0.200307432  0.000726291
     0.839120241  0.333635728  0.000731834
     0.772446320  0.400298367  0.000728722
     0.839118980  0.533633964  0.000776376
     0.772456143  0.600308173  0.000744639
     0.839115033  0.733643180  0.000789390
     0.972455313  0.800305582  0.000815291
     0.039114714  0.933643289  0.000747563
     0.172457971  0.800312211  0.000779216
     0.239134551  0.933647193  0.000681063
     0.372451396  0.800316674  0.000689249
     0.439124489  0.933644769  0.000676788
     0.572441101  0.800310054  0.000668168
     0.639115067  0.933638985  0.000734556
     0.772445098  0.800313187  0.000752577
     0.839116614  0.933644338  0.000758538
     0.373021009  0.251226878  0.500000000
     0.420879805  0.189313152  0.503221093
     0.325156981  0.313167186  0.497027256

  ion indices of the primitive-cell ions
   primitive index   ion index
                 1           1
                 2           2
                 3           3
                 4           4
                 5           5
                 6           6
                 7           7
                 8           8
                 9           9
                10          10
                11          11
                12          12
                13          13
                14          14
                15          15
                16          16
                17          17
                18          18
                19          19
                20          20
                21          21
                22          22
                23          23
                24          24
                25          25
                26          26
                27          27
                28          28
                29          29
                30          30
                31          31
                32          32
                33          33
                34          34
                35          35
                36          36
                37          37
                38          38
                39          39
                40          40
                41          41
                42          42
                43          43
                44          44
                45          45
                46          46
                47          47
                48          48
                49          49
                50          50
                51          51
                52          52
                53          53

----------------------------------------------------------------------------------------

 
 
 KPOINTS: auto                                    

Automatic generation of k-mesh.
 Grid dimensions read from file:
 generate k-points for:    1    1    1

 Generating k-lattice:

  Cartesian coordinates                     Fractional coordinates (reciprocal lattice)
     0.081135903  0.046843835  0.000000000     1.000000000 -0.000000000  0.000000000
     0.000000000  0.093687670  0.000000000     0.000000000  1.000000000  0.000000000
     0.000000000  0.000000000  0.050000000     0.000000000  0.000000000  1.000000000

  Length of vectors
     0.093687670  0.093687670  0.050000000

  Shift w.r.t. Gamma in fractional coordinates (k-lattice)
     0.000000000  0.000000000  0.000000000

 
 Subroutine IBZKPT returns following result:
 ===========================================
 
 Found      1 irreducible k-points:
 
 Following reciprocal coordinates:
            Coordinates               Weight
  0.000000  0.000000  0.000000      1.000000
 
 Following cartesian coordinates:
            Coordinates               Weight
  0.000000  0.000000  0.000000      1.000000
 


--------------------------------------------------------------------------------------------------------




 Dimension of arrays:
   k-points           NKPTS =      1   k-points in BZ     NKDIM =      1   number of bands    NBANDS=    168
   number of dos      NEDOS =    301   number of ions     NIONS =     53
   non local maximal  LDIM  =      4   non local SUM 2l+1 LMDIM =      8
   total plane-waves  NPLWV = ******
   max r-space proj   IRMAX =      1   max aug-charges    IRDMAX=   9736
   dimension x,y,z NGX =   128 NGY =  128 NGZ =  210
   dimension x,y,z NGXF=   256 NGYF=  256 NGZF=  420
   support grid    NGXF=   256 NGYF=  256 NGZF=  420
   ions per type =              51   2
   NGX,Y,Z   is equivalent  to a cutoff of  17.27, 17.27, 17.46 a.u.
   NGXF,Y,Z  is equivalent  to a cutoff of  34.53, 34.53, 34.91 a.u.

 SYSTEM =  unknown system                          
 POSCAR =   C  O                                   

 Startparameter for this run:
   NWRITE =      2    write-flag & timer
   PREC   = accura    normal or accurate (medium, high low for compatibility)
   ISTART =      0    job   : 0-new  1-cont  2-samecut
   ICHARG =      2    charge: 1-file 2-atom 10-const
   ISPIN  =      1    spin polarized calculation?
   LNONCOLLINEAR =      F non collinear calculations
   LSORBIT =      F    spin-orbit coupling
   INIWAV =      1    electr: 0-lowe 1-rand  2-diag
   LASPH  =      F    aspherical Exc in radial PAW
 Electronic Relaxation 1
   ENCUT  = 1000.0 eV  73.50 Ry    8.57 a.u.  31.78 31.78 51.57*2*pi/ulx,y,z
   ENINI  = 1000.0     initial cutoff
   ENAUG  =  946.8 eV  augmentation charge cutoff
   NELM   =     60;   NELMIN=  2; NELMDL= -5     # of ELM steps 
   EDIFF  = 0.1E-06   stopping-criterion for ELM
   LREAL  =      F    real-space projection
   NLSPLINE    = F    spline interpolate recip. space projectors
   LCOMPAT=      F    compatible to vasp.4.4
   GGA_COMPAT  = T    GGA compatible to vasp.4.4-vasp.4.6
   LMAXPAW     = -100 max onsite density
   LMAXMIX     =    2 max onsite mixed and CHGCAR
   VOSKOWN=      0    Vosko Wilk Nusair interpolation
   ROPT   =    0.00000   0.00000
 Ionic relaxation
   EDIFFG = 0.1E-05   stopping-criterion for IOM
   NSW    =      0    number of steps for IOM
   NBLOCK =      1;   KBLOCK =      1    inner block; outer block 
   IBRION =     -1    ionic relax: 0-MD 1-quasi-New 2-CG
   NFREE  =      0    steps in history (QN), initial steepest desc. (CG)
   ISIF   =      0    stress and relaxation
   IWAVPR =     10    prediction:  0-non 1-charg 2-wave 3-comb
   ISYM   =      2    0-nonsym 1-usesym 2-fastsym
   LCORR  =      T    Harris-Foulkes like correction to forces

   POTIM  = 0.5000    time-step for ionic-motion
   TEIN   =    0.0    initial temperature
   TEBEG  =    0.0;   TEEND  =   0.0 temperature during run
   SMASS  =  -3.00    Nose mass-parameter (am)
   estimated Nose-frequenzy (Omega)   =  0.10E-29 period in steps = 0.13E+47 mass=  -0.347E-26a.u.
   SCALEE = 1.0000    scale energy and forces
   NPACO  =    256;   APACO  = 16.0  distance and # of slots for P.C.
   PSTRESS=    0.0 pullay stress

  Mass of Ions in am
   POMASS =  12.01 16.00
  Ionic Valenz
   ZVAL   =   4.00  6.00
  Atomic Wigner-Seitz radii
   RWIGS  =  -1.00 -1.00
  virtual crystal weights 
   VCA    =   1.00  1.00
   NELECT =     216.0000    total number of electrons
   NUPDOWN=      -1.0000    fix difference up-down

 DOS related values:
   EMIN   =  10.00;   EMAX   =-10.00  energy-range for DOS
   EFERMI =   0.00
   ISMEAR =     0;   SIGMA  =   0.01  broadening in eV -4-tet -1-fermi 0-gaus

 Electronic relaxation 2 (details)
   IALGO  =     58    algorithm
   LDIAG  =      T    sub-space diagonalisation (order eigenvalues)
   LSUBROT=      F    optimize rotation matrix (better conditioning)
   TURBO    =      0    0=normal 1=particle mesh
   IRESTART =      0    0=no restart 2=restart with 2 vectors
   NREBOOT  =      0    no. of reboots
   NMIN     =      0    reboot dimension
   EREF     =   0.00    reference energy to select bands
   IMIX   =      4    mixing-type and parameters
     AMIX     =   0.40;   BMIX     =  1.00
     AMIX_MAG =   1.60;   BMIX_MAG =  1.00
     AMIN     =   0.10
     WC   =   100.;   INIMIX=   1;  MIXPRE=   1;  MAXMIX= -45

 Intra band minimization:
   WEIMIN = 0.0000     energy-eigenvalue tresh-hold
   EBREAK =  0.15E-09  absolut break condition
   DEPER  =   0.30     relativ break condition  

   TIME   =   0.40     timestep for ELM

  volume/ion in A,a.u.               =      49.64       335.01
  Fermi-wavevector in a.u.,A,eV,Ry     =   0.711510  1.344560  6.887909  0.506247
  Thomas-Fermi vector in A             =   1.798641
 
 Write flags
   LWAVE        =      F    write WAVECAR
   LDOWNSAMPLE  =      F    k-point downsampling of WAVECAR
   LCHARG       =      T    write CHGCAR
   LVTOT        =      F    write LOCPOT, total local potential
   LVHAR        =      F    write LOCPOT, Hartree potential only
   LELF         =      F    write electronic localiz. function (ELF)
   LORBIT       =      0    0 simple, 1 ext, 2 COOP (PROOUT), +10 PAW based schemes


 Dipole corrections
   LMONO  =      F    monopole corrections only (constant potential shift)
   LDIPOL =      F    correct potential (dipole corrections)
   IDIPOL =      0    1-x, 2-y, 3-z, 4-all directions 
   EPSILON=  1.0000000 bulk dielectric constant

 Exchange correlation treatment:
   GGA     =    PE    GGA type
   LEXCH   =     8    internal setting for exchange type
   VOSKOWN=      0    Vosko Wilk Nusair interpolation
   LHFCALC =     F    Hartree Fock is set to
   LHFONE  =     F    Hartree Fock one center treatment
   AEXX    =    0.0000 exact exchange contribution

 Linear response parameters
   LEPSILON=     F    determine dielectric tensor
   LRPA    =     F    only Hartree local field effects (RPA)
   LNABLA  =     F    use nabla operator in PAW spheres
   LVEL    =     F    velocity operator in full k-point grid
   LINTERFAST=   F  fast interpolation
   KINTER  =     0    interpolate to denser k-point grid
   CSHIFT  =0.1000    complex shift for real part using Kramers Kronig
   OMEGAMAX=  -1.0    maximum frequency
   DEG_THRESHOLD= 0.2000000E-02 threshold for treating states as degnerate
   RTIME   =   -0.100 relaxation time in fs
  (WPLASMAI=    0.000 imaginary part of plasma frequency in eV, 0.658/RTIME)
   DFIELD  = 0.0000000 0.0000000 0.0000000 field for delta impulse in time
 
 Orbital magnetization related:
   ORBITALMAG=     F  switch on orbital magnetization
   LCHIMAG   =     F  perturbation theory with respect to B field
   DQ        =  0.001000  dq finite difference perturbation B field
   LLRAUG    =     F  two centre corrections for induced B field



--------------------------------------------------------------------------------------------------------


 Static calculation
 charge density and potential will be updated during run
 non-spin polarized calculation
 Conjugate gradient for all bands (Freysoldt, et al. PRB 79, 241103 (2009))
 preconditioned conjugated gradient                                        
 perform sub-space diagonalisation
    before iterative eigenvector-optimisation
 modified Broyden-mixing scheme, WC =      100.0
 initial mixing is a Kerker type mixing with AMIX =  0.4000 and BMIX =      1.0000
 Hartree-type preconditioning will be used
 using additional bands           60
 reciprocal scheme for non local part
 use partial core corrections
 no Harris-corrections to forces 
 use gradient corrections 
 use of overlap-Matrix (Vanderbilt PP)
 Gauss-broadening in eV      SIGMA  =   0.01


--------------------------------------------------------------------------------------------------------


  energy-cutoff  :     1000.00
  volume of cell :     2631.08
      direct lattice vectors                 reciprocal lattice vectors
    12.325000000  0.000000000  0.000000000     0.081135903  0.046843835  0.000000000
    -6.162500000 10.673763102  0.000000000     0.000000000  0.093687670  0.000000000
     0.000000000  0.000000000 20.000000000     0.000000000  0.000000000  0.050000000

  length of vectors
    12.325000000 12.325000000 20.000000000     0.093687670  0.093687670  0.050000000


 
 k-points in units of 2pi/SCALE and weight: auto                                    
   0.00000000  0.00000000  0.00000000       1.000
 
 k-points in reciprocal lattice and weights: auto                                    
   0.00000000  0.00000000  0.00000000       1.000
 
 position of ions in fractional coordinates (direct lattice) 
   0.97245084  0.00032082  0.00070839
   0.03911838  0.13365950  0.00055022
   0.17244363  0.00029545  0.00062454
   0.23909628  0.13364792  0.00032058
   0.97245206  0.20032201  0.00060652
   0.03912836  0.33364377  0.00055519
   0.17245176  0.20035455  0.00027396
   0.23912436  0.33366572  0.00009033
   0.37246557  0.00032440  0.00056739
   0.43913747  0.13361994  0.00032292
   0.97244982  0.40030936  0.00068451
   0.03912498  0.53363679  0.00071676
   0.37241618  0.40032948  0.00000000
   0.43909960  0.53363898  0.00029052
   0.57244368  0.00031213  0.00069947
   0.63911021  0.13363175  0.00068409
   0.97245270  0.60030565  0.00080036
   0.03912449  0.73364036  0.00081814
   0.57243347  0.60030624  0.00050362
   0.63911189  0.73364188  0.00065988
   0.17245463  0.40031823  0.00036131
   0.23912018  0.53363655  0.00047314
   0.37245975  0.20029599  0.00011125
   0.43910710  0.33367342  0.00006970
   0.17245216  0.60031151  0.00065542
   0.23912337  0.73363857  0.00071891
   0.57243108  0.20028917  0.00051662
   0.63911277  0.33361863  0.00057797
   0.37243981  0.60030802  0.00045356
   0.43911609  0.73363786  0.00061774
   0.57246936  0.40032050  0.00042490
   0.63911941  0.53365087  0.00057451
   0.77244572  0.00031543  0.00074520
   0.83911628  0.13364020  0.00071913
   0.77244051  0.20030743  0.00072629
   0.83912024  0.33363573  0.00073183
   0.77244632  0.40029837  0.00072872
   0.83911898  0.53363396  0.00077638
   0.77245614  0.60030817  0.00074464
   0.83911503  0.73364318  0.00078939
   0.97245531  0.80030558  0.00081529
   0.03911471  0.93364329  0.00074756
   0.17245797  0.80031221  0.00077922
   0.23913455  0.93364719  0.00068106
   0.37245140  0.80031667  0.00068925
   0.43912449  0.93364477  0.00067679
   0.57244110  0.80031005  0.00066817
   0.63911507  0.93363899  0.00073456
   0.77244510  0.80031319  0.00075258
   0.83911661  0.93364434  0.00075854
   0.37302101  0.25122688  0.50000000
   0.42087980  0.18931315  0.50322109
   0.32515698  0.31316719  0.49702726
 
 position of ions in cartesian coordinates  (Angst):
  11.98347958  0.00342433  0.01416777
  -0.34154264  1.42664989  0.01100432
   2.12354700  0.00315355  0.01249070
   2.12325634  1.42652621  0.00641170
  10.75098721  2.13818970  0.01213047
  -1.57382270  3.56123457  0.01110375
   0.89078307  2.13853702  0.00547917
   0.89099273  3.56146885  0.00180651
   4.58863896  0.00346260  0.01134782
   4.58893648  1.42622757  0.00645846
   9.51853763  4.27280730  0.01369027
  -2.80632132  5.69591267  0.01433526
   2.12299894  4.27302204  0.00000000
   2.12335237  5.69593607  0.00581036
   7.05344483  0.00333155  0.01398950
   7.05352764  1.42635365  0.01368187
   8.28609598  6.40752033  0.01600723
  -4.03884931  7.83070339  0.01636283
   3.35585531  6.40752662  0.01007237
   3.35598594  7.83071962  0.01319763
  -0.34145776  4.27290193  0.00722612
  -0.34137895  5.69591010  0.00946273
   3.35624236  2.13791198  0.00222492
   3.35573251  3.56155103  0.00139405
  -1.57394684  6.40758280  0.01310850
  -1.57385216  7.83068434  0.01437823
   5.82093107  2.13783916  0.01033241
   5.82114012  3.56096622  0.01155939
   0.89092245  6.40754561  0.00907111
   0.89106251  7.83067670  0.01235474
   4.58870974  4.27292622  0.00849795
   4.58852320  5.69606300  0.01149026
   9.51844972  0.00336679  0.01490402
   9.51855036  1.42644387  0.01438264
   8.28593477  2.13803408  0.01452582
   8.28612680  3.56114872  0.01463668
   7.05356221  4.27268994  0.01457444
   7.05362213  5.69588251  0.01552751
   5.82112285  6.40754723  0.01489279
   5.82101669  7.83073350  0.01578780
   7.05362858  8.54227219  0.01630582
  -5.27148792  9.96548729  0.01495127
  -2.80637951  8.54234295  0.01558431
  -2.80626749  9.96552896  0.01362126
  -0.34148805  8.54239058  0.01378498
  -0.34137657  9.96550309  0.01353576
   2.12342586  8.54231992  0.01336337
   2.12354296  9.96544135  0.01469111
   4.58845581  8.54235337  0.01505154
   4.58852904  9.96549848  0.01517076
   3.04929830  2.68153618 10.00000000
   4.02070129  2.02068374 10.06442186
   2.07766701  3.34267235  9.94054513
 


--------------------------------------------------------------------------------------------------------


 k-point   1 :   0.0000 0.0000 0.0000  plane waves:  189031

 maximum and minimum number of plane-waves per node :    189031   189031

 maximum number of plane-waves:    189031
 maximum index in each direction: 
   IXMAX=   31   IYMAX=   31   IZMAX=   51
   IXMIN=  -31   IYMIN=  -31   IZMIN=  -51


 serial   3D FFT for wavefunctions
 parallel 3D FFT for charge:
    minimum data exchange during FFTs selected (reduces bandwidth)


 total amount of memory used by VASP MPI-rank0   441788. kBytes
=======================================================================

   base      :      30000. kBytes
   nonl-proj :     184518. kBytes
   fftplans  :      31725. kBytes
   grid      :     168095. kBytes
   one-center:        162. kBytes
   wavefun   :      27288. kBytes
 
     INWAV:  cpu time    0.0000: real time    0.0000
 Broyden mixing: mesh for mixing (old mesh)
   NGX = 63   NGY = 63   NGZ =103
  (NGX  =256   NGY  =256   NGZ  =420)
  gives a total of 408807 points

 initial charge density was supplied:
 charge density of overlapping atoms calculated
 number of electron     216.0000000 magnetization 
 keeping initial charge density in first step


--------------------------------------------------------------------------------------------------------


 Maximum index for augmentation-charges          459 (set IRDMAX)


--------------------------------------------------------------------------------------------------------


 First call to EWALD:  gamma=   0.128
 Maximum number of real-space cells 3x 3x 2
 Maximum number of reciprocal cells 3x 3x 4

    FEWALD:  cpu time    0.0022: real time    0.0022


--------------------------------------- Iteration      1(   1)  ---------------------------------------


    POTLOK:  cpu time    0.5678: real time    0.5746
    SETDIJ:  cpu time    0.0033: real time    0.0034
    TRIAL :  cpu time   11.9673: real time   12.0941
    CORREC:  cpu time    0.0007: real time    0.0007
    --------------------------------------------
      LOOP:  cpu time   12.5483: real time   12.7065

 eigenvalue-minimisations  :   336
 total energy-change (2. order) : 0.2464232E+04  (-0.1172405E+05)
 number of electron     216.0000000 magnetization 
 augmentation part      216.0000000 magnetization 

 Free energy of the ion-electron system (eV)
  ---------------------------------------------------
  alpha Z        PSCENC =        59.93625244
  Ewald energy   TEWEN  =     29209.91244113
  -Hartree energ DENC   =    -35385.37092715
  -exchange      EXHF   =         0.00000000
  -V(xc)+E(xc)   XCENC  =       420.79817022
  PAW double counting   =      6525.96553977    -6260.36035765
  entropy T*S    EENTRO =        -0.00002014
  eigenvalues    EBANDS =      -476.17247236
  atomic energy  EATOM  =      8369.52358910
  ---------------------------------------------------
  free energy    TOTEN  =      2464.23221536 eV

  energy without entropy =     2464.23223550  energy(sigma->0) =     2464.23222543


--------------------------------------------------------------------------------------------------------




--------------------------------------- Iteration      1(   2)  ---------------------------------------


    TRIAL :  cpu time   18.0054: real time   18.1767
    CORREC:  cpu time    0.0001: real time    0.0001
    --------------------------------------------
      LOOP:  cpu time   18.0875: real time   18.2617

 eigenvalue-minimisations  :   560
 total energy-change (2. order) :-0.2380648E+04  (-0.2240891E+04)
 number of electron     216.0000000 magnetization 
 augmentation part      216.0000000 magnetization 

 Free energy of the ion-electron system (eV)
  ---------------------------------------------------
  alpha Z        PSCENC =        59.93625244
  Ewald energy   TEWEN  =     29209.91244113
  -Hartree energ DENC   =    -35385.37092715
  -exchange      EXHF   =         0.00000000
  -V(xc)+E(xc)   XCENC  =       420.79817022
  PAW double counting   =      6525.96553977    -6260.36035765
  entropy T*S    EENTRO =        -0.00000000
  eigenvalues    EBANDS =     -2856.82067530
  atomic energy  EATOM  =      8369.52358910
  ---------------------------------------------------
  free energy    TOTEN  =        83.58403256 eV

  energy without entropy =       83.58403256  energy(sigma->0) =       83.58403256


--------------------------------------------------------------------------------------------------------




--------------------------------------- Iteration      1(   3)  ---------------------------------------


    TRIAL :  cpu time   13.4851: real time   13.5890
    CORREC:  cpu time    0.0001: real time    0.0001
    --------------------------------------------
      LOOP:  cpu time   13.5350: real time   13.6407

 eigenvalue-minimisations  :   392
 total energy-change (2. order) :-0.5721283E+03  (-0.5691821E+03)
 number of electron     216.0000000 magnetization 
 augmentation part      216.0000000 magnetization 

 Free energy of the ion-electron system (eV)
  ---------------------------------------------------
  alpha Z        PSCENC =        59.93625244
  Ewald energy   TEWEN  =     29209.91244113
  -Hartree energ DENC   =    -35385.37092715
  -exchange      EXHF   =         0.00000000
  -V(xc)+E(xc)   XCENC  =       420.79817022
  PAW double counting   =      6525.96553977    -6260.36035765
  entropy T*S    EENTRO =        -0.00000000
  eigenvalues    EBANDS =     -3428.94896660
  atomic energy  EATOM  =      8369.52358910
  ---------------------------------------------------
  free energy    TOTEN  =      -488.54425874 eV

  energy without entropy =     -488.54425874  energy(sigma->0) =     -488.54425874


--------------------------------------------------------------------------------------------------------




--------------------------------------- Iteration      1(   4)  ---------------------------------------


    TRIAL :  cpu time   14.9825: real time   15.0970
    CORREC:  cpu time    0.0002: real time    0.0002
    --------------------------------------------
      LOOP:  cpu time   15.0271: real time   15.1435

 eigenvalue-minimisations  :   448
 total energy-change (2. order) :-0.2844110E+02  (-0.2825052E+02)
 number of electron     216.0000000 magnetization 
 augmentation part      216.0000000 magnetization 

 Free energy of the ion-electron system (eV)
  ---------------------------------------------------
  alpha Z        PSCENC =        59.93625244
  Ewald energy   TEWEN  =     29209.91244113
  -Hartree energ DENC   =    -35385.37092715
  -exchange      EXHF   =         0.00000000
  -V(xc)+E(xc)   XCENC  =       420.79817022
  PAW double counting   =      6525.96553977    -6260.36035765
  entropy T*S    EENTRO =        -0.00000000
  eigenvalues    EBANDS =     -3457.39006907
  atomic energy  EATOM  =      8369.52358910
  ---------------------------------------------------
  free energy    TOTEN  =      -516.98536121 eV

  energy without entropy =     -516.98536121  energy(sigma->0) =     -516.98536121


--------------------------------------------------------------------------------------------------------




--------------------------------------- Iteration      1(   5)  ---------------------------------------


    TRIAL :  cpu time   14.9795: real time   15.1127
    CORREC:  cpu time    0.0001: real time    0.0001
    CHARGE:  cpu time    0.6142: real time    0.6189
    --------------------------------------------
      LOOP:  cpu time   15.6357: real time   15.7740

 eigenvalue-minimisations  :   448
 total energy-change (2. order) :-0.1025169E+01  (-0.1020541E+01)
 number of electron     216.0000000 magnetization 
 augmentation part       -0.2757562 magnetization 

 Free energy of the ion-electron system (eV)
  ---------------------------------------------------
  alpha Z        PSCENC =        59.93625244
  Ewald energy   TEWEN  =     29209.91244113
  -Hartree energ DENC   =    -35385.37092715
  -exchange      EXHF   =         0.00000000
  -V(xc)+E(xc)   XCENC  =       420.79817022
  PAW double counting   =      6525.96553977    -6260.36035765
  entropy T*S    EENTRO =        -0.00000000
  eigenvalues    EBANDS =     -3458.41523854
  atomic energy  EATOM  =      8369.52358910
  ---------------------------------------------------
  free energy    TOTEN  =      -518.01053068 eV

  energy without entropy =     -518.01053068  energy(sigma->0) =     -518.01053068


--------------------------------------------------------------------------------------------------------




--------------------------------------- Iteration      1(   6)  ---------------------------------------


    POTLOK:  cpu time    0.5448: real time    0.5483
    SETDIJ:  cpu time    0.0102: real time    0.0103
    TRIAL :  cpu time    5.3932: real time    5.4448
    CORREC:  cpu time    1.7419: real time    1.7556
    CHARGE:  cpu time    0.6062: real time    0.6109
    --------------------------------------------
      LOOP:  cpu time    8.3476: real time    8.4239

 eigenvalue-minimisations  :     0
 total energy-change (2. order) : 0.5129070E+02  (-0.1533176E+02)
 number of electron     216.0000000 magnetization 
 augmentation part       -0.3765060 magnetization 

 Free energy of the ion-electron system (eV)
  ---------------------------------------------------
  alpha Z        PSCENC =        59.93625244
  Ewald energy   TEWEN  =     29209.91244113
  -Hartree energ DENC   =    -36794.25254246
  -exchange      EXHF   =         0.00000000
  -V(xc)+E(xc)   XCENC  =       469.01560355
  PAW double counting   =     90141.82731184   -89884.48442694
  entropy T*S    EENTRO =        -0.00000000
  eigenvalues    EBANDS =     -2038.19805547
  atomic energy  EATOM  =      8369.52358910
  ---------------------------------------------------
  free energy    TOTEN  =      -466.71982680 eV

  energy without entropy =     -466.71982680  energy(sigma->0) =     -466.71982680


--------------------------------------------------------------------------------------------------------




--------------------------------------- Iteration      1(   7)  ---------------------------------------


    POTLOK:  cpu time    0.5432: real time    0.5468
    SETDIJ:  cpu time    0.0113: real time    0.0114
    TRIAL :  cpu time    5.4034: real time    5.4444
    CORREC:  cpu time    1.7154: real time    1.7284
    CHARGE:  cpu time    0.6056: real time    0.6098
    --------------------------------------------
      LOOP:  cpu time    8.3304: real time    8.3953

 eigenvalue-minimisations  :     0
 total energy-change (2. order) :-0.1536240E+02  (-0.1833471E+01)
 number of electron     216.0000000 magnetization 
 augmentation part       -0.4228514 magnetization 

 Free energy of the ion-electron system (eV)
  ---------------------------------------------------
  alpha Z        PSCENC =        59.93625244
  Ewald energy   TEWEN  =     29209.91244113
  -Hartree energ DENC   =    -36308.35518745
  -exchange      EXHF   =         0.00000000
  -V(xc)+E(xc)   XCENC  =       452.38278046
  PAW double counting   =    106241.87479317  -105981.72734951
  entropy T*S    EENTRO =        -0.00000000
  eigenvalues    EBANDS =     -2525.62954570
  atomic energy  EATOM  =      8369.52358910
  ---------------------------------------------------
  free energy    TOTEN  =      -482.08222636 eV

  energy without entropy =     -482.08222636  energy(sigma->0) =     -482.08222636


--------------------------------------------------------------------------------------------------------




--------------------------------------- Iteration      1(   8)  ---------------------------------------


    POTLOK:  cpu time    0.5445: real time    0.5481
    SETDIJ:  cpu time    0.0115: real time    0.0115
    TRIAL :  cpu time    5.4009: real time    5.4427
    CORREC:  cpu time    1.7140: real time    1.7269
    CHARGE:  cpu time    0.6089: real time    0.6132
    --------------------------------------------
      LOOP:  cpu time    8.3524: real time    8.4173

 eigenvalue-minimisations  :     0
 total energy-change (2. order) :-0.1833125E+01  (-0.5256791E+00)
 number of electron     216.0000000 magnetization 
 augmentation part       -0.4362519 magnetization 

 Free energy of the ion-electron system (eV)
  ---------------------------------------------------
  alpha Z        PSCENC =        59.93625244
  Ewald energy   TEWEN  =     29209.91244113
  -Hartree energ DENC   =    -36279.92224838
  -exchange      EXHF   =         0.00000000
  -V(xc)+E(xc)   XCENC  =       451.71288426
  PAW double counting   =    110603.11594288  -110342.54625691
  entropy T*S    EENTRO =        -0.00000000
  eigenvalues    EBANDS =     -2555.64795557
  atomic energy  EATOM  =      8369.52358910
  ---------------------------------------------------
  free energy    TOTEN  =      -483.91535105 eV

  energy without entropy =     -483.91535105  energy(sigma->0) =     -483.91535105


--------------------------------------------------------------------------------------------------------




--------------------------------------- Iteration      1(   9)  ---------------------------------------


    POTLOK:  cpu time    0.5445: real time    0.5481
    SETDIJ:  cpu time    0.0111: real time    0.0112
    TRIAL :  cpu time    5.3839: real time    5.4482
    CORREC:  cpu time    1.7077: real time    1.7257
    CHARGE:  cpu time    0.6080: real time    0.6120
    --------------------------------------------
      LOOP:  cpu time    8.3449: real time    8.4389

 eigenvalue-minimisations  :     0
 total energy-change (2. order) :-0.5255931E+00  (-0.1951584E+00)
 number of electron     216.0000000 magnetization 
 augmentation part       -0.4412277 magnetization 

 Free energy of the ion-electron system (eV)
  ---------------------------------------------------
  alpha Z        PSCENC =        59.93625244
  Ewald energy   TEWEN  =     29209.91244113
  -Hartree energ DENC   =    -36291.79501196
  -exchange      EXHF   =         0.00000000
  -V(xc)+E(xc)   XCENC  =       451.76280078
  PAW double counting   =    113432.77743268  -113172.04772123
  entropy T*S    EENTRO =        -0.00000000
  eigenvalues    EBANDS =     -2544.51072712
  atomic energy  EATOM  =      8369.52358910
  ---------------------------------------------------
  free energy    TOTEN  =      -484.44094419 eV

  energy without entropy =     -484.44094419  energy(sigma->0) =     -484.44094419


--------------------------------------------------------------------------------------------------------




--------------------------------------- Iteration      1(  10)  ---------------------------------------


    POTLOK:  cpu time    0.5433: real time    0.5470
    SETDIJ:  cpu time    0.0114: real time    0.0114
    TRIAL :  cpu time    5.3911: real time    5.4485
    CORREC:  cpu time    1.7193: real time    1.7329
    CHARGE:  cpu time    0.6049: real time    0.6097
    --------------------------------------------
      LOOP:  cpu time    8.3345: real time    8.4152

 eigenvalue-minimisations  :     0
 total energy-change (2. order) :-0.1946622E+00  (-0.8665142E-01)
 number of electron     216.0000000 magnetization 
 augmentation part       -0.4396154 magnetization 

 Free energy of the ion-electron system (eV)
  ---------------------------------------------------
  alpha Z        PSCENC =        59.93625244
  Ewald energy   TEWEN  =     29209.91244113
  -Hartree energ DENC   =    -36290.28674550
  -exchange      EXHF   =         0.00000000
  -V(xc)+E(xc)   XCENC  =       451.60873734
  PAW double counting   =    113789.77458004  -113528.95903589
  entropy T*S    EENTRO =        -0.00000000
  eigenvalues    EBANDS =     -2546.14542503
  atomic energy  EATOM  =      8369.52358910
  ---------------------------------------------------
  free energy    TOTEN  =      -484.63560637 eV

  energy without entropy =     -484.63560637  energy(sigma->0) =     -484.63560637


--------------------------------------------------------------------------------------------------------




--------------------------------------- Iteration      1(  11)  ---------------------------------------


    POTLOK:  cpu time    0.5447: real time    0.5484
    SETDIJ:  cpu time    0.0113: real time    0.0114
    TRIAL :  cpu time    5.3938: real time    5.4351
    CORREC:  cpu time    1.7136: real time    1.7268
    CHARGE:  cpu time    0.6066: real time    0.6109
    --------------------------------------------
      LOOP:  cpu time    8.3506: real time    8.4151

 eigenvalue-minimisations  :     0
 total energy-change (2. order) :-0.8620076E-01  (-0.3276214E-01)
 number of electron     216.0000000 magnetization 
 augmentation part       -0.4376407 magnetization 

 Free energy of the ion-electron system (eV)
  ---------------------------------------------------
  alpha Z        PSCENC =        59.93625244
  Ewald energy   TEWEN  =     29209.91244113
  -Hartree energ DENC   =    -36283.02490420
  -exchange      EXHF   =         0.00000000
  -V(xc)+E(xc)   XCENC  =       451.47576490
  PAW double counting   =    113062.80373431  -112801.99695169
  entropy T*S    EENTRO =        -0.00000000
  eigenvalues    EBANDS =     -2553.35173313
  atomic energy  EATOM  =      8369.52358910
  ---------------------------------------------------
  free energy    TOTEN  =      -484.72180713 eV

  energy without entropy =     -484.72180713  energy(sigma->0) =     -484.72180713


--------------------------------------------------------------------------------------------------------




--------------------------------------- Iteration      1(  12)  ---------------------------------------


    POTLOK:  cpu time    0.5450: real time    0.5488
    SETDIJ:  cpu time    0.0116: real time    0.0116
    TRIAL :  cpu time    5.3851: real time    5.4400
    CORREC:  cpu time    1.7142: real time    1.7277
    CHARGE:  cpu time    0.6056: real time    0.6099
    --------------------------------------------
      LOOP:  cpu time    8.3433: real time    8.4204

 eigenvalue-minimisations  :     0
 total energy-change (2. order) :-0.3266578E-01  (-0.9972854E-02)
 number of electron     216.0000000 magnetization 
 augmentation part       -0.4373762 magnetization 

 Free energy of the ion-electron system (eV)
  ---------------------------------------------------
  alpha Z        PSCENC =        59.93625244
  Ewald energy   TEWEN  =     29209.91244113
  -Hartree energ DENC   =    -36279.29538288
  -exchange      EXHF   =         0.00000000
  -V(xc)+E(xc)   XCENC  =       451.40393278
  PAW double counting   =    112572.01417603  -112311.23723930
  entropy T*S    EENTRO =        -0.00000000
  eigenvalues    EBANDS =     -2557.01224222
  atomic energy  EATOM  =      8369.52358910
  ---------------------------------------------------
  free energy    TOTEN  =      -484.75447291 eV

  energy without entropy =     -484.75447291  energy(sigma->0) =     -484.75447291


--------------------------------------------------------------------------------------------------------




--------------------------------------- Iteration      1(  13)  ---------------------------------------


    POTLOK:  cpu time    0.5426: real time    0.5463
    SETDIJ:  cpu time    0.0115: real time    0.0115
    TRIAL :  cpu time    5.3749: real time    5.4383
    CORREC:  cpu time    1.7394: real time    1.7553
    CHARGE:  cpu time    0.6446: real time    0.6490
    --------------------------------------------
      LOOP:  cpu time    8.4048: real time    8.4955

 eigenvalue-minimisations  :     0
 total energy-change (2. order) :-0.9962222E-02  (-0.2589889E-02)
 number of electron     216.0000000 magnetization 
 augmentation part       -0.4371409 magnetization 

 Free energy of the ion-electron system (eV)
  ---------------------------------------------------
  alpha Z        PSCENC =        59.93625244
  Ewald energy   TEWEN  =     29209.91244113
  -Hartree energ DENC   =    -36278.59427468
  -exchange      EXHF   =         0.00000000
  -V(xc)+E(xc)   XCENC  =       451.37872364
  PAW double counting   =    112430.19115441  -112169.42510070
  entropy T*S    EENTRO =        -0.00000000
  eigenvalues    EBANDS =     -2557.68722048
  atomic energy  EATOM  =      8369.52358910
  ---------------------------------------------------
  free energy    TOTEN  =      -484.76443513 eV

  energy without entropy =     -484.76443513  energy(sigma->0) =     -484.76443513


--------------------------------------------------------------------------------------------------------




--------------------------------------- Iteration      1(  14)  ---------------------------------------


    POTLOK:  cpu time    0.5544: real time    0.5581
    SETDIJ:  cpu time    0.0114: real time    0.0114
    TRIAL :  cpu time    5.3908: real time    5.4357
    CORREC:  cpu time    1.7141: real time    1.7271
    CHARGE:  cpu time    0.6088: real time    0.6130
    --------------------------------------------
      LOOP:  cpu time    8.2980: real time    8.4008

 eigenvalue-minimisations  :     0
 total energy-change (2. order) :-0.2589590E-02  (-0.6814452E-03)
 number of electron     216.0000000 magnetization 
 augmentation part       -0.4369442 magnetization 

 Free energy of the ion-electron system (eV)
  ---------------------------------------------------
  alpha Z        PSCENC =        59.93625244
  Ewald energy   TEWEN  =     29209.91244113
  -Hartree energ DENC   =    -36278.41213395
  -exchange      EXHF   =         0.00000000
  -V(xc)+E(xc)   XCENC  =       451.37377610
  PAW double counting   =    112457.21974069  -112196.45607357
  entropy T*S    EENTRO =        -0.00000000
  eigenvalues    EBANDS =     -2557.86461666
  atomic energy  EATOM  =      8369.52358910
  ---------------------------------------------------
  free energy    TOTEN  =      -484.76702472 eV

  energy without entropy =     -484.76702472  energy(sigma->0) =     -484.76702472


--------------------------------------------------------------------------------------------------------




--------------------------------------- Iteration      1(  15)  ---------------------------------------


    POTLOK:  cpu time    0.5428: real time    0.5464
    SETDIJ:  cpu time    0.0116: real time    0.0116
    TRIAL :  cpu time    5.4023: real time    5.4428
    CORREC:  cpu time    1.7471: real time    1.7616
    CHARGE:  cpu time    0.6070: real time    0.6110
    --------------------------------------------
      LOOP:  cpu time    8.3343: real time    8.4302

 eigenvalue-minimisations  :     0
 total energy-change (2. order) :-0.6822502E-03  (-0.2098902E-03)
 number of electron     216.0000000 magnetization 
 augmentation part       -0.4367717 magnetization 

 Free energy of the ion-electron system (eV)
  ---------------------------------------------------
  alpha Z        PSCENC =        59.93625244
  Ewald energy   TEWEN  =     29209.91244113
  -Hartree energ DENC   =    -36278.21465714
  -exchange      EXHF   =         0.00000000
  -V(xc)+E(xc)   XCENC  =       451.36777003
  PAW double counting   =    112487.37291577  -112226.60874436
  entropy T*S    EENTRO =        -0.00000000
  eigenvalues    EBANDS =     -2558.05727395
  atomic energy  EATOM  =      8369.52358910
  ---------------------------------------------------
  free energy    TOTEN  =      -484.76770697 eV

  energy without entropy =     -484.76770697  energy(sigma->0) =     -484.76770697


--------------------------------------------------------------------------------------------------------




--------------------------------------- Iteration      1(  16)  ---------------------------------------


    POTLOK:  cpu time    0.5374: real time    0.5435
    SETDIJ:  cpu time    0.0113: real time    0.0114
    TRIAL :  cpu time    5.3984: real time    5.4569
    CORREC:  cpu time    1.7898: real time    1.8059
    CHARGE:  cpu time    0.6054: real time    0.6102
    --------------------------------------------
      LOOP:  cpu time    8.3532: real time    8.4692

 eigenvalue-minimisations  :     0
 total energy-change (2. order) :-0.2107406E-03  (-0.7097331E-04)
 number of electron     216.0000000 magnetization 
 augmentation part       -0.4366309 magnetization 

 Free energy of the ion-electron system (eV)
  ---------------------------------------------------
  alpha Z        PSCENC =        59.93625244
  Ewald energy   TEWEN  =     29209.91244113
  -Hartree energ DENC   =    -36278.28380831
  -exchange      EXHF   =         0.00000000
  -V(xc)+E(xc)   XCENC  =       451.36875364
  PAW double counting   =    112478.01384759  -112217.24957951
  entropy T*S    EENTRO =        -0.00000000
  eigenvalues    EBANDS =     -2557.98941380
  atomic energy  EATOM  =      8369.52358910
  ---------------------------------------------------
  free energy    TOTEN  =      -484.76791771 eV

  energy without entropy =     -484.76791771  energy(sigma->0) =     -484.76791771


--------------------------------------------------------------------------------------------------------




--------------------------------------- Iteration      1(  17)  ---------------------------------------


    POTLOK:  cpu time    0.5395: real time    0.5431
    SETDIJ:  cpu time    0.0296: real time    0.0297
    TRIAL :  cpu time    5.3986: real time    5.4401
    CORREC:  cpu time    1.7064: real time    1.7194
    CHARGE:  cpu time    0.6057: real time    0.6101
    --------------------------------------------
      LOOP:  cpu time    8.2934: real time    8.3830

 eigenvalue-minimisations  :     0
 total energy-change (2. order) :-0.7147096E-04  (-0.2773972E-04)
 number of electron     216.0000000 magnetization 
 augmentation part       -0.4366276 magnetization 

 Free energy of the ion-electron system (eV)
  ---------------------------------------------------
  alpha Z        PSCENC =        59.93625244
  Ewald energy   TEWEN  =     29209.91244113
  -Hartree energ DENC   =    -36278.45927947
  -exchange      EXHF   =         0.00000000
  -V(xc)+E(xc)   XCENC  =       451.37475299
  PAW double counting   =    112458.96346153  -112198.19976962
  entropy T*S    EENTRO =        -0.00000000
  eigenvalues    EBANDS =     -2557.81943729
  atomic energy  EATOM  =      8369.52358910
  ---------------------------------------------------
  free energy    TOTEN  =      -484.76798919 eV

  energy without entropy =     -484.76798919  energy(sigma->0) =     -484.76798919


--------------------------------------------------------------------------------------------------------




--------------------------------------- Iteration      1(  18)  ---------------------------------------


    POTLOK:  cpu time    0.5426: real time    0.5460
    SETDIJ:  cpu time    0.0112: real time    0.0113
    TRIAL :  cpu time    5.3995: real time    5.4406
    CORREC:  cpu time    1.7143: real time    1.7275
    CHARGE:  cpu time    0.6079: real time    0.6121
    --------------------------------------------
      LOOP:  cpu time    8.3056: real time    8.3729

 eigenvalue-minimisations  :     0
 total energy-change (2. order) :-0.2803319E-04  (-0.1085589E-04)
 number of electron     216.0000000 magnetization 
 augmentation part       -0.4366559 magnetization 

 Free energy of the ion-electron system (eV)
  ---------------------------------------------------
  alpha Z        PSCENC =        59.93625244
  Ewald energy   TEWEN  =     29209.91244113
  -Hartree energ DENC   =    -36278.47555086
  -exchange      EXHF   =         0.00000000
  -V(xc)+E(xc)   XCENC  =       451.37443496
  PAW double counting   =    112454.00319162  -112193.23901208
  entropy T*S    EENTRO =        -0.00000000
  eigenvalues    EBANDS =     -2557.80336353
  atomic energy  EATOM  =      8369.52358910
  ---------------------------------------------------
  free energy    TOTEN  =      -484.76801722 eV

  energy without entropy =     -484.76801722  energy(sigma->0) =     -484.76801722


--------------------------------------------------------------------------------------------------------




--------------------------------------- Iteration      1(  19)  ---------------------------------------


    POTLOK:  cpu time    0.5402: real time    0.5438
    SETDIJ:  cpu time    0.0113: real time    0.0114
    TRIAL :  cpu time    5.3955: real time    5.4367
    CORREC:  cpu time    1.7173: real time    1.7345
    CHARGE:  cpu time    0.6076: real time    0.6119
    --------------------------------------------
      LOOP:  cpu time    8.2990: real time    8.3943

 eigenvalue-minimisations  :     0
 total energy-change (2. order) :-0.1073981E-04  (-0.4410331E-05)
 number of electron     216.0000000 magnetization 
 augmentation part       -0.4366948 magnetization 

 Free energy of the ion-electron system (eV)
  ---------------------------------------------------
  alpha Z        PSCENC =        59.93625244
  Ewald energy   TEWEN  =     29209.91244113
  -Hartree energ DENC   =    -36278.50709227
  -exchange      EXHF   =         0.00000000
  -V(xc)+E(xc)   XCENC  =       451.37548205
  PAW double counting   =    112460.15469484  -112199.39033586
  entropy T*S    EENTRO =        -0.00000000
  eigenvalues    EBANDS =     -2557.77305939
  atomic energy  EATOM  =      8369.52358910
  ---------------------------------------------------
  free energy    TOTEN  =      -484.76802796 eV

  energy without entropy =     -484.76802796  energy(sigma->0) =     -484.76802796


--------------------------------------------------------------------------------------------------------




--------------------------------------- Iteration      1(  20)  ---------------------------------------


    POTLOK:  cpu time    0.5422: real time    0.5460
    SETDIJ:  cpu time    0.0111: real time    0.0112
    TRIAL :  cpu time    5.3949: real time    5.4426
    CORREC:  cpu time    1.7178: real time    1.7337
    CHARGE:  cpu time    0.6083: real time    0.6125
    --------------------------------------------
      LOOP:  cpu time    8.3133: real time    8.3853

 eigenvalue-minimisations  :     0
 total energy-change (2. order) :-0.4135378E-05  (-0.1613884E-05)
 number of electron     216.0000000 magnetization 
 augmentation part       -0.4367100 magnetization 

 Free energy of the ion-electron system (eV)
  ---------------------------------------------------
  alpha Z        PSCENC =        59.93625244
  Ewald energy   TEWEN  =     29209.91244113
  -Hartree energ DENC   =    -36278.52959390
  -exchange      EXHF   =         0.00000000
  -V(xc)+E(xc)   XCENC  =       451.37600717
  PAW double counting   =    112466.93977303  -112206.17529643
  entropy T*S    EENTRO =        -0.00000000
  eigenvalues    EBANDS =     -2557.75120464
  atomic energy  EATOM  =      8369.52358910
  ---------------------------------------------------
  free energy    TOTEN  =      -484.76803209 eV

  energy without entropy =     -484.76803209  energy(sigma->0) =     -484.76803209


--------------------------------------------------------------------------------------------------------




--------------------------------------- Iteration      1(  21)  ---------------------------------------


    POTLOK:  cpu time    0.5406: real time    0.5441
    SETDIJ:  cpu time    0.0113: real time    0.0113
    TRIAL :  cpu time    5.4023: real time    5.4436
    CORREC:  cpu time    1.7093: real time    1.7224
    CHARGE:  cpu time    0.6060: real time    0.6104
    --------------------------------------------
      LOOP:  cpu time    8.3013: real time    8.3859

 eigenvalue-minimisations  :     0
 total energy-change (2. order) :-0.1453256E-05  (-0.6625301E-06)
 number of electron     216.0000000 magnetization 
 augmentation part       -0.4367041 magnetization 

 Free energy of the ion-electron system (eV)
  ---------------------------------------------------
  alpha Z        PSCENC =        59.93625244
  Ewald energy   TEWEN  =     29209.91244113
  -Hartree energ DENC   =    -36278.52536319
  -exchange      EXHF   =         0.00000000
  -V(xc)+E(xc)   XCENC  =       451.37571701
  PAW double counting   =    112468.40598251  -112207.64148265
  entropy T*S    EENTRO =        -0.00000000
  eigenvalues    EBANDS =     -2557.75516989
  atomic energy  EATOM  =      8369.52358910
  ---------------------------------------------------
  free energy    TOTEN  =      -484.76803355 eV

  energy without entropy =     -484.76803355  energy(sigma->0) =     -484.76803355


--------------------------------------------------------------------------------------------------------




--------------------------------------- Iteration      1(  22)  ---------------------------------------


    POTLOK:  cpu time    0.5378: real time    0.5414
    SETDIJ:  cpu time    0.0112: real time    0.0112
    TRIAL :  cpu time    5.4049: real time    5.4473
    CORREC:  cpu time    1.7147: real time    1.7294
    CHARGE:  cpu time    0.6134: real time    0.6177
    --------------------------------------------
      LOOP:  cpu time    8.3638: real time    8.4295

 eigenvalue-minimisations  :     0
 total energy-change (2. order) :-0.5954062E-06  (-0.2540214E-06)
 number of electron     216.0000000 magnetization 
 augmentation part       -0.4367017 magnetization 

 Free energy of the ion-electron system (eV)
  ---------------------------------------------------
  alpha Z        PSCENC =        59.93625244
  Ewald energy   TEWEN  =     29209.91244113
  -Hartree energ DENC   =    -36278.52407180
  -exchange      EXHF   =         0.00000000
  -V(xc)+E(xc)   XCENC  =       451.37572550
  PAW double counting   =    112466.91701590  -112206.15261149
  entropy T*S    EENTRO =        -0.00000000
  eigenvalues    EBANDS =     -2557.75637493
  atomic energy  EATOM  =      8369.52358910
  ---------------------------------------------------
  free energy    TOTEN  =      -484.76803414 eV

  energy without entropy =     -484.76803414  energy(sigma->0) =     -484.76803414


--------------------------------------------------------------------------------------------------------




--------------------------------------- Iteration      1(  23)  ---------------------------------------


    POTLOK:  cpu time    0.5390: real time    0.5426
    SETDIJ:  cpu time    0.0114: real time    0.0114
    TRIAL :  cpu time    5.3835: real time    5.4384
    CORREC:  cpu time    1.7152: real time    1.7288
    CHARGE:  cpu time    0.6097: real time    0.6141
    --------------------------------------------
      LOOP:  cpu time    8.3675: real time    8.4481

 eigenvalue-minimisations  :     0
 total energy-change (2. order) :-0.2239540E-06  (-0.1286214E-06)
 number of electron     216.0000000 magnetization 
 augmentation part       -0.4367005 magnetization 

 Free energy of the ion-electron system (eV)
  ---------------------------------------------------
  alpha Z        PSCENC =        59.93625244
  Ewald energy   TEWEN  =     29209.91244113
  -Hartree energ DENC   =    -36278.51637364
  -exchange      EXHF   =         0.00000000
  -V(xc)+E(xc)   XCENC  =       451.37548733
  PAW double counting   =    112465.62288844  -112204.85849608
  entropy T*S    EENTRO =        -0.00000000
  eigenvalues    EBANDS =     -2557.76382308
  atomic energy  EATOM  =      8369.52358910
  ---------------------------------------------------
  free energy    TOTEN  =      -484.76803437 eV

  energy without entropy =     -484.76803437  energy(sigma->0) =     -484.76803437


--------------------------------------------------------------------------------------------------------




--------------------------------------- Iteration      1(  24)  ---------------------------------------


    POTLOK:  cpu time    0.5409: real time    0.5446
    SETDIJ:  cpu time    0.0112: real time    0.0112
    TRIAL :  cpu time    5.3977: real time    5.4411
    CORREC:  cpu time    6.8595: real time    6.9098
    CHARGE:  cpu time    0.6114: real time    0.6156
    --------------------------------------------
      LOOP:  cpu time   13.4547: real time   13.5568

 eigenvalue-minimisations  :     0
 total energy-change (2. order) :-0.9076030E-07  (-0.3391424E-06)
 number of electron     216.0000000 magnetization 
 augmentation part       -0.4367039 magnetization 

 Free energy of the ion-electron system (eV)
  ---------------------------------------------------
  alpha Z        PSCENC =        59.93625244
  Ewald energy   TEWEN  =     29209.91244113
  -Hartree energ DENC   =    -36278.51206712
  -exchange      EXHF   =         0.00000000
  -V(xc)+E(xc)   XCENC  =       451.37542908
  PAW double counting   =    112464.88607108  -112204.12168642
  entropy T*S    EENTRO =        -0.00000000
  eigenvalues    EBANDS =     -2557.76806374
  atomic energy  EATOM  =      8369.52358910
  ---------------------------------------------------
  free energy    TOTEN  =      -484.76803446 eV

  energy without entropy =     -484.76803446  energy(sigma->0) =     -484.76803446


--------------------------------------------------------------------------------------------------------




--------------------------------------- Iteration      1(  25)  ---------------------------------------


    POTLOK:  cpu time    0.5388: real time    0.5422
    SETDIJ:  cpu time    0.0110: real time    0.0110
    TRIAL :  cpu time    5.4057: real time    5.4476
    CORREC:  cpu time    1.7099: real time    1.7236
    CHARGE:  cpu time    0.6122: real time    0.6165
    --------------------------------------------
      LOOP:  cpu time    8.3356: real time    8.4155

 eigenvalue-minimisations  :     0
 total energy-change (2. order) : 0.6275077E-06  (-0.5330058E-06)
 number of electron     216.0000000 magnetization 
 augmentation part       -0.4367043 magnetization 

 Free energy of the ion-electron system (eV)
  ---------------------------------------------------
  alpha Z        PSCENC =        59.93625244
  Ewald energy   TEWEN  =     29209.91244113
  -Hartree energ DENC   =    -36278.50959094
  -exchange      EXHF   =         0.00000000
  -V(xc)+E(xc)   XCENC  =       451.37551522
  PAW double counting   =    112463.99098909  -112203.22659067
  entropy T*S    EENTRO =        -0.00000000
  eigenvalues    EBANDS =     -2557.77063921
  atomic energy  EATOM  =      8369.52358910
  ---------------------------------------------------
  free energy    TOTEN  =      -484.76803383 eV

  energy without entropy =     -484.76803383  energy(sigma->0) =     -484.76803383


--------------------------------------------------------------------------------------------------------




--------------------------------------- Iteration      1(  26)  ---------------------------------------


    POTLOK:  cpu time    0.5377: real time    0.5414
    SETDIJ:  cpu time    0.0112: real time    0.0113
    TRIAL :  cpu time    5.4015: real time    5.4448
    CORREC:  cpu time    1.7111: real time    1.7246
    CHARGE:  cpu time    0.6110: real time    0.6154
    --------------------------------------------
      LOOP:  cpu time    8.3671: real time    8.4345

 eigenvalue-minimisations  :     0
 total energy-change (2. order) :-0.5221664E-06  (-0.1229246E-06)
 number of electron     216.0000000 magnetization 
 augmentation part       -0.4367031 magnetization 

 Free energy of the ion-electron system (eV)
  ---------------------------------------------------
  alpha Z        PSCENC =        59.93625244
  Ewald energy   TEWEN  =     29209.91244113
  -Hartree energ DENC   =    -36278.50565762
  -exchange      EXHF   =         0.00000000
  -V(xc)+E(xc)   XCENC  =       451.37531276
  PAW double counting   =    112464.02703057  -112203.26261007
  entropy T*S    EENTRO =        -0.00000000
  eigenvalues    EBANDS =     -2557.77439267
  atomic energy  EATOM  =      8369.52358910
  ---------------------------------------------------
  free energy    TOTEN  =      -484.76803435 eV

  energy without entropy =     -484.76803435  energy(sigma->0) =     -484.76803435


--------------------------------------------------------------------------------------------------------




--------------------------------------- Iteration      1(  27)  ---------------------------------------


    POTLOK:  cpu time    0.5415: real time    0.5451
    SETDIJ:  cpu time    0.0116: real time    0.0116
    TRIAL :  cpu time    5.3982: real time    5.4383
    CORREC:  cpu time    1.7212: real time    1.7347
    CHARGE:  cpu time    0.6155: real time    0.6197
    --------------------------------------------
      LOOP:  cpu time    8.3547: real time    8.4183

 eigenvalue-minimisations  :     0
 total energy-change (2. order) :-0.1119333E-06  (-0.9433393E-07)
 number of electron     216.0000000 magnetization 
 augmentation part       -0.4367023 magnetization 

 Free energy of the ion-electron system (eV)
  ---------------------------------------------------
  alpha Z        PSCENC =        59.93625244
  Ewald energy   TEWEN  =     29209.91244113
  -Hartree energ DENC   =    -36278.50820759
  -exchange      EXHF   =         0.00000000
  -V(xc)+E(xc)   XCENC  =       451.37535811
  PAW double counting   =    112464.19799642  -112203.43358725
  entropy T*S    EENTRO =        -0.00000000
  eigenvalues    EBANDS =     -2557.77187682
  atomic energy  EATOM  =      8369.52358910
  ---------------------------------------------------
  free energy    TOTEN  =      -484.76803446 eV

  energy without entropy =     -484.76803446  energy(sigma->0) =     -484.76803446


--------------------------------------------------------------------------------------------------------




--------------------------------------- Iteration      1(  28)  ---------------------------------------


    POTLOK:  cpu time    0.5394: real time    0.5430
    SETDIJ:  cpu time    0.0111: real time    0.0111
    TRIAL :  cpu time    5.3983: real time    5.4403
    CORREC:  cpu time    1.7119: real time    1.7252
    EDDIAG:  cpu time    0.8555: real time    0.8628
    CHARGE:  cpu time    0.6187: real time    0.6230
    --------------------------------------------
      LOOP:  cpu time    9.2121: real time    9.2841

 eigenvalue-minimisations  :     0
 total energy-change (2. order) : 0.1469743E-08  (-0.6293943E-07)
 number of electron     216.0000000 magnetization 
 augmentation part       -0.4367035 magnetization 

 Free energy of the ion-electron system (eV)
  ---------------------------------------------------
  alpha Z        PSCENC =        59.93625244
  Ewald energy   TEWEN  =     29209.91244113
  -Hartree energ DENC   =    -36278.51666870
  -exchange      EXHF   =         0.00000000
  -V(xc)+E(xc)   XCENC  =       451.37557550
  PAW double counting   =    112464.98649304  -112204.22210679
  entropy T*S    EENTRO =        -0.00000000
  eigenvalues    EBANDS =     -2557.76361019
  atomic energy  EATOM  =      8369.52358910
  ---------------------------------------------------
  free energy    TOTEN  =      -484.76803446 eV

  energy without entropy =     -484.76803446  energy(sigma->0) =     -484.76803446


--------------------------------------------------------------------------------------------------------


  average scaling for gradient   0.7550


 average (electrostatic) potential at core
[...]
     30     C        0.00006446
     31     C       -0.00004862
     32     C       -0.00004174
     33     C        0.00003646
     34     C        0.00005369
     35     C        0.00005851
     36     C        0.00003607
     37     C        0.00001926
     38     C        0.00001182
     39     C       -0.00001682
     40     C       -0.00000042
     41     C       -0.00000547
     42     C       -0.00003132
     43     C        0.00003355
     44     C        0.00001079
     45     C        0.00006714
     46     C        0.00005744
     47     C        0.00003744
     48     C        0.00006618
     49     C        0.00001169
     50     C        0.00002350
     51     C        0.29451411
     52     O       -0.14765242
     53     O       -0.14769381

  Atomic reference data used in the T-S method for vdW correction:
            C6at              R0at           ALPHAat      REFSTATE
            (au)              (au)            (au)                
   ---------------------------------------------------------------
   C          46.600          3.590         12.000         0
   O          15.600          3.194          5.400         0
 
 Nth order contribution to Edisp (eV)
 Edisp(N=2):  -4.41817289170592     
 Edisp(N=3):  0.298252087430260     
 Edisp(N=4): -0.467081601754476     
 Edisp(N=5):  0.199783678599299     
 Edisp(N=6): -0.190020179748511     
 Edisp(N=inf):  -4.50698733111258     

  Tkatchenko/Scheffler method for vdW energy calculation
  ---------------------------------------------------------------------------------------------

  Parameters of vdW forcefield:
            C6ts              R0ts          ALPHAts         R0scs        ALPHAscs        RELVOL 
            (au)              (au)           (au)            (au)          (au)                 
   ---------------------------------------------------------------------------------------------
   C          32.893          3.388         10.082          3.266          9.032          0.840
   C          32.892          3.388         10.082          3.266          9.030          0.840
   C          32.896          3.388         10.082          3.266          9.032          0.840
   C          32.898          3.388         10.083          3.266          9.029          0.840
   C          32.889          3.388         10.081          3.266          9.030          0.840
   C          32.888          3.388         10.081          3.266          9.029          0.840
   C          32.894          3.388         10.082          3.266          9.033          0.840
   C          32.890          3.388         10.081          3.266          9.034          0.840
   C          32.890          3.388         10.081          3.266          9.032          0.840
   C          32.893          3.388         10.082          3.266          9.035          0.840
   C          32.889          3.388         10.081          3.266          9.032          0.840
   C          32.889          3.388         10.081          3.266          9.032          0.840
   C          32.893          3.388         10.082          3.266          9.034          0.840
   C          32.891          3.388         10.081          3.266          9.031          0.840
   C          32.888          3.388         10.081          3.265          9.027          0.840
   C          32.888          3.388         10.081          3.266          9.028          0.840
   C          32.891          3.388         10.081          3.266          9.031          0.840
   C          32.892          3.388         10.082          3.266          9.030          0.840
   C          32.893          3.388         10.082          3.266          9.031          0.840
   C          32.891          3.388         10.082          3.266          9.030          0.840
   C          32.888          3.388         10.081          3.266          9.028          0.840
   C          32.887          3.388         10.081          3.266          9.028          0.840
   C          32.899          3.388         10.083          3.266          9.028          0.840
   C          32.899          3.388         10.083          3.266          9.029          0.840
   C          32.888          3.388         10.081          3.266          9.032          0.840
   C          32.889          3.388         10.081          3.266          9.032          0.840
   C          32.891          3.388         10.081          3.266          9.034          0.840
   C          32.894          3.388         10.082          3.266          9.033          0.840
   C          32.888          3.388         10.081          3.266          9.028          0.840
   C          32.888          3.388         10.081          3.266          9.032          0.840
   C          32.897          3.388         10.082          3.266          9.030          0.840
   C          32.895          3.388         10.082          3.266          9.032          0.840
   C          32.889          3.388         10.081          3.266          9.031          0.840
   C          32.889          3.388         10.081          3.266          9.032          0.840
   C          32.889          3.388         10.081          3.266          9.031          0.840
   C          32.889          3.388         10.081          3.266          9.031          0.840
   C          32.892          3.388         10.082          3.266          9.030          0.840
   C          32.892          3.388         10.082          3.266          9.030          0.840
   C          32.894          3.388         10.082          3.266          9.032          0.840
   C          32.893          3.388         10.082          3.266          9.031          0.840
   C          32.893          3.388         10.082          3.266          9.031          0.840
   C          32.894          3.388         10.082          3.266          9.033          0.840
   C          32.891          3.388         10.081          3.266          9.030          0.840
   C          32.892          3.388         10.082          3.266          9.032          0.840
   C          32.888          3.388         10.081          3.266          9.031          0.840
   C          32.888          3.388         10.081          3.266          9.028          0.840
   C          32.889          3.388         10.081          3.266          9.032          0.840
   C          32.888          3.388         10.081          3.266          9.032          0.840
   C          32.892          3.388         10.082          3.266          9.031          0.840
   C          32.891          3.388         10.082          3.266          9.030          0.840
   C          26.364          3.265          9.026          3.200          8.491          0.752
   O          12.459          3.076          4.826          3.036          4.638          0.894
   O          12.460          3.076          4.826          3.036          4.638          0.894

  vdW correction parametrized for the method pbe       

  IVDW = 202
  VDW_RADIUS =    50.000 A
  VDW_SR =     0.830
  VDW_D =     6.000
  SCSRAD =   120.000 A
  LVDWSCS = T
  LSCSGRAD = T
  LSCALER0 = T
  ITIM = -1
  Edisp (eV):   -4.50699
    FORVDW:  cpu time   18.0829: real time   18.1854

 VOLUME and BASIS-vectors are now :
 -----------------------------------------------------------------------------
  energy-cutoff  :     1000.00
  volume of cell :     2631.08
      direct lattice vectors                 reciprocal lattice vectors
    12.325000000  0.000000000  0.000000000     0.081135903  0.046843835  0.000000000
    -6.162500000 10.673763102  0.000000000     0.000000000  0.093687670  0.000000000
     0.000000000  0.000000000 20.000000000     0.000000000  0.000000000  0.050000000

  length of vectors
    12.325000000 12.325000000 20.000000000     0.093687670  0.093687670  0.050000000


 FORCES acting on ions:
    Electron-Ion                     Ewald-Force                    Non-Local-Force
 -----------------------------------------------------------------------------------------------
   0.486E+00 0.433E+00 -.553E+00   -.486E+00 -.434E+00 0.547E+00   0.406E-02 -.570E-03 0.536E-02
   0.657E+00 0.384E+00 0.787E-02   -.660E+00 -.382E+00 -.526E-02   0.239E-02 -.289E-02 -.603E-02
   0.266E+00 0.707E+00 -.441E+00   -.267E+00 -.707E+00 0.438E+00   -.653E-04 0.111E-01 -.295E-02
   0.333E+00 0.472E+00 0.101E+01   -.330E+00 -.471E+00 -.100E+01   0.111E-01 0.694E-03 -.176E-01
   0.554E+00 0.152E+00 -.746E-01   -.552E+00 -.153E+00 0.703E-01   -.956E-03 -.498E-02 0.439E-02
   0.565E+00 -.135E+00 0.896E-01   -.568E+00 0.136E+00 -.898E-01   -.642E-02 0.364E-02 -.117E-02
   0.615E+00 0.300E+00 0.137E+01   -.616E+00 -.301E+00 -.136E+01   0.110E-01 -.186E-01 -.784E-02
   0.652E+00 -.189E+00 0.253E+01   -.657E+00 0.191E+00 -.252E+01   -.794E-02 -.475E-02 -.608E-02
   -.297E+00 0.733E+00 0.558E-01   0.300E+00 -.736E+00 -.544E-01   0.621E-03 -.136E-01 -.496E-02
   -.347E+00 0.320E+00 0.148E+01   0.347E+00 -.320E+00 -.147E+01   -.251E-01 0.143E-01 0.890E-03
   0.139E+00 -.152E+00 -.366E+00   -.137E+00 0.152E+00 0.364E+00   0.409E-02 -.277E-02 0.172E-02
   0.151E+00 -.124E+00 -.397E+00   -.151E+00 0.125E+00 0.390E+00   -.621E-02 0.317E-02 0.752E-02
   0.143E+00 -.489E+00 0.308E+01   -.143E+00 0.490E+00 -.306E+01   0.257E-01 -.694E-02 -.369E-02
   0.982E-01 -.797E+00 0.124E+01   -.101E+00 0.799E+00 -.123E+01   0.300E-02 0.734E-02 -.160E-01
   -.543E+00 0.322E+00 -.394E+00   0.545E+00 -.324E+00 0.385E+00   0.761E-02 -.416E-02 0.914E-02
   -.662E+00 0.165E+00 -.498E+00   0.661E+00 -.165E+00 0.498E+00   -.108E-02 0.484E-02 -.357E-02
   -.940E-01 -.397E-01 -.772E+00   0.964E-01 0.381E-01 0.769E+00   0.436E-03 0.103E-03 0.249E-02
   0.477E-01 0.326E+00 -.829E+00   -.475E-01 -.327E+00 0.820E+00   -.251E-02 0.123E-02 0.921E-02
   -.142E+00 -.747E+00 0.273E+00   0.142E+00 0.748E+00 -.274E+00   0.543E-02 -.117E-02 -.305E-03
   -.892E-01 -.469E+00 -.297E+00   0.866E-01 0.470E+00 0.297E+00   -.550E-03 -.598E-03 -.396E-03
   0.720E+00 -.295E+00 0.899E+00   -.719E+00 0.296E+00 -.889E+00   -.224E-02 -.179E-02 -.150E-01
   0.529E+00 -.414E+00 0.459E+00   -.532E+00 0.416E+00 -.460E+00   -.697E-02 0.542E-02 -.117E-03
   -.102E+00 0.178E+00 0.251E+01   0.978E-01 -.176E+00 -.249E+01   -.999E-02 0.103E-01 -.233E-02
   -.170E+00 -.302E+00 0.256E+01   0.173E+00 0.300E+00 -.254E+01   0.117E-01 -.143E-01 -.136E-01
   0.279E+00 -.943E-01 -.274E+00   -.277E+00 0.931E-01 0.274E+00   0.393E-02 -.280E-02 -.120E-02
   0.933E-01 0.245E+00 -.495E+00   -.938E-01 -.244E+00 0.488E+00   -.461E-02 0.299E-02 0.722E-02
   -.770E+00 0.394E-01 0.306E+00   0.774E+00 -.413E-01 -.306E+00   0.128E-01 0.740E-02 -.268E-02
   -.685E+00 -.308E+00 -.169E+00   0.686E+00 0.308E+00 0.166E+00   -.779E-02 0.885E-02 -.577E-03
   0.271E+00 -.588E+00 0.478E+00   -.270E+00 0.588E+00 -.476E+00   0.376E-02 0.246E-02 -.515E-02
   0.263E-01 -.251E+00 -.161E+00   -.284E-01 0.253E+00 0.162E+00   -.499E-02 0.232E-02 -.324E-03
   -.483E+00 -.479E+00 0.401E+00   0.481E+00 0.480E+00 -.397E+00   -.114E-01 -.774E-02 -.153E-01
   -.365E+00 -.723E+00 -.138E+00   0.367E+00 0.722E+00 0.134E+00   0.468E-03 -.386E-03 0.308E-03
   0.156E-01 0.174E+00 -.524E+00   -.152E-01 -.175E+00 0.516E+00   0.460E-02 -.447E-02 0.832E-02
   0.818E-01 0.138E+00 -.525E+00   -.846E-01 -.137E+00 0.525E+00   -.240E-02 0.472E-02 0.401E-03
   -.358E+00 0.679E-01 -.543E+00   0.360E+00 -.688E-01 0.536E+00   0.438E-02 -.253E-02 0.753E-02
   -.311E+00 -.154E+00 -.570E+00   0.310E+00 0.154E+00 0.565E+00   -.328E-02 0.214E-02 0.501E-02
   -.564E+00 -.326E+00 -.670E+00   0.567E+00 0.324E+00 0.667E+00   -.702E-04 0.866E-03 0.326E-02
   -.381E+00 -.313E+00 -.717E+00   0.382E+00 0.314E+00 0.709E+00   -.329E-02 0.123E-02 0.864E-02
   -.350E+00 -.442E+00 -.677E+00   0.349E+00 0.443E+00 0.674E+00   -.254E-02 0.407E-03 0.368E-02
   -.469E-01 -.132E+00 -.718E+00   0.480E-01 0.132E+00 0.712E+00   0.166E-02 0.821E-03 0.662E-02
   0.141E+00 0.334E+00 -.859E+00   -.142E+00 -.334E+00 0.854E+00   -.380E-02 0.133E-02 0.609E-02
   0.414E+00 0.594E+00 -.759E+00   -.413E+00 -.595E+00 0.751E+00   -.117E-02 -.114E-02 0.617E-02
   0.569E-01 0.549E+00 -.833E+00   -.542E-01 -.550E+00 0.830E+00   0.385E-03 0.907E-04 0.262E-02
   0.186E-01 0.767E+00 -.528E+00   -.182E-01 -.768E+00 0.520E+00   -.744E-02 0.108E-02 0.440E-02
   -.113E+00 0.206E+00 -.435E+00   0.115E+00 -.208E+00 0.432E+00   0.431E-02 -.327E-02 0.343E-02
   -.366E+00 0.491E+00 -.418E+00   0.365E+00 -.491E+00 0.417E+00   -.549E-02 -.257E-03 0.194E-03
   -.131E+00 -.241E+00 -.237E+00   0.132E+00 0.241E+00 0.231E+00   0.568E-02 -.116E-02 0.736E-02
   -.232E+00 0.792E-01 -.572E+00   0.231E+00 -.784E-01 0.572E+00   -.378E-02 0.322E-02 -.124E-02
   0.154E-01 -.145E+00 -.573E+00   -.153E-01 0.145E+00 0.569E+00   0.379E-02 -.292E-02 0.554E-02
   0.235E+00 0.171E+00 -.628E+00   -.237E+00 -.170E+00 0.625E+00   -.872E-03 0.186E-02 0.341E-02
   -.697E-02 0.328E-01 0.464E+00   0.283E-02 -.290E-01 -.429E+00   -.297E-02 0.194E-02 -.280E-02
   -.229E+03 0.156E+03 -.110E+02   0.279E+03 -.190E+03 0.143E+02   -.511E+02 0.348E+02 -.343E+01
   0.229E+03 -.156E+03 0.875E+01   -.279E+03 0.190E+03 -.118E+02   0.511E+02 -.348E+02 0.309E+01
 -----------------------------------------------------------------------------------------------
   -.698E-02 0.137E-01 0.342E+00   0.568E-13 0.000E+00 -.178E-14   0.731E-02 -.139E-01 -.342E+00
 
 
 POSITION                                       TOTAL-FORCE (eV/Angst)
 -----------------------------------------------------------------------------------
     11.98348      0.00342      0.01417         0.003287     -0.001693     -0.001109
     -0.34154      1.42665      0.01100        -0.000497     -0.000129     -0.003492
      2.12355      0.00315      0.01249        -0.001732      0.010950     -0.006574
      2.12326      1.42653      0.00641         0.013538      0.001320     -0.008380
     10.75099      2.13819      0.01213         0.000386     -0.005794     -0.000080
     -1.57382      3.56123      0.01110        -0.009024      0.004754     -0.001423
      0.89078      2.13854      0.00548         0.009802     -0.019201      0.002457
      0.89099      3.56147      0.00181        -0.011628     -0.002607      0.012007
      4.58864      0.00346      0.01135         0.003463     -0.015708     -0.003568
      4.58894      1.42623      0.00646        -0.023842      0.013491      0.013893
      9.51854      4.27281      0.01369         0.006509     -0.003079      0.000105
     -2.80632      5.69591      0.01434        -0.006594      0.003419      0.000712
      2.12300      4.27302      0.00000         0.025341     -0.005230      0.020636
      2.12335      5.69594      0.00581        -0.000369      0.009039     -0.002575
      7.05344      0.00333      0.01399         0.009406     -0.005294     -0.000394
      7.05353      1.42635      0.01368        -0.001791      0.005080     -0.003942
      8.28610      6.40752      0.01601         0.002841     -0.001434     -0.000974
     -4.03885      7.83070      0.01636        -0.002264      0.000889     -0.000205
      3.35586      6.40753      0.01007         0.005605      0.000472     -0.001235
      3.35599      7.83072      0.01320        -0.003128     -0.000039     -0.000769
     -0.34146      4.27290      0.00723        -0.001783     -0.001563     -0.004423
     -0.34138      5.69591      0.00946        -0.009257      0.006571     -0.000987
      3.35624      2.13791      0.00222        -0.013657      0.012057      0.016030
      3.35573      3.56155      0.00139         0.013702     -0.016100      0.008533
     -1.57395      6.40758      0.01311         0.005326     -0.003905     -0.000678
     -1.57385      7.83068      0.01438        -0.004905      0.003796     -0.000029
      5.82093      2.13784      0.01033         0.015839      0.005311     -0.002940
      5.82114      3.56097      0.01156        -0.006526      0.008574     -0.003759
      0.89092      6.40755      0.00907         0.004687      0.002366     -0.002195
      0.89106      7.83068      0.01235        -0.006837      0.003925      0.000303
      4.58871      4.27293      0.00850        -0.013089     -0.006628     -0.010924
      4.58852      5.69606      0.01149         0.001976     -0.001271     -0.004064
      9.51845      0.00337      0.01490         0.004789     -0.004686      0.000110
      9.51855      1.42644      0.01438        -0.005139      0.005412     -0.000442
      8.28593      2.13803      0.01453         0.006747     -0.003394      0.000523
      8.28613      3.56115      0.01464        -0.004408      0.002256     -0.000145
      7.05356      4.27269      0.01457         0.002463     -0.001099     -0.000836
      7.05362      5.69588      0.01553        -0.002548      0.001573     -0.000189
      5.82112      6.40755      0.01489        -0.003018      0.001573     -0.000232
      5.82102      7.83073      0.01579         0.002744      0.000240     -0.000414
      7.05363      8.54227      0.01631        -0.004695      0.001338      0.000888
     -5.27149      9.96549      0.01495         0.000206     -0.001958     -0.002317
     -2.80638      8.54234      0.01558         0.003073     -0.001253     -0.001400
     -2.80627      9.96553      0.01362        -0.006880      0.000015     -0.003896
     -0.34149      8.54239      0.01378         0.005775     -0.004896      0.000151
     -0.34138      9.96550      0.01354        -0.006038     -0.000055     -0.001367
      2.12343      8.54232      0.01336         0.005911     -0.001518      0.000739
      2.12354      9.96544      0.01469        -0.005120      0.003818     -0.002009
      4.58846      8.54235      0.01505         0.003743     -0.002798      0.000903
      4.58853      9.96550      0.01517        -0.002698      0.003348     -0.000008
      3.04930      2.68154     10.00000        -0.006945      0.005615      0.034439
      4.02070      2.02068     10.06442        -0.530995      0.360847     -0.051397
      2.07767      3.34267      9.94055         0.538248     -0.366713      0.016943
 -----------------------------------------------------------------------------------
    total drift:                                0.000327     -0.000197      0.000694


--------------------------------------------------------------------------------------------------------



  FREE ENERGIE OF THE ION-ELECTRON SYSTEM (eV)
  ---------------------------------------------------
  free  energy   TOTEN  =      -489.27502179 eV

  energy  without entropy=     -489.27502179  energy(sigma->0) =     -489.27502179
 


--------------------------------------------------------------------------------------------------------


    POTLOK:  cpu time    0.5586: real time    0.5629


--------------------------------------------------------------------------------------------------------


     LOOP+:  cpu time  317.1484: real time  320.1504
    4ORBIT:  cpu time    0.0000: real time    0.0000

 total amount of memory used by VASP MPI-rank0   441788. kBytes
=======================================================================

   base      :      30000. kBytes
   nonl-proj :     184518. kBytes
   fftplans  :      31725. kBytes
   grid      :     168095. kBytes
   one-center:        162. kBytes
   wavefun   :      27288. kBytes
 
  
  
 General timing and accounting informations for this job:
 ========================================================
  
                  Total CPU time used (sec):      352.600
                            User time (sec):      334.299
                          System time (sec):       18.301
                         Elapsed time (sec):      357.343
  
                   Maximum memory used (kb):      851680.
                   Average memory used (kb):          N/A
  
                          Minor page faults:       163338
                          Major page faults:           82
                 Voluntary context switches:         3362
