 vasp.6.2.1 16May21 (build Nov 06 2021 14:46:37) complex                        
  
 executed on             LinuxIFC date 2025.03.03  18:33:23
 running on  112 total cores
 distrk:  each k-point on   56 cores,    2 groups
 distr:  one band on NCORE=   1 cores,   56 groups


--------------------------------------------------------------------------------------------------------


 INCAR:
   ALGO = Conjugate
   KPAR = 2
   NCORE = 32
   PREC = Accurate
   EDIFF = 1E-7
   ENCUT = 1000
   ISMEAR = 0
   SIGMA = 0.01
   ISIF = 0
   GGA = PE
   IVDW = 202
   LVDWEXPANSION = .TRUE.
   LWAVE = .FALSE.
   LCHARGE = .FALSE.
   SYMPREC = 1E-7

 POTCAR:    PAW_PBE C_h 06Feb2004                 
 POTCAR:    PAW_PBE O_h 06Feb2004                 
 -----------------------------------------------------------------------------
|                                                                             |
|           W    W    AA    RRRRR   N    N  II  N    N   GGGG   !!!           |
|           W    W   A  A   R    R  NN   N  II  NN   N  G    G  !!!           |
|           W    W  A    A  R    R  N N  N  II  N N  N  G       !!!           |
|           W WW W  AAAAAA  RRRRR   N  N N  II  N  N N  G  GGG   !            |
|           WW  WW  A    A  R   R   N   NN  II  N   NN  G    G                |
|           W    W  A    A  R    R  N    N  II  N    N   GGGG   !!!           |
|                                                                             |
|     The value NCORE = 32 specified in the INCAR file was overwritten,       |
|     because it was not compatible with the 56 processes available:          |
|     NCORE = 1                                                               |
|     was used instead, please check that this makes sense for your           |
|     machine.                                                                |
|                                                                             |
 -----------------------------------------------------------------------------

 -----------------------------------------------------------------------------
|                                                                             |
|           W    W    AA    RRRRR   N    N  II  N    N   GGGG   !!!           |
|           W    W   A  A   R    R  NN   N  II  NN   N  G    G  !!!           |
|           W    W  A    A  R    R  N N  N  II  N N  N  G       !!!           |
|           W WW W  AAAAAA  RRRRR   N  N N  II  N  N N  G  GGG   !            |
|           WW  WW  A    A  R   R   N   NN  II  N   NN  G    G                |
|           W    W  A    A  R    R  N    N  II  N    N   GGGG   !!!           |
|                                                                             |
|     For optimal performance we recommend to set                             |
|       NCORE = 2 up to number-of-cores-per-socket                            |
|     NCORE specifies how many cores store one orbital (NPAR=cpu/NCORE).      |
|     This setting can greatly improve the performance of VASP for DFT.       |
|     The default, NCORE=1 might be grossly inefficient on modern             |
|     multi-core architectures or massively parallel machines. Do your        |
|     own testing! More info at https://www.vasp.at/wiki/index.php/NCORE      |
|     Unfortunately you need to use the default for GW and RPA                |
|     calculations (for HF NCORE is supported but not extensively tested      |
|     yet).                                                                   |
|                                                                             |
 -----------------------------------------------------------------------------

 POTCAR:    PAW_PBE C_h 06Feb2004                 
   VRHFIN =C: s2p2                                                                                  
   LEXCH  = PE                                                                                      
   EATOM  =   147.1560 eV,   10.8157 Ry                                                             
                                                                                                    
   TITEL  = PAW_PBE C_h 06Feb2004                                                                   
   LULTRA =        F    use ultrasoft PP ?                                                          
   IUNSCR =        1    unscreen: 0-lin 1-nonlin 2-no                                               
   RPACOR =    0.800    partial core radius                                                         
   POMASS =   12.011; ZVAL   =    4.000    mass and valenz                                          
   RCORE  =    1.100    outmost cutoff radius                                                       
   RWIGS  =    1.630; RWIGS  =    0.863    wigner-seitz radius (au A)                               
   ENMAX  =  700.000; ENMIN  =  500.000 eV                                                          
   ICORE  =        2    local potential                                                             
   LCOR   =        T    correct aug charges                                                         
   LPAW   =        T    paw PP                                                                      
   EAUG   =  946.768                                                                                
   DEXC   =    0.000                                                                                
   RMAX   =    1.128    core radius for proj-oper                                                   
   RAUG   =    1.300    factor for augmentation sphere                                              
   RDEP   =    1.162    radius for radial grids                                                     
   RDEPT  =    1.088    core radius for aug-charge                                                  
                                                                                                    
   Atomic configuration                                                                             
    4 entries                                                                                       
     n  l   j            E        occ.                                                              
     1  0  0.50      -273.3789   2.0000                                                             
     2  0  0.50       -13.7508   2.0000                                                             
     2  1  0.50        -5.2854   2.0000                                                             
     3  2  1.50        -5.4423   0.0000                                                             
   Description                                                                                      
     l       E           TYP  RCUT    TYP  RCUT                                                     
     0    -13.7508458     23  1.100                                                                 
     0     -8.2022199     23  1.100                                                                 
     1     -5.2854383     23  1.100                                                                 
     1      1.1560700     23  1.100                                                                 
     2     -5.4423304      7  1.100                                                                 
  local pseudopotential read in
  partial core-charges read in
  partial kinetic energy density read in
  atomic valenz-charges read in
  non local Contribution for L=           0  read in
    real space projection operators read in
  non local Contribution for L=           0  read in
    real space projection operators read in
  non local Contribution for L=           1  read in
    real space projection operators read in
  non local Contribution for L=           1  read in
    real space projection operators read in
    PAW grid and wavefunctions read in
 
   number of l-projection  operators is LMAX  =           4
   number of lm-projection operators is LMMAX =           8
 
 POTCAR:    PAW_PBE O_h 06Feb2004                 
   VRHFIN =O: s2p4                                                                                  
   LEXCH  = PE                                                                                      
   EATOM  =   432.3788 eV,   31.7789 Ry                                                             
                                                                                                    
   TITEL  = PAW_PBE O_h 06Feb2004                                                                   
   LULTRA =        F    use ultrasoft PP ?                                                          
   IUNSCR =        1    unscreen: 0-lin 1-nonlin 2-no                                               
   RPACOR =    0.800    partial core radius                                                         
   POMASS =   16.000; ZVAL   =    6.000    mass and valenz                                          
   RCORE  =    1.100    outmost cutoff radius                                                       
   RWIGS  =    1.400; RWIGS  =    0.741    wigner-seitz radius (au A)                               
   ENMAX  =  700.000; ENMIN  =  500.000 eV                                                          
   ICORE  =        2    local potential                                                             
   LCOR   =        T    correct aug charges                                                         
   LPAW   =        T    paw PP                                                                      
   EAUG   =  888.804                                                                                
   DEXC   =    0.000                                                                                
   RMAX   =    1.128    core radius for proj-oper                                                   
   RAUG   =    1.300    factor for augmentation sphere                                              
   RDEP   =    1.125    radius for radial grids                                                     
   RDEPT  =    1.088    core radius for aug-charge                                                  
                                                                                                    
   Atomic configuration                                                                             
    4 entries                                                                                       
     n  l   j            E        occ.                                                              
     1  0  0.50      -514.6923   2.0000                                                             
     2  0  0.50       -23.9615   2.0000                                                             
     2  1  0.50        -9.0305   4.0000                                                             
     3  2  1.50        -9.5241   0.0000                                                             
   Description                                                                                      
     l       E           TYP  RCUT    TYP  RCUT                                                     
     0    -23.9615319     23  1.100                                                                 
     0    -25.3221145     23  1.100                                                                 
     1     -9.0304911     23  1.100                                                                 
     1     -5.4802209     23  1.100                                                                 
     2     -9.5240782      7  1.100                                                                 
  local pseudopotential read in
  partial core-charges read in
  partial kinetic energy density read in
  atomic valenz-charges read in
  non local Contribution for L=           0  read in
    real space projection operators read in
  non local Contribution for L=           0  read in
    real space projection operators read in
  non local Contribution for L=           1  read in
    real space projection operators read in
  non local Contribution for L=           1  read in
    real space projection operators read in
    PAW grid and wavefunctions read in
 
   number of l-projection  operators is LMAX  =           4
   number of lm-projection operators is LMMAX =           8
 
 -----------------------------------------------------------------------------
|                                                                             |
|               ----> ADVICE to this user running VASP <----                  |
|                                                                             |
|     You have a (more or less) 'large supercell' and for larger cells it     |
|     might be more efficient to use real-space projection operators.         |
|     Therefore, try LREAL= Auto in the INCAR file.                           |
|     Mind: For very accurate calculation, you might also keep the            |
|     reciprocal projection scheme (i.e. LREAL=.FALSE.).                      |
|                                                                             |
 -----------------------------------------------------------------------------

  PAW_PBE C_h 06Feb2004                 :
 energy of atom  1       EATOM= -147.1560
 kinetic energy error for atom=    0.0031 (will be added to EATOM!!)
  PAW_PBE O_h 06Feb2004                 :
 energy of atom  2       EATOM= -432.3788
 kinetic energy error for atom=    0.0171 (will be added to EATOM!!)
 
 
 POSCAR:  C  O
  positions in cartesian coordinates
  No initial velocities read in
 exchange correlation table for  LEXCH =        8
   RHO(1)=    0.500       N(1)  =     2000
   RHO(2)=  100.500       N(2)  =     4000
 


--------------------------------------------------------------------------------------------------------


 ion  position               nearest neighbor table
   1  0.972  0.000  0.001-  50 1.42   2 1.42  42 1.42
   2  0.039  0.134  0.001-   5 1.42   7 1.42   1 1.42
   3  0.172  0.000  0.001-  42 1.42  44 1.42   4 1.42
   4  0.239  0.134  0.000-   7 1.42   3 1.42  23 1.42
   5  0.972  0.200  0.001-   6 1.42   2 1.42  34 1.42
   6  0.039  0.334  0.001-   5 1.42  21 1.42  11 1.42
   7  0.172  0.200  0.000-   8 1.42   2 1.42   4 1.42
   8  0.239  0.334  0.000-  13 1.42   7 1.42  21 1.42
   9  0.372  0.000  0.001-  10 1.42  44 1.42  46 1.42
  10  0.439  0.134  0.000-  27 1.42   9 1.42  23 1.42
  11  0.972  0.400  0.001-  12 1.42  36 1.42   6 1.42
  12  0.039  0.534  0.001-  25 1.42  11 1.42  17 1.42
  13  0.372  0.400  0.000-   8 1.42  14 1.42  24 1.42
  14  0.439  0.534  0.000-  13 1.42  29 1.42  19 1.42
  15  0.572  0.000  0.001-  46 1.42  16 1.42  48 1.42
  16  0.639  0.134  0.001-  15 1.42  35 1.42  27 1.42
  17  0.972  0.600  0.001-  38 1.42  18 1.42  12 1.42
  18  0.039  0.734  0.001-  43 1.42  41 1.42  17 1.42
  19  0.572  0.600  0.001-  14 1.42  20 1.42  32 1.42
  20  0.639  0.734  0.001-  49 1.42  19 1.42  47 1.42
  21  0.172  0.400  0.000-  22 1.42   8 1.42   6 1.42
  22  0.239  0.534  0.000-  21 1.42  29 1.42  25 1.42
  23  0.372  0.200  0.000-  10 1.42   4 1.42  24 1.42
  24  0.439  0.334  0.000-  13 1.42  31 1.42  23 1.42
  25  0.172  0.600  0.001-  26 1.42  12 1.42  22 1.42
  26  0.239  0.734  0.001-  25 1.42  45 1.42  43 1.42
  27  0.572  0.200  0.001-  10 1.42  28 1.42  16 1.42
  28  0.639  0.334  0.001-  27 1.42  37 1.42  31 1.42
  29  0.372  0.600  0.000-  22 1.42  14 1.42  30 1.42
  30  0.439  0.734  0.001-  47 1.42  29 1.42  45 1.42
  31  0.572  0.400  0.000-  32 1.42  28 1.42  24 1.42
  32  0.639  0.534  0.001-  31 1.42  39 1.42  19 1.42
  33  0.772  0.000  0.001-  34 1.42  48 1.42  50 1.42
  34  0.839  0.134  0.001-  33 1.42   5 1.42  35 1.42
  35  0.772  0.200  0.001-  36 1.42  16 1.42  34 1.42
  36  0.839  0.334  0.001-  35 1.42  11 1.42  37 1.42
  37  0.772  0.400  0.001-  28 1.42  38 1.42  36 1.42
  38  0.839  0.534  0.001-  17 1.42  37 1.42  39 1.42
  39  0.772  0.600  0.001-  40 1.42  38 1.42  32 1.42
  40  0.839  0.734  0.001-  39 1.42  49 1.42  41 1.42
  41  0.972  0.800  0.001-  18 1.42  42 1.42  40 1.42
  42  0.039  0.934  0.001-   3 1.42  41 1.42   1 1.42
  43  0.172  0.800  0.001-  18 1.42  44 1.42  26 1.42
  44  0.239  0.934  0.001-   9 1.42  43 1.42   3 1.42
  45  0.372  0.800  0.001-  26 1.42  46 1.42  30 1.42
  46  0.439  0.934  0.001-  15 1.42  45 1.42   9 1.42
  47  0.572  0.800  0.001-  30 1.42  48 1.42  20 1.42
  48  0.639  0.934  0.001-  47 1.42  33 1.42  15 1.42
  49  0.772  0.800  0.001-  50 1.42  20 1.42  40 1.42
  50  0.839  0.934  0.001-  49 1.42   1 1.42  33 1.42
  51  0.373  0.251  0.315-  52 1.18  53 1.18
  52  0.421  0.189  0.318-  51 1.18
  53  0.325  0.313  0.312-  51 1.18
 
  LATTYP: Found a hexagonal cell.
 ALAT       =    12.3250000000
 C/A-ratio  =     1.6227180527
  
  Lattice vectors:
  
 A1 = (  12.3250000000,   0.0000000000,   0.0000000000)
 A2 = (  -6.1625000000,  10.6737631016,   0.0000000000)
 A3 = (   0.0000000000,   0.0000000000,  20.0000000000)


Analysis of symmetry for initial positions (statically):
=====================================================================
 Subroutine PRICEL returns:
 Original cell was already a primitive cell.
 

 Routine SETGRP: Setting up the symmetry group for a 
 hexagonal supercell.


 Subroutine GETGRP returns: Found  1 space group operations
 (whereof  1 operations were pure point group operations)
 out of a pool of 24 trial point group operations.


The static configuration has the point symmetry C_1 .


Analysis of symmetry for dynamics (positions and initial velocities):
=====================================================================
 Subroutine PRICEL returns:
 Original cell was already a primitive cell.
 

 Routine SETGRP: Setting up the symmetry group for a 
 hexagonal supercell.


 Subroutine GETGRP returns: Found  1 space group operations
 (whereof  1 operations were pure point group operations)
 out of a pool of 24 trial point group operations.


The dynamic configuration has the point symmetry C_1 .


 Subroutine INISYM returns: Found  1 space group operations
 (whereof  1 operations are pure point group operations),
 and found     1 'primitive' translations


----------------------------------------------------------------------------------------

                                     Primitive cell                                     

  volume of cell :    2631.0826

  direct lattice vectors                    reciprocal lattice vectors
    12.325000000  0.000000000  0.000000000     0.081135903  0.046843835  0.000000000
    -6.162500000 10.673763102  0.000000000     0.000000000  0.093687670  0.000000000
     0.000000000  0.000000000 20.000000000     0.000000000  0.000000000  0.050000000

  length of vectors
    12.325000000 12.325000000 20.000000000     0.093687670  0.093687670  0.050000000

  position of ions in fractional coordinates (direct lattice)
     0.972450841  0.000320818  0.000708389
     0.039118382  0.133659505  0.000550216
     0.172443627  0.000295449  0.000624535
     0.239096278  0.133647917  0.000320585
     0.972452058  0.200322012  0.000606523
     0.039128360  0.333643771  0.000555187
     0.172451764  0.200354552  0.000273959
     0.239124359  0.333665720  0.000090325
     0.372465565  0.000324403  0.000567391
     0.439137473  0.133619939  0.000322923
     0.972449824  0.400309362  0.000684513
     0.039124981  0.533636789  0.000716763
     0.372416176  0.400329481  0.000000000
     0.439099602  0.533638981  0.000290518
     0.572443676  0.000312125  0.000699475
     0.639110207  0.133631751  0.000684093
     0.972452703  0.600305653  0.000800361
     0.039124495  0.733640359  0.000818141
     0.572433471  0.600306242  0.000503618
     0.639111888  0.733641879  0.000659881
     0.172454630  0.400318228  0.000361306
     0.239120185  0.533636548  0.000473136
     0.372459750  0.200295993  0.000111246
     0.439107096  0.333673419  0.000069702
     0.172452155  0.600311506  0.000655425
     0.239123371  0.733638574  0.000718912
     0.572431082  0.200289171  0.000516621
     0.639112773  0.333618630  0.000577970
     0.372439808  0.600308022  0.000453556
     0.439116090  0.733637858  0.000617737
     0.572469358  0.400320504  0.000424897
     0.639119408  0.533650873  0.000574513
     0.772445723  0.000315427  0.000745201
     0.839116277  0.133640203  0.000719132
     0.772440513  0.200307432  0.000726291
     0.839120241  0.333635728  0.000731834
     0.772446320  0.400298367  0.000728722
     0.839118980  0.533633964  0.000776376
     0.772456143  0.600308173  0.000744639
     0.839115033  0.733643180  0.000789390
     0.972455313  0.800305582  0.000815291
     0.039114714  0.933643289  0.000747563
     0.172457971  0.800312211  0.000779216
     0.239134551  0.933647193  0.000681063
     0.372451396  0.800316674  0.000689249
     0.439124489  0.933644769  0.000676788
     0.572441101  0.800310054  0.000668168
     0.639115067  0.933638985  0.000734556
     0.772445098  0.800313187  0.000752577
     0.839116614  0.933644338  0.000758538
     0.373021009  0.251226878  0.314980263
     0.420879805  0.189313152  0.318201356
     0.325156981  0.313167186  0.312007519

  ion indices of the primitive-cell ions
   primitive index   ion index
                 1           1
                 2           2
                 3           3
                 4           4
                 5           5
                 6           6
                 7           7
                 8           8
                 9           9
                10          10
                11          11
                12          12
                13          13
                14          14
                15          15
                16          16
                17          17
                18          18
                19          19
                20          20
                21          21
                22          22
                23          23
                24          24
                25          25
                26          26
                27          27
                28          28
                29          29
                30          30
                31          31
                32          32
                33          33
                34          34
                35          35
                36          36
                37          37
                38          38
                39          39
                40          40
                41          41
                42          42
                43          43
                44          44
                45          45
                46          46
                47          47
                48          48
                49          49
                50          50
                51          51
                52          52
                53          53

----------------------------------------------------------------------------------------

 
 
 KPOINTS: auto                                    

Automatic generation of k-mesh.
 Grid dimensions read from file:
 generate k-points for:    1    1    1

 Generating k-lattice:

  Cartesian coordinates                     Fractional coordinates (reciprocal lattice)
     0.081135903  0.046843835  0.000000000     1.000000000 -0.000000000  0.000000000
     0.000000000  0.093687670  0.000000000     0.000000000  1.000000000  0.000000000
     0.000000000  0.000000000  0.050000000     0.000000000  0.000000000  1.000000000

  Length of vectors
     0.093687670  0.093687670  0.050000000

  Shift w.r.t. Gamma in fractional coordinates (k-lattice)
     0.000000000  0.000000000  0.000000000

 
 Subroutine IBZKPT returns following result:
 ===========================================
 
 Found      1 irreducible k-points:
 
 Following reciprocal coordinates:
            Coordinates               Weight
  0.000000  0.000000  0.000000      1.000000
 
 Following cartesian coordinates:
            Coordinates               Weight
  0.000000  0.000000  0.000000      1.000000
 


--------------------------------------------------------------------------------------------------------




 Dimension of arrays:
   k-points           NKPTS =      1   k-points in BZ     NKDIM =      1   number of bands    NBANDS=    168
   number of dos      NEDOS =    301   number of ions     NIONS =     53
   non local maximal  LDIM  =      4   non local SUM 2l+1 LMDIM =      8
   total plane-waves  NPLWV = ******
   max r-space proj   IRMAX =      1   max aug-charges    IRDMAX=   9736
   dimension x,y,z NGX =   128 NGY =  128 NGZ =  210
   dimension x,y,z NGXF=   256 NGYF=  256 NGZF=  420
   support grid    NGXF=   256 NGYF=  256 NGZF=  420
   ions per type =              51   2
   NGX,Y,Z   is equivalent  to a cutoff of  17.27, 17.27, 17.46 a.u.
   NGXF,Y,Z  is equivalent  to a cutoff of  34.53, 34.53, 34.91 a.u.

 SYSTEM =  unknown system                          
 POSCAR =   C  O                                   

 Startparameter for this run:
   NWRITE =      2    write-flag & timer
   PREC   = accura    normal or accurate (medium, high low for compatibility)
   ISTART =      0    job   : 0-new  1-cont  2-samecut
   ICHARG =      2    charge: 1-file 2-atom 10-const
   ISPIN  =      1    spin polarized calculation?
   LNONCOLLINEAR =      F non collinear calculations
   LSORBIT =      F    spin-orbit coupling
   INIWAV =      1    electr: 0-lowe 1-rand  2-diag
   LASPH  =      F    aspherical Exc in radial PAW
 Electronic Relaxation 1
   ENCUT  = 1000.0 eV  73.50 Ry    8.57 a.u.  31.78 31.78 51.57*2*pi/ulx,y,z
   ENINI  = 1000.0     initial cutoff
   ENAUG  =  946.8 eV  augmentation charge cutoff
   NELM   =     60;   NELMIN=  2; NELMDL= -5     # of ELM steps 
   EDIFF  = 0.1E-06   stopping-criterion for ELM
   LREAL  =      F    real-space projection
   NLSPLINE    = F    spline interpolate recip. space projectors
   LCOMPAT=      F    compatible to vasp.4.4
   GGA_COMPAT  = T    GGA compatible to vasp.4.4-vasp.4.6
   LMAXPAW     = -100 max onsite density
   LMAXMIX     =    2 max onsite mixed and CHGCAR
   VOSKOWN=      0    Vosko Wilk Nusair interpolation
   ROPT   =    0.00000   0.00000
 Ionic relaxation
   EDIFFG = 0.1E-05   stopping-criterion for IOM
   NSW    =      0    number of steps for IOM
   NBLOCK =      1;   KBLOCK =      1    inner block; outer block 
   IBRION =     -1    ionic relax: 0-MD 1-quasi-New 2-CG
   NFREE  =      0    steps in history (QN), initial steepest desc. (CG)
   ISIF   =      0    stress and relaxation
   IWAVPR =     10    prediction:  0-non 1-charg 2-wave 3-comb
   ISYM   =      2    0-nonsym 1-usesym 2-fastsym
   LCORR  =      T    Harris-Foulkes like correction to forces

   POTIM  = 0.5000    time-step for ionic-motion
   TEIN   =    0.0    initial temperature
   TEBEG  =    0.0;   TEEND  =   0.0 temperature during run
   SMASS  =  -3.00    Nose mass-parameter (am)
   estimated Nose-frequenzy (Omega)   =  0.10E-29 period in steps = 0.13E+47 mass=  -0.347E-26a.u.
   SCALEE = 1.0000    scale energy and forces
   NPACO  =    256;   APACO  = 16.0  distance and # of slots for P.C.
   PSTRESS=    0.0 pullay stress

  Mass of Ions in am
   POMASS =  12.01 16.00
  Ionic Valenz
   ZVAL   =   4.00  6.00
  Atomic Wigner-Seitz radii
   RWIGS  =  -1.00 -1.00
  virtual crystal weights 
   VCA    =   1.00  1.00
   NELECT =     216.0000    total number of electrons
   NUPDOWN=      -1.0000    fix difference up-down

 DOS related values:
   EMIN   =  10.00;   EMAX   =-10.00  energy-range for DOS
   EFERMI =   0.00
   ISMEAR =     0;   SIGMA  =   0.01  broadening in eV -4-tet -1-fermi 0-gaus

 Electronic relaxation 2 (details)
   IALGO  =     58    algorithm
   LDIAG  =      T    sub-space diagonalisation (order eigenvalues)
   LSUBROT=      F    optimize rotation matrix (better conditioning)
   TURBO    =      0    0=normal 1=particle mesh
   IRESTART =      0    0=no restart 2=restart with 2 vectors
   NREBOOT  =      0    no. of reboots
   NMIN     =      0    reboot dimension
   EREF     =   0.00    reference energy to select bands
   IMIX   =      4    mixing-type and parameters
     AMIX     =   0.40;   BMIX     =  1.00
     AMIX_MAG =   1.60;   BMIX_MAG =  1.00
     AMIN     =   0.10
     WC   =   100.;   INIMIX=   1;  MIXPRE=   1;  MAXMIX= -45

 Intra band minimization:
   WEIMIN = 0.0000     energy-eigenvalue tresh-hold
   EBREAK =  0.15E-09  absolut break condition
   DEPER  =   0.30     relativ break condition  

   TIME   =   0.40     timestep for ELM

  volume/ion in A,a.u.               =      49.64       335.01
  Fermi-wavevector in a.u.,A,eV,Ry     =   0.711510  1.344560  6.887909  0.506247
  Thomas-Fermi vector in A             =   1.798641
 
 Write flags
   LWAVE        =      F    write WAVECAR
   LDOWNSAMPLE  =      F    k-point downsampling of WAVECAR
   LCHARG       =      T    write CHGCAR
   LVTOT        =      F    write LOCPOT, total local potential
   LVHAR        =      F    write LOCPOT, Hartree potential only
   LELF         =      F    write electronic localiz. function (ELF)
   LORBIT       =      0    0 simple, 1 ext, 2 COOP (PROOUT), +10 PAW based schemes


 Dipole corrections
   LMONO  =      F    monopole corrections only (constant potential shift)
   LDIPOL =      F    correct potential (dipole corrections)
   IDIPOL =      0    1-x, 2-y, 3-z, 4-all directions 
   EPSILON=  1.0000000 bulk dielectric constant

 Exchange correlation treatment:
   GGA     =    PE    GGA type
   LEXCH   =     8    internal setting for exchange type
   VOSKOWN=      0    Vosko Wilk Nusair interpolation
   LHFCALC =     F    Hartree Fock is set to
   LHFONE  =     F    Hartree Fock one center treatment
   AEXX    =    0.0000 exact exchange contribution

 Linear response parameters
   LEPSILON=     F    determine dielectric tensor
   LRPA    =     F    only Hartree local field effects (RPA)
   LNABLA  =     F    use nabla operator in PAW spheres
   LVEL    =     F    velocity operator in full k-point grid
   LINTERFAST=   F  fast interpolation
   KINTER  =     0    interpolate to denser k-point grid
   CSHIFT  =0.1000    complex shift for real part using Kramers Kronig
   OMEGAMAX=  -1.0    maximum frequency
   DEG_THRESHOLD= 0.2000000E-02 threshold for treating states as degnerate
   RTIME   =   -0.100 relaxation time in fs
  (WPLASMAI=    0.000 imaginary part of plasma frequency in eV, 0.658/RTIME)
   DFIELD  = 0.0000000 0.0000000 0.0000000 field for delta impulse in time
 
 Orbital magnetization related:
   ORBITALMAG=     F  switch on orbital magnetization
   LCHIMAG   =     F  perturbation theory with respect to B field
   DQ        =  0.001000  dq finite difference perturbation B field
   LLRAUG    =     F  two centre corrections for induced B field



--------------------------------------------------------------------------------------------------------


 Static calculation
 charge density and potential will be updated during run
 non-spin polarized calculation
 Conjugate gradient for all bands (Freysoldt, et al. PRB 79, 241103 (2009))
 preconditioned conjugated gradient                                        
 perform sub-space diagonalisation
    before iterative eigenvector-optimisation
 modified Broyden-mixing scheme, WC =      100.0
 initial mixing is a Kerker type mixing with AMIX =  0.4000 and BMIX =      1.0000
 Hartree-type preconditioning will be used
 using additional bands           60
 reciprocal scheme for non local part
 use partial core corrections
 no Harris-corrections to forces 
 use gradient corrections 
 use of overlap-Matrix (Vanderbilt PP)
 Gauss-broadening in eV      SIGMA  =   0.01


--------------------------------------------------------------------------------------------------------


  energy-cutoff  :     1000.00
  volume of cell :     2631.08
      direct lattice vectors                 reciprocal lattice vectors
    12.325000000  0.000000000  0.000000000     0.081135903  0.046843835  0.000000000
    -6.162500000 10.673763102  0.000000000     0.000000000  0.093687670  0.000000000
     0.000000000  0.000000000 20.000000000     0.000000000  0.000000000  0.050000000

  length of vectors
    12.325000000 12.325000000 20.000000000     0.093687670  0.093687670  0.050000000


 
 k-points in units of 2pi/SCALE and weight: auto                                    
   0.00000000  0.00000000  0.00000000       1.000
 
 k-points in reciprocal lattice and weights: auto                                    
   0.00000000  0.00000000  0.00000000       1.000
 
 position of ions in fractional coordinates (direct lattice) 
   0.97245084  0.00032082  0.00070839
   0.03911838  0.13365950  0.00055022
   0.17244363  0.00029545  0.00062454
   0.23909628  0.13364792  0.00032058
   0.97245206  0.20032201  0.00060652
   0.03912836  0.33364377  0.00055519
   0.17245176  0.20035455  0.00027396
   0.23912436  0.33366572  0.00009033
   0.37246557  0.00032440  0.00056739
   0.43913747  0.13361994  0.00032292
   0.97244982  0.40030936  0.00068451
   0.03912498  0.53363679  0.00071676
   0.37241618  0.40032948  0.00000000
   0.43909960  0.53363898  0.00029052
   0.57244368  0.00031213  0.00069947
   0.63911021  0.13363175  0.00068409
   0.97245270  0.60030565  0.00080036
   0.03912449  0.73364036  0.00081814
   0.57243347  0.60030624  0.00050362
   0.63911189  0.73364188  0.00065988
   0.17245463  0.40031823  0.00036131
   0.23912018  0.53363655  0.00047314
   0.37245975  0.20029599  0.00011125
   0.43910710  0.33367342  0.00006970
   0.17245216  0.60031151  0.00065542
   0.23912337  0.73363857  0.00071891
   0.57243108  0.20028917  0.00051662
   0.63911277  0.33361863  0.00057797
   0.37243981  0.60030802  0.00045356
   0.43911609  0.73363786  0.00061774
   0.57246936  0.40032050  0.00042490
   0.63911941  0.53365087  0.00057451
   0.77244572  0.00031543  0.00074520
   0.83911628  0.13364020  0.00071913
   0.77244051  0.20030743  0.00072629
   0.83912024  0.33363573  0.00073183
   0.77244632  0.40029837  0.00072872
   0.83911898  0.53363396  0.00077638
   0.77245614  0.60030817  0.00074464
   0.83911503  0.73364318  0.00078939
   0.97245531  0.80030558  0.00081529
   0.03911471  0.93364329  0.00074756
   0.17245797  0.80031221  0.00077922
   0.23913455  0.93364719  0.00068106
   0.37245140  0.80031667  0.00068925
   0.43912449  0.93364477  0.00067679
   0.57244110  0.80031005  0.00066817
   0.63911507  0.93363899  0.00073456
   0.77244510  0.80031319  0.00075258
   0.83911661  0.93364434  0.00075854
   0.37302101  0.25122688  0.31498026
   0.42087980  0.18931315  0.31820136
   0.32515698  0.31316719  0.31200752
 
 position of ions in cartesian coordinates  (Angst):
  11.98347958  0.00342433  0.01416777
  -0.34154264  1.42664989  0.01100432
   2.12354700  0.00315355  0.01249070
   2.12325634  1.42652621  0.00641170
  10.75098721  2.13818970  0.01213047
  -1.57382270  3.56123457  0.01110375
   0.89078307  2.13853702  0.00547917
   0.89099273  3.56146885  0.00180651
   4.58863896  0.00346260  0.01134782
   4.58893648  1.42622757  0.00645846
   9.51853763  4.27280730  0.01369027
  -2.80632132  5.69591267  0.01433526
   2.12299894  4.27302204  0.00000000
   2.12335237  5.69593607  0.00581036
   7.05344483  0.00333155  0.01398950
   7.05352764  1.42635365  0.01368187
   8.28609598  6.40752033  0.01600723
  -4.03884931  7.83070339  0.01636283
   3.35585531  6.40752662  0.01007237
   3.35598594  7.83071962  0.01319763
  -0.34145776  4.27290193  0.00722612
  -0.34137895  5.69591010  0.00946273
   3.35624236  2.13791198  0.00222492
   3.35573251  3.56155103  0.00139405
  -1.57394684  6.40758280  0.01310850
  -1.57385216  7.83068434  0.01437823
   5.82093107  2.13783916  0.01033241
   5.82114012  3.56096622  0.01155939
   0.89092245  6.40754561  0.00907111
   0.89106251  7.83067670  0.01235474
   4.58870974  4.27292622  0.00849795
   4.58852320  5.69606300  0.01149026
   9.51844972  0.00336679  0.01490402
   9.51855036  1.42644387  0.01438264
   8.28593477  2.13803408  0.01452582
   8.28612680  3.56114872  0.01463668
   7.05356221  4.27268994  0.01457444
   7.05362213  5.69588251  0.01552751
   5.82112285  6.40754723  0.01489279
   5.82101669  7.83073350  0.01578780
   7.05362858  8.54227219  0.01630582
  -5.27148792  9.96548729  0.01495127
  -2.80637951  8.54234295  0.01558431
  -2.80626749  9.96552896  0.01362126
  -0.34148805  8.54239058  0.01378498
  -0.34137657  9.96550309  0.01353576
   2.12342586  8.54231992  0.01336337
   2.12354296  9.96544135  0.01469111
   4.58845581  8.54235337  0.01505154
   4.58852904  9.96549848  0.01517076
   3.04929830  2.68153618  6.29960525
   4.02070129  2.02068374  6.36402711
   2.07766701  3.34267235  6.24015038
 


--------------------------------------------------------------------------------------------------------


 k-point   1 :   0.0000 0.0000 0.0000  plane waves:  189031

 maximum and minimum number of plane-waves per node :    189031   189031

 maximum number of plane-waves:    189031
 maximum index in each direction: 
   IXMAX=   31   IYMAX=   31   IZMAX=   51
   IXMIN=  -31   IYMIN=  -31   IZMIN=  -51


 serial   3D FFT for wavefunctions
 parallel 3D FFT for charge:
    minimum data exchange during FFTs selected (reduces bandwidth)


 total amount of memory used by VASP MPI-rank0   441788. kBytes
=======================================================================

   base      :      30000. kBytes
   nonl-proj :     184518. kBytes
   fftplans  :      31725. kBytes
   grid      :     168095. kBytes
   one-center:        162. kBytes
   wavefun   :      27288. kBytes
 
     INWAV:  cpu time    0.0000: real time    0.0000
 Broyden mixing: mesh for mixing (old mesh)
   NGX = 63   NGY = 63   NGZ =103
  (NGX  =256   NGY  =256   NGZ  =420)
  gives a total of 408807 points

 initial charge density was supplied:
 charge density of overlapping atoms calculated
 number of electron     216.0000000 magnetization 
 keeping initial charge density in first step


--------------------------------------------------------------------------------------------------------


 Maximum index for augmentation-charges          459 (set IRDMAX)


--------------------------------------------------------------------------------------------------------


 First call to EWALD:  gamma=   0.128
 Maximum number of real-space cells 3x 3x 2
 Maximum number of reciprocal cells 3x 3x 4

    FEWALD:  cpu time    0.0026: real time    0.0026


--------------------------------------- Iteration      1(   1)  ---------------------------------------


    POTLOK:  cpu time    0.5706: real time    0.5758
    SETDIJ:  cpu time    0.0061: real time    0.0062
    TRIAL :  cpu time   12.0212: real time   12.1216
    CORREC:  cpu time    0.0004: real time    0.0005
    --------------------------------------------
      LOOP:  cpu time   12.6077: real time   12.7282

 eigenvalue-minimisations  :   336
 total energy-change (2. order) : 0.2467268E+04  (-0.1172511E+05)
 number of electron     216.0000000 magnetization 
 augmentation part      216.0000000 magnetization 

 Free energy of the ion-electron system (eV)
  ---------------------------------------------------
  alpha Z        PSCENC =        59.93625244
  Ewald energy   TEWEN  =     30724.26977768
  -Hartree energ DENC   =    -36899.72034120
  -exchange      EXHF   =         0.00000000
  -V(xc)+E(xc)   XCENC  =       420.79856038
  PAW double counting   =      6525.96553977    -6260.36035765
  entropy T*S    EENTRO =        -0.00000000
  eigenvalues    EBANDS =      -473.14494834
  atomic energy  EATOM  =      8369.52358910
  ---------------------------------------------------
  free energy    TOTEN  =      2467.26807218 eV

  energy without entropy =     2467.26807218  energy(sigma->0) =     2467.26807218


--------------------------------------------------------------------------------------------------------




--------------------------------------- Iteration      1(   2)  ---------------------------------------


    TRIAL :  cpu time   18.0511: real time   18.2039
    CORREC:  cpu time    0.0001: real time    0.0001
    --------------------------------------------
      LOOP:  cpu time   18.1434: real time   18.2974

 eigenvalue-minimisations  :   560
 total energy-change (2. order) :-0.2384596E+04  (-0.2250330E+04)
 number of electron     216.0000000 magnetization 
 augmentation part      216.0000000 magnetization 

 Free energy of the ion-electron system (eV)
  ---------------------------------------------------
  alpha Z        PSCENC =        59.93625244
  Ewald energy   TEWEN  =     30724.26977768
  -Hartree energ DENC   =    -36899.72034120
  -exchange      EXHF   =         0.00000000
  -V(xc)+E(xc)   XCENC  =       420.79856038
  PAW double counting   =      6525.96553977    -6260.36035765
  entropy T*S    EENTRO =        -0.00000000
  eigenvalues    EBANDS =     -2857.74112534
  atomic energy  EATOM  =      8369.52358910
  ---------------------------------------------------
  free energy    TOTEN  =        82.67189517 eV

  energy without entropy =       82.67189517  energy(sigma->0) =       82.67189517


--------------------------------------------------------------------------------------------------------




--------------------------------------- Iteration      1(   3)  ---------------------------------------


    TRIAL :  cpu time   13.4865: real time   13.5995
    CORREC:  cpu time    0.0001: real time    0.0001
    --------------------------------------------
      LOOP:  cpu time   13.5565: real time   13.6869

 eigenvalue-minimisations  :   392
 total energy-change (2. order) :-0.5713809E+03  (-0.5684394E+03)
 number of electron     216.0000000 magnetization 
 augmentation part      216.0000000 magnetization 

 Free energy of the ion-electron system (eV)
  ---------------------------------------------------
  alpha Z        PSCENC =        59.93625244
  Ewald energy   TEWEN  =     30724.26977768
  -Hartree energ DENC   =    -36899.72034120
  -exchange      EXHF   =         0.00000000
  -V(xc)+E(xc)   XCENC  =       420.79856038
  PAW double counting   =      6525.96553977    -6260.36035765
  entropy T*S    EENTRO =        -0.00000000
  eigenvalues    EBANDS =     -3429.12201107
  atomic energy  EATOM  =      8369.52358910
  ---------------------------------------------------
  free energy    TOTEN  =      -488.70899056 eV

  energy without entropy =     -488.70899056  energy(sigma->0) =     -488.70899056


--------------------------------------------------------------------------------------------------------




--------------------------------------- Iteration      1(   4)  ---------------------------------------


    TRIAL :  cpu time   15.0124: real time   15.1418
    CORREC:  cpu time    0.0001: real time    0.0001
    --------------------------------------------
      LOOP:  cpu time   15.1009: real time   15.2329

 eigenvalue-minimisations  :   448
 total energy-change (2. order) :-0.2826813E+02  (-0.2808228E+02)
 number of electron     216.0000000 magnetization 
 augmentation part      216.0000000 magnetization 

 Free energy of the ion-electron system (eV)
  ---------------------------------------------------
  alpha Z        PSCENC =        59.93625244
  Ewald energy   TEWEN  =     30724.26977768
  -Hartree energ DENC   =    -36899.72034120
  -exchange      EXHF   =         0.00000000
  -V(xc)+E(xc)   XCENC  =       420.79856038
  PAW double counting   =      6525.96553977    -6260.36035765
  entropy T*S    EENTRO =        -0.00000000
  eigenvalues    EBANDS =     -3457.39014480
  atomic energy  EATOM  =      8369.52358910
  ---------------------------------------------------
  free energy    TOTEN  =      -516.97712428 eV

  energy without entropy =     -516.97712428  energy(sigma->0) =     -516.97712428


--------------------------------------------------------------------------------------------------------




--------------------------------------- Iteration      1(   5)  ---------------------------------------


    TRIAL :  cpu time   15.0074: real time   15.1237
    CORREC:  cpu time    0.0001: real time    0.0001
    CHARGE:  cpu time    0.6173: real time    0.6227
    --------------------------------------------
      LOOP:  cpu time   15.6869: real time   15.8297

 eigenvalue-minimisations  :   448
 total energy-change (2. order) :-0.1032755E+01  (-0.1027743E+01)
 number of electron     216.0000000 magnetization 
 augmentation part       -0.2760636 magnetization 

 Free energy of the ion-electron system (eV)
  ---------------------------------------------------
  alpha Z        PSCENC =        59.93625244
  Ewald energy   TEWEN  =     30724.26977768
  -Hartree energ DENC   =    -36899.72034120
  -exchange      EXHF   =         0.00000000
  -V(xc)+E(xc)   XCENC  =       420.79856038
  PAW double counting   =      6525.96553977    -6260.36035765
  entropy T*S    EENTRO =        -0.00000000
  eigenvalues    EBANDS =     -3458.42289988
  atomic energy  EATOM  =      8369.52358910
  ---------------------------------------------------
  free energy    TOTEN  =      -518.00987936 eV

  energy without entropy =     -518.00987936  energy(sigma->0) =     -518.00987936


--------------------------------------------------------------------------------------------------------




--------------------------------------- Iteration      1(   6)  ---------------------------------------


    POTLOK:  cpu time    0.5454: real time    0.5491
    SETDIJ:  cpu time    0.0097: real time    0.0097
    TRIAL :  cpu time    5.4194: real time    5.4634
    CORREC:  cpu time    1.7297: real time    1.7431
    CHARGE:  cpu time    0.6125: real time    0.6168
    --------------------------------------------
      LOOP:  cpu time    8.3633: real time    8.4447

 eigenvalue-minimisations  :     0
 total energy-change (2. order) : 0.5129451E+02  (-0.1533206E+02)
 number of electron     216.0000000 magnetization 
 augmentation part       -0.3767832 magnetization 

 Free energy of the ion-electron system (eV)
  ---------------------------------------------------
  alpha Z        PSCENC =        59.93625244
  Ewald energy   TEWEN  =     30724.26977768
  -Hartree energ DENC   =    -38308.51910023
  -exchange      EXHF   =         0.00000000
  -V(xc)+E(xc)   XCENC  =       469.01928183
  PAW double counting   =     90180.03878010   -89922.69497046
  entropy T*S    EENTRO =        -0.00000000
  eigenvalues    EBANDS =     -2038.28897634
  atomic energy  EATOM  =      8369.52358910
  ---------------------------------------------------
  free energy    TOTEN  =      -466.71536588 eV

  energy without entropy =     -466.71536588  energy(sigma->0) =     -466.71536588


--------------------------------------------------------------------------------------------------------




--------------------------------------- Iteration      1(   7)  ---------------------------------------


    POTLOK:  cpu time    0.5488: real time    0.5524
    SETDIJ:  cpu time    0.0105: real time    0.0105
    TRIAL :  cpu time    5.4200: real time    5.4638
    CORREC:  cpu time    1.7200: real time    1.7334
    CHARGE:  cpu time    0.6058: real time    0.6102
    --------------------------------------------
      LOOP:  cpu time    8.3447: real time    8.4112

 eigenvalue-minimisations  :     0
 total energy-change (2. order) :-0.1536250E+02  (-0.1838581E+01)
 number of electron     216.0000000 magnetization 
 augmentation part       -0.4227961 magnetization 

 Free energy of the ion-electron system (eV)
  ---------------------------------------------------
  alpha Z        PSCENC =        59.93625244
  Ewald energy   TEWEN  =     30724.26977768
  -Hartree energ DENC   =    -37822.86462098
  -exchange      EXHF   =         0.00000000
  -V(xc)+E(xc)   XCENC  =       452.39527181
  PAW double counting   =    106245.44045445  -105985.29303950
  entropy T*S    EENTRO =        -0.00000000
  eigenvalues    EBANDS =     -2525.48554768
  atomic energy  EATOM  =      8369.52358910
  ---------------------------------------------------
  free energy    TOTEN  =      -482.07786269 eV

  energy without entropy =     -482.07786269  energy(sigma->0) =     -482.07786269


--------------------------------------------------------------------------------------------------------




--------------------------------------- Iteration      1(   8)  ---------------------------------------


    POTLOK:  cpu time    0.5508: real time    0.5546
    SETDIJ:  cpu time    0.0106: real time    0.0107
    TRIAL :  cpu time    5.4154: real time    5.4616
    CORREC:  cpu time    1.7237: real time    1.7378
    CHARGE:  cpu time    0.6075: real time    0.6121
    --------------------------------------------
      LOOP:  cpu time    8.3467: real time    8.4164

 eigenvalue-minimisations  :     0
 total energy-change (2. order) :-0.1838329E+01  (-0.5277721E+00)
 number of electron     216.0000000 magnetization 
 augmentation part       -0.4361456 magnetization 

 Free energy of the ion-electron system (eV)
  ---------------------------------------------------
  alpha Z        PSCENC =        59.93625244
  Ewald energy   TEWEN  =     30724.26977768
  -Hartree energ DENC   =    -37794.27866256
  -exchange      EXHF   =         0.00000000
  -V(xc)+E(xc)   XCENC  =       451.71609743
  PAW double counting   =    110614.09951084  -110353.52928579
  entropy T*S    EENTRO =        -0.00000000
  eigenvalues    EBANDS =     -2555.65347079
  atomic energy  EATOM  =      8369.52358910
  ---------------------------------------------------
  free energy    TOTEN  =      -483.91619164 eV

  energy without entropy =     -483.91619164  energy(sigma->0) =     -483.91619164


--------------------------------------------------------------------------------------------------------




--------------------------------------- Iteration      1(   9)  ---------------------------------------


    POTLOK:  cpu time    0.5496: real time    0.5532
    SETDIJ:  cpu time    0.0108: real time    0.0109
    TRIAL :  cpu time    5.4230: real time    5.4689
    CORREC:  cpu time    1.7186: real time    1.7325
    CHARGE:  cpu time    0.6374: real time    0.6417
    --------------------------------------------
      LOOP:  cpu time    8.3647: real time    8.4391

 eigenvalue-minimisations  :     0
 total energy-change (2. order) :-0.5276701E+00  (-0.1939591E+00)
 number of electron     216.0000000 magnetization 
 augmentation part       -0.4410696 magnetization 

 Free energy of the ion-electron system (eV)
  ---------------------------------------------------
  alpha Z        PSCENC =        59.93625244
  Ewald energy   TEWEN  =     30724.26977768
  -Hartree energ DENC   =    -37806.18685690
  -exchange      EXHF   =         0.00000000
  -V(xc)+E(xc)   XCENC  =       451.76527866
  PAW double counting   =    113451.86495633  -113191.13430967
  entropy T*S    EENTRO =        -0.00000000
  eigenvalues    EBANDS =     -2544.48254936
  atomic energy  EATOM  =      8369.52358910
  ---------------------------------------------------
  free energy    TOTEN  =      -484.44386173 eV

  energy without entropy =     -484.44386173  energy(sigma->0) =     -484.44386173


--------------------------------------------------------------------------------------------------------




--------------------------------------- Iteration      1(  10)  ---------------------------------------


    POTLOK:  cpu time    0.5474: real time    0.5510
    SETDIJ:  cpu time    0.0107: real time    0.0107
    TRIAL :  cpu time    5.4146: real time    5.4603
    CORREC:  cpu time    1.7219: real time    1.7353
    CHARGE:  cpu time    0.6052: real time    0.6098
    --------------------------------------------
      LOOP:  cpu time    8.3379: real time    8.4167

 eigenvalue-minimisations  :     0
 total energy-change (2. order) :-0.1934633E+00  (-0.8559654E-01)
 number of electron     216.0000000 magnetization 
 augmentation part       -0.4394776 magnetization 

 Free energy of the ion-electron system (eV)
  ---------------------------------------------------
  alpha Z        PSCENC =        59.93625244
  Ewald energy   TEWEN  =     30724.26977768
  -Hartree energ DENC   =    -37804.46435048
  -exchange      EXHF   =         0.00000000
  -V(xc)+E(xc)   XCENC  =       451.60656819
  PAW double counting   =    113781.65185083  -113520.83611387
  entropy T*S    EENTRO =        -0.00000000
  eigenvalues    EBANDS =     -2546.32489888
  atomic energy  EATOM  =      8369.52358910
  ---------------------------------------------------
  free energy    TOTEN  =      -484.63732500 eV

  energy without entropy =     -484.63732500  energy(sigma->0) =     -484.63732500


--------------------------------------------------------------------------------------------------------




--------------------------------------- Iteration      1(  11)  ---------------------------------------


    POTLOK:  cpu time    0.5487: real time    0.5523
    SETDIJ:  cpu time    0.0108: real time    0.0109
    TRIAL :  cpu time    5.4091: real time    5.4591
    CORREC:  cpu time    1.7178: real time    1.7333
    CHARGE:  cpu time    0.6053: real time    0.6102
    --------------------------------------------
      LOOP:  cpu time    8.3681: real time    8.4434

 eigenvalue-minimisations  :     0
 total energy-change (2. order) :-0.8518967E-01  (-0.3240594E-01)
 number of electron     216.0000000 magnetization 
 augmentation part       -0.4375705 magnetization 

 Free energy of the ion-electron system (eV)
  ---------------------------------------------------
  alpha Z        PSCENC =        59.93625244
  Ewald energy   TEWEN  =     30724.26977768
  -Hartree energ DENC   =    -37797.38591921
  -exchange      EXHF   =         0.00000000
  -V(xc)+E(xc)   XCENC  =       451.47653146
  PAW double counting   =    113059.40943502  -112798.60306873
  entropy T*S    EENTRO =        -0.00000000
  eigenvalues    EBANDS =     -2553.34911243
  atomic energy  EATOM  =      8369.52358910
  ---------------------------------------------------
  free energy    TOTEN  =      -484.72251467 eV

  energy without entropy =     -484.72251467  energy(sigma->0) =     -484.72251467


--------------------------------------------------------------------------------------------------------




--------------------------------------- Iteration      1(  12)  ---------------------------------------


    POTLOK:  cpu time    0.5461: real time    0.5498
    SETDIJ:  cpu time    0.0106: real time    0.0107
    TRIAL :  cpu time    5.4155: real time    5.4596
    CORREC:  cpu time    1.7186: real time    1.7324
    CHARGE:  cpu time    0.6112: real time    0.6155
    --------------------------------------------
      LOOP:  cpu time    8.3474: real time    8.4184

 eigenvalue-minimisations  :     0
 total energy-change (2. order) :-0.3231817E-01  (-0.9977621E-02)
 number of electron     216.0000000 magnetization 
 augmentation part       -0.4373412 magnetization 

 Free energy of the ion-electron system (eV)
  ---------------------------------------------------
  alpha Z        PSCENC =        59.93625244
  Ewald energy   TEWEN  =     30724.26977768
  -Hartree energ DENC   =    -37793.73027057
  -exchange      EXHF   =         0.00000000
  -V(xc)+E(xc)   XCENC  =       451.40732310
  PAW double counting   =    112571.80247392  -112311.02595253
  entropy T*S    EENTRO =        -0.00000000
  eigenvalues    EBANDS =     -2556.93802598
  atomic energy  EATOM  =      8369.52358910
  ---------------------------------------------------
  free energy    TOTEN  =      -484.75483284 eV

  energy without entropy =     -484.75483284  energy(sigma->0) =     -484.75483284


--------------------------------------------------------------------------------------------------------




--------------------------------------- Iteration      1(  13)  ---------------------------------------


    POTLOK:  cpu time    0.5432: real time    0.5478
    SETDIJ:  cpu time    0.0104: real time    0.0105
    TRIAL :  cpu time    5.3893: real time    5.4572
    CORREC:  cpu time    1.7130: real time    1.7398
    CHARGE:  cpu time    0.6063: real time    0.6106
    --------------------------------------------
      LOOP:  cpu time    8.3719: real time    8.4776

 eigenvalue-minimisations  :     0
 total energy-change (2. order) :-0.9967043E-02  (-0.2602566E-02)
 number of electron     216.0000000 magnetization 
 augmentation part       -0.4371283 magnetization 

 Free energy of the ion-electron system (eV)
  ---------------------------------------------------
  alpha Z        PSCENC =        59.93625244
  Ewald energy   TEWEN  =     30724.26977768
  -Hartree energ DENC   =    -37792.87066345
  -exchange      EXHF   =         0.00000000
  -V(xc)+E(xc)   XCENC  =       451.37761168
  PAW double counting   =    112429.62749263  -112168.86139811
  entropy T*S    EENTRO =        -0.00000000
  eigenvalues    EBANDS =     -2557.76746186
  atomic energy  EATOM  =      8369.52358910
  ---------------------------------------------------
  free energy    TOTEN  =      -484.76479988 eV

  energy without entropy =     -484.76479988  energy(sigma->0) =     -484.76479988


--------------------------------------------------------------------------------------------------------




--------------------------------------- Iteration      1(  14)  ---------------------------------------


    POTLOK:  cpu time    0.5445: real time    0.5483
    SETDIJ:  cpu time    0.0107: real time    0.0107
    TRIAL :  cpu time    5.4210: real time    5.4652
    CORREC:  cpu time    1.7154: real time    1.7291
    CHARGE:  cpu time    0.6058: real time    0.6101
    --------------------------------------------
      LOOP:  cpu time    8.3868: real time    8.4539

 eigenvalue-minimisations  :     0
 total energy-change (2. order) :-0.2602130E-02  (-0.6659086E-03)
 number of electron     216.0000000 magnetization 
 augmentation part       -0.4369477 magnetization 

 Free energy of the ion-electron system (eV)
  ---------------------------------------------------
  alpha Z        PSCENC =        59.93625244
  Ewald energy   TEWEN  =     30724.26977768
  -Hartree energ DENC   =    -37792.71863913
  -exchange      EXHF   =         0.00000000
  -V(xc)+E(xc)   XCENC  =       451.37363967
  PAW double counting   =    112456.11154797  -112195.34790856
  entropy T*S    EENTRO =        -0.00000000
  eigenvalues    EBANDS =     -2557.91566118
  atomic energy  EATOM  =      8369.52358910
  ---------------------------------------------------
  free energy    TOTEN  =      -484.76740201 eV

  energy without entropy =     -484.76740201  energy(sigma->0) =     -484.76740201


--------------------------------------------------------------------------------------------------------




--------------------------------------- Iteration      1(  15)  ---------------------------------------


    POTLOK:  cpu time    0.5384: real time    0.5467
    SETDIJ:  cpu time    0.0104: real time    0.0105
    TRIAL :  cpu time    5.4043: real time    5.4577
    CORREC:  cpu time    1.7426: real time    1.7596
    CHARGE:  cpu time    0.6069: real time    0.6119
    --------------------------------------------
      LOOP:  cpu time    8.3239: real time    8.4827

 eigenvalue-minimisations  :     0
 total energy-change (2. order) :-0.6667026E-03  (-0.1991912E-03)
 number of electron     216.0000000 magnetization 
 augmentation part       -0.4367856 magnetization 

 Free energy of the ion-electron system (eV)
  ---------------------------------------------------
  alpha Z        PSCENC =        59.93625244
  Ewald energy   TEWEN  =     30724.26977768
  -Hartree energ DENC   =    -37792.52689706
  -exchange      EXHF   =         0.00000000
  -V(xc)+E(xc)   XCENC  =       451.36755494
  PAW double counting   =    112486.69550558  -112225.93129018
  entropy T*S    EENTRO =        -0.00000000
  eigenvalues    EBANDS =     -2558.10256121
  atomic energy  EATOM  =      8369.52358910
  ---------------------------------------------------
  free energy    TOTEN  =      -484.76806872 eV

  energy without entropy =     -484.76806872  energy(sigma->0) =     -484.76806872


--------------------------------------------------------------------------------------------------------




--------------------------------------- Iteration      1(  16)  ---------------------------------------


    POTLOK:  cpu time    0.5420: real time    0.5465
    SETDIJ:  cpu time    0.0108: real time    0.0109
    TRIAL :  cpu time    5.4116: real time    5.4639
    CORREC:  cpu time    1.7085: real time    1.7250
    CHARGE:  cpu time    0.6077: real time    0.6119
    --------------------------------------------
      LOOP:  cpu time    8.3255: real time    8.4137

 eigenvalue-minimisations  :     0
 total energy-change (2. order) :-0.1999293E-03  (-0.6638921E-04)
 number of electron     216.0000000 magnetization 
 augmentation part       -0.4366476 magnetization 

 Free energy of the ion-electron system (eV)
  ---------------------------------------------------
  alpha Z        PSCENC =        59.93625244
  Ewald energy   TEWEN  =     30724.26977768
  -Hartree energ DENC   =    -37792.58466789
  -exchange      EXHF   =         0.00000000
  -V(xc)+E(xc)   XCENC  =       451.36846817
  PAW double counting   =    112477.30029121  -112216.53598253
  entropy T*S    EENTRO =        -0.00000000
  eigenvalues    EBANDS =     -2558.04599682
  atomic energy  EATOM  =      8369.52358910
  ---------------------------------------------------
  free energy    TOTEN  =      -484.76826865 eV

  energy without entropy =     -484.76826865  energy(sigma->0) =     -484.76826865


--------------------------------------------------------------------------------------------------------




--------------------------------------- Iteration      1(  17)  ---------------------------------------


    POTLOK:  cpu time    0.5402: real time    0.5440
    SETDIJ:  cpu time    0.0132: real time    0.0133
    TRIAL :  cpu time    5.4055: real time    5.4498
    CORREC:  cpu time    1.7083: real time    1.7218
    CHARGE:  cpu time    0.6067: real time    0.6111
    --------------------------------------------
      LOOP:  cpu time    8.2975: real time    8.4140

 eigenvalue-minimisations  :     0
 total energy-change (2. order) :-0.6683926E-04  (-0.2442644E-04)
 number of electron     216.0000000 magnetization 
 augmentation part       -0.4366355 magnetization 

 Free energy of the ion-electron system (eV)
  ---------------------------------------------------
  alpha Z        PSCENC =        59.93625244
  Ewald energy   TEWEN  =     30724.26977768
  -Hartree energ DENC   =    -37792.75647068
  -exchange      EXHF   =         0.00000000
  -V(xc)+E(xc)   XCENC  =       451.37418110
  PAW double counting   =    112458.84219731  -112198.07843397
  entropy T*S    EENTRO =        -0.00000000
  eigenvalues    EBANDS =     -2557.87942846
  atomic energy  EATOM  =      8369.52358910
  ---------------------------------------------------
  free energy    TOTEN  =      -484.76833549 eV

  energy without entropy =     -484.76833549  energy(sigma->0) =     -484.76833549


--------------------------------------------------------------------------------------------------------




--------------------------------------- Iteration      1(  18)  ---------------------------------------


    POTLOK:  cpu time    0.5418: real time    0.5453
    SETDIJ:  cpu time    0.0105: real time    0.0105
    TRIAL :  cpu time    5.4106: real time    5.4542
    CORREC:  cpu time    1.7135: real time    1.7266
    CHARGE:  cpu time    0.6151: real time    0.6194
    --------------------------------------------
      LOOP:  cpu time    8.3671: real time    8.4332

 eigenvalue-minimisations  :     0
 total energy-change (2. order) :-0.2470471E-04  (-0.9072903E-05)
 number of electron     216.0000000 magnetization 
 augmentation part       -0.4366553 magnetization 

 Free energy of the ion-electron system (eV)
  ---------------------------------------------------
  alpha Z        PSCENC =        59.93625244
  Ewald energy   TEWEN  =     30724.26977768
  -Hartree energ DENC   =    -37792.77684558
  -exchange      EXHF   =         0.00000000
  -V(xc)+E(xc)   XCENC  =       451.37401170
  PAW double counting   =    112454.76401843  -112193.99983438
  entropy T*S    EENTRO =        -0.00000000
  eigenvalues    EBANDS =     -2557.85932958
  atomic energy  EATOM  =      8369.52358910
  ---------------------------------------------------
  free energy    TOTEN  =      -484.76836019 eV

  energy without entropy =     -484.76836019  energy(sigma->0) =     -484.76836019


--------------------------------------------------------------------------------------------------------




--------------------------------------- Iteration      1(  19)  ---------------------------------------


    POTLOK:  cpu time    0.5400: real time    0.5447
    SETDIJ:  cpu time    0.0105: real time    0.0105
    TRIAL :  cpu time    5.4102: real time    5.4626
    CORREC:  cpu time    1.7165: real time    1.7338
    CHARGE:  cpu time    0.6042: real time    0.6095
    --------------------------------------------
      LOOP:  cpu time    8.3739: real time    8.4567

 eigenvalue-minimisations  :     0
 total energy-change (2. order) :-0.8980671E-05  (-0.3580919E-05)
 number of electron     216.0000000 magnetization 
 augmentation part       -0.4366944 magnetization 

 Free energy of the ion-electron system (eV)
  ---------------------------------------------------
  alpha Z        PSCENC =        59.93625244
  Ewald energy   TEWEN  =     30724.26977768
  -Hartree energ DENC   =    -37792.80743413
  -exchange      EXHF   =         0.00000000
  -V(xc)+E(xc)   XCENC  =       451.37511526
  PAW double counting   =    112460.24469536  -112199.48037834
  entropy T*S    EENTRO =        -0.00000000
  eigenvalues    EBANDS =     -2557.82998654
  atomic energy  EATOM  =      8369.52358910
  ---------------------------------------------------
  free energy    TOTEN  =      -484.76836917 eV

  energy without entropy =     -484.76836917  energy(sigma->0) =     -484.76836917


--------------------------------------------------------------------------------------------------------




--------------------------------------- Iteration      1(  20)  ---------------------------------------


    POTLOK:  cpu time    0.5409: real time    0.5447
    SETDIJ:  cpu time    0.0105: real time    0.0105
    TRIAL :  cpu time    5.4104: real time    5.4693
    CORREC:  cpu time    1.7098: real time    1.7238
    CHARGE:  cpu time    0.6175: real time    0.6219
    --------------------------------------------
      LOOP:  cpu time    8.3552: real time    8.4462

 eigenvalue-minimisations  :     0
 total energy-change (2. order) :-0.3340436E-05  (-0.1248196E-05)
 number of electron     216.0000000 magnetization 
 augmentation part       -0.4367050 magnetization 

 Free energy of the ion-electron system (eV)
  ---------------------------------------------------
  alpha Z        PSCENC =        59.93625244
  Ewald energy   TEWEN  =     30724.26977768
  -Hartree energ DENC   =    -37792.82706021
  -exchange      EXHF   =         0.00000000
  -V(xc)+E(xc)   XCENC  =       451.37542682
  PAW double counting   =    112466.15959485  -112205.39511233
  entropy T*S    EENTRO =        -0.00000000
  eigenvalues    EBANDS =     -2557.81084086
  atomic energy  EATOM  =      8369.52358910
  ---------------------------------------------------
  free energy    TOTEN  =      -484.76837251 eV

  energy without entropy =     -484.76837251  energy(sigma->0) =     -484.76837251


--------------------------------------------------------------------------------------------------------




--------------------------------------- Iteration      1(  21)  ---------------------------------------


    POTLOK:  cpu time    0.5384: real time    0.5427
    SETDIJ:  cpu time    0.0104: real time    0.0104
    TRIAL :  cpu time    5.4052: real time    5.4533
    CORREC:  cpu time    1.7127: real time    1.7260
    CHARGE:  cpu time    0.6075: real time    0.6119
    --------------------------------------------
      LOOP:  cpu time    8.2771: real time    8.4346

 eigenvalue-minimisations  :     0
 total energy-change (2. order) :-0.1086679E-05  (-0.4772925E-06)
 number of electron     216.0000000 magnetization 
 augmentation part       -0.4367052 magnetization 

 Free energy of the ion-electron system (eV)
  ---------------------------------------------------
  alpha Z        PSCENC =        59.93625244
  Ewald energy   TEWEN  =     30724.26977768
  -Hartree energ DENC   =    -37792.83159367
  -exchange      EXHF   =         0.00000000
  -V(xc)+E(xc)   XCENC  =       451.37550999
  PAW double counting   =    112467.56515908  -112206.80069571
  entropy T*S    EENTRO =        -0.00000000
  eigenvalues    EBANDS =     -2557.80637251
  atomic energy  EATOM  =      8369.52358910
  ---------------------------------------------------
  free energy    TOTEN  =      -484.76837360 eV

  energy without entropy =     -484.76837360  energy(sigma->0) =     -484.76837360


--------------------------------------------------------------------------------------------------------




--------------------------------------- Iteration      1(  22)  ---------------------------------------


    POTLOK:  cpu time    0.5401: real time    0.5438
    SETDIJ:  cpu time    0.0105: real time    0.0106
    TRIAL :  cpu time    5.4170: real time    5.4619
    CORREC:  cpu time    1.6954: real time    1.7274
    CHARGE:  cpu time    0.6064: real time    0.6110
    --------------------------------------------
      LOOP:  cpu time    8.3048: real time    8.4311

 eigenvalue-minimisations  :     0
 total energy-change (2. order) :-0.4165631E-06  (-0.2300955E-06)
 number of electron     216.0000000 magnetization 
 augmentation part       -0.4367022 magnetization 

 Free energy of the ion-electron system (eV)
  ---------------------------------------------------
  alpha Z        PSCENC =        59.93625244
  Ewald energy   TEWEN  =     30724.26977768
  -Hartree energ DENC   =    -37792.82568089
  -exchange      EXHF   =         0.00000000
  -V(xc)+E(xc)   XCENC  =       451.37527024
  PAW double counting   =    112466.56647898  -112205.80204213
  entropy T*S    EENTRO =        -0.00000000
  eigenvalues    EBANDS =     -2557.81201943
  atomic energy  EATOM  =      8369.52358910
  ---------------------------------------------------
  free energy    TOTEN  =      -484.76837401 eV

  energy without entropy =     -484.76837401  energy(sigma->0) =     -484.76837401


--------------------------------------------------------------------------------------------------------




--------------------------------------- Iteration      1(  23)  ---------------------------------------


    POTLOK:  cpu time    0.5411: real time    0.5447
    SETDIJ:  cpu time    0.0107: real time    0.0107
    TRIAL :  cpu time    5.4331: real time    5.4781
    CORREC:  cpu time    1.7104: real time    1.7240
    CHARGE:  cpu time    0.6065: real time    0.6108
    --------------------------------------------
      LOOP:  cpu time    8.3761: real time    8.4442

 eigenvalue-minimisations  :     0
 total energy-change (2. order) :-0.1878361E-06  (-0.1537420E-06)
 number of electron     216.0000000 magnetization 
 augmentation part       -0.4367007 magnetization 

 Free energy of the ion-electron system (eV)
  ---------------------------------------------------
  alpha Z        PSCENC =        59.93625244
  Ewald energy   TEWEN  =     30724.26977768
  -Hartree energ DENC   =    -37792.82148844
  -exchange      EXHF   =         0.00000000
  -V(xc)+E(xc)   XCENC  =       451.37518563
  PAW double counting   =    112465.37162302  -112204.60722265
  entropy T*S    EENTRO =        -0.00000000
  eigenvalues    EBANDS =     -2557.81609099
  atomic energy  EATOM  =      8369.52358910
  ---------------------------------------------------
  free energy    TOTEN  =      -484.76837420 eV

  energy without entropy =     -484.76837420  energy(sigma->0) =     -484.76837420


--------------------------------------------------------------------------------------------------------




--------------------------------------- Iteration      1(  24)  ---------------------------------------


    POTLOK:  cpu time    0.5452: real time    0.5489
    SETDIJ:  cpu time    0.0105: real time    0.0106
    TRIAL :  cpu time    5.4068: real time    5.4556
    CORREC:  cpu time    1.7118: real time    1.7253
    CHARGE:  cpu time    0.6078: real time    0.6122
    --------------------------------------------
      LOOP:  cpu time    8.3132: real time    8.3976

 eigenvalue-minimisations  :     0
 total energy-change (2. order) :-0.5957554E-07  (-0.1042459E-06)
 number of electron     216.0000000 magnetization 
 augmentation part       -0.4367038 magnetization 

 Free energy of the ion-electron system (eV)
  ---------------------------------------------------
  alpha Z        PSCENC =        59.93625244
  Ewald energy   TEWEN  =     30724.26977768
  -Hartree energ DENC   =    -37792.81644595
  -exchange      EXHF   =         0.00000000
  -V(xc)+E(xc)   XCENC  =       451.37513504
  PAW double counting   =    112464.41216320  -112203.64778228
  entropy T*S    EENTRO =        -0.00000000
  eigenvalues    EBANDS =     -2557.82106348
  atomic energy  EATOM  =      8369.52358910
  ---------------------------------------------------
  free energy    TOTEN  =      -484.76837426 eV

  energy without entropy =     -484.76837426  energy(sigma->0) =     -484.76837426


--------------------------------------------------------------------------------------------------------




--------------------------------------- Iteration      1(  25)  ---------------------------------------


    POTLOK:  cpu time    0.5394: real time    0.5431
    SETDIJ:  cpu time    0.0106: real time    0.0106
    TRIAL :  cpu time    5.4088: real time    5.4528
    CORREC:  cpu time    1.7125: real time    1.7262
    EDDIAG:  cpu time    0.8513: real time    0.8584
    CHARGE:  cpu time    0.6092: real time    0.6135
    --------------------------------------------
      LOOP:  cpu time    9.1346: real time    9.2641

 eigenvalue-minimisations  :     0
 total energy-change (2. order) :-0.4757021E-07  (-0.5040472E-07)
 number of electron     216.0000000 magnetization 
 augmentation part       -0.4367030 magnetization 

 Free energy of the ion-electron system (eV)
  ---------------------------------------------------
  alpha Z        PSCENC =        59.93625244
  Ewald energy   TEWEN  =     30724.26977768
  -Hartree energ DENC   =    -37792.81604937
  -exchange      EXHF   =         0.00000000
  -V(xc)+E(xc)   XCENC  =       451.37506991
  PAW double counting   =    112464.60457451  -112203.84016535
  entropy T*S    EENTRO =        -0.00000000
  eigenvalues    EBANDS =     -2557.82142322
  atomic energy  EATOM  =      8369.52358910
  ---------------------------------------------------
  free energy    TOTEN  =      -484.76837431 eV

  energy without entropy =     -484.76837431  energy(sigma->0) =     -484.76837431


--------------------------------------------------------------------------------------------------------


  average scaling for gradient   0.8126


 average (electrostatic) potential at core
  the test charge radii are     0.5770  0.5955
  (the norm of the test charge is              1.0000)
       1 -85.2915       2 -85.2908       3 -85.2920       4 -85.2931       5 -85.2897
       6 -85.2894       7 -85.2919       8 -85.2902       9 -85.2905      10 -85.2914
      11 -85.2894      12 -85.2896      13 -85.2913      14 -85.2903      15 -85.2893
      16 -85.2897      17 -85.2903      18 -85.2909      19 -85.2914      20 -85.2904
      21 -85.2893      22 -85.2890      23 -85.2937      24 -85.2936      25 -85.2891
      26 -85.2895      27 -85.2906      28 -85.2920      29 -85.2893      30 -85.2892
      31 -85.2926      32 -85.2916      33 -85.2899      34 -85.2895      35 -85.2896
      36 -85.2899      37 -85.2907      38 -85.2912      39 -85.2912      40 -85.2911
      41 -85.2911      42 -85.2914      43 -85.2904      44 -85.2915      45 -85.2892
      46 -85.2895      47 -85.2896      48 -85.2894      49 -85.2911      50 -85.2905
      51 -89.2283      52-120.0072      53-120.0072
 
 
 
 E-fermi :  -3.9190     XC(G=0):  -2.4166     alpha+bet : -2.1113

 Fermi energy:        -3.9190360283

 k-point     1 :       0.0000    0.0000    0.0000
  band No.  band energies     occupation 
      1     -27.3293      2.00000
      2     -26.3241      2.00000
      3     -22.0405      2.00000
      4     -21.1010      2.00000
      5     -21.1001      2.00000
      6     -21.0999      2.00000
      7     -21.0991      2.00000
      8     -21.0990      2.00000
      9     -21.0989      2.00000
     10     -19.2560      2.00000
     11     -19.2560      2.00000
     12     -19.2557      2.00000
     13     -19.2551      2.00000
     14     -19.2548      2.00000
     15     -19.2546      2.00000
     16     -18.3581      2.00000
     17     -18.3580      2.00000
     18     -18.3577      2.00000
     19     -18.3572      2.00000
     20     -18.3567      2.00000
     21     -18.3565      2.00000
     22     -16.1902      2.00000
     23     -16.1899      2.00000
     24     -16.1891      2.00000
     25     -16.1889      2.00000
     26     -16.1884      2.00000
     27     -16.1884      2.00000
     28     -15.2042      2.00000
     29     -15.2042      2.00000
     30     -15.2034      2.00000
     31     -15.2032      2.00000
     32     -15.2028      2.00000
     33     -15.2027      2.00000
     34     -13.8507      2.00000
     35     -13.8506      2.00000
     36     -13.8500      2.00000
     37     -13.8498      2.00000
     38     -13.8497      2.00000
     39     -13.8496      2.00000
     40     -12.1327      2.00000
     41     -11.4617      2.00000
     42     -11.4615      2.00000
     43     -11.4610      2.00000
     44     -11.4610      2.00000
     45     -11.4599      2.00000
     46     -11.4597      2.00000
     47     -11.3648      2.00000
     48     -11.3647      2.00000
     49     -11.3641      2.00000
     50     -11.3641      2.00000
     51     -11.3637      2.00000
     52     -11.3635      2.00000
     53     -10.9431      2.00000
     54     -10.8785      2.00000
     55     -10.8784      2.00000
     56     -10.1323      2.00000
     57      -9.9877      2.00000
     58      -9.9876      2.00000
     59      -9.9860      2.00000
     60      -9.9857      2.00000
     61      -9.9855      2.00000
     62      -9.9854      2.00000
     63      -9.0164      2.00000
     64      -9.0161      2.00000
     65      -9.0161      2.00000
     66      -9.0148      2.00000
     67      -9.0141      2.00000
     68      -9.0141      2.00000
     69      -8.7075      2.00000
     70      -8.7072      2.00000
     71      -8.7066      2.00000
     72      -8.7065      2.00000
     73      -8.7060      2.00000
     74      -8.7059      2.00000
     75      -8.6590      2.00000
     76      -8.6588      2.00000
     77      -8.6583      2.00000
     78      -8.6582      2.00000
     79      -8.6579      2.00000
     80      -8.6571      2.00000
     81      -7.3318      2.00000
     82      -7.3317      2.00000
     83      -7.0517      2.00000
     84      -7.0501      2.00000
     85      -7.0499      2.00000
     86      -7.0494      2.00000
     87      -7.0484      2.00000
     88      -7.0483      2.00000
     89      -6.8866      2.00000
     90      -6.8861      2.00000
     91      -6.8860      2.00000
     92      -6.8857      2.00000
     93      -6.8856      2.00000
     94      -6.8855      2.00000
     95      -5.9903      2.00000
     96      -5.9898      2.00000
[...]
     30     C        0.00019042
     31     C       -0.00029739
     32     C       -0.00017985
     33     C        0.00012189
     34     C        0.00014408
     35     C        0.00015948
     36     C        0.00012032
     37     C       -0.00000343
     38     C       -0.00000520
     39     C       -0.00009176
     40     C       -0.00004817
     41     C       -0.00005744
     42     C       -0.00013885
     43     C        0.00004835
     44     C       -0.00004932
     45     C        0.00019331
     46     C        0.00017235
     47     C        0.00013998
     48     C        0.00016490
     49     C        0.00001428
     50     C        0.00002233
     51     C        0.29465466
     52     O       -0.14755496
     53     O       -0.14755705

  Atomic reference data used in the T-S method for vdW correction:
            C6at              R0at           ALPHAat      REFSTATE
            (au)              (au)            (au)                
   ---------------------------------------------------------------
   C          46.600          3.590         12.000         0
   O          15.600          3.194          5.400         0
 
 Nth order contribution to Edisp (eV)
 Edisp(N=2):  -4.42266821783281     
 Edisp(N=3):  0.299015128273293     
 Edisp(N=4): -0.467414554506844     
 Edisp(N=5):  0.199925404403642     
 Edisp(N=6): -0.190137173215483     
 Edisp(N=inf):  -4.51098295987485     

  Tkatchenko/Scheffler method for vdW energy calculation
  ---------------------------------------------------------------------------------------------

  Parameters of vdW forcefield:
            C6ts              R0ts          ALPHAts         R0scs        ALPHAscs        RELVOL 
            (au)              (au)           (au)            (au)          (au)                 
   ---------------------------------------------------------------------------------------------
   C          32.901          3.388         10.083          3.266          9.032          0.840
   C          32.907          3.388         10.084          3.266          9.032          0.840
   C          32.920          3.388         10.086          3.266          9.034          0.841
   C          32.942          3.389         10.089          3.266          9.033          0.841
   C          32.893          3.388         10.082          3.266          9.030          0.840
   C          32.890          3.388         10.081          3.266          9.029          0.840
   C          32.932          3.389         10.088          3.267          9.037          0.841
   C          32.930          3.389         10.088          3.267          9.039          0.841
   C          32.914          3.388         10.085          3.266          9.035          0.840
   C          32.936          3.389         10.088          3.267          9.040          0.841
   C          32.885          3.388         10.081          3.266          9.032          0.840
   C          32.885          3.388         10.081          3.266          9.031          0.840
   C          32.939          3.389         10.089          3.267          9.039          0.841
   C          32.913          3.388         10.085          3.266          9.033          0.840
   C          32.889          3.388         10.081          3.265          9.027          0.840
   C          32.896          3.388         10.082          3.266          9.029          0.840
   C          32.890          3.388         10.081          3.266          9.031          0.840
   C          32.893          3.388         10.082          3.266          9.030          0.840
   C          32.906          3.388         10.084          3.266          9.032          0.840
   C          32.893          3.388         10.082          3.266          9.031          0.840
   C          32.901          3.388         10.083          3.266          9.030          0.840
   C          32.890          3.388         10.081          3.265          9.027          0.840
   C          32.954          3.389         10.091          3.266          9.034          0.841
   C          32.951          3.389         10.091          3.266          9.034          0.841
   C          32.883          3.388         10.080          3.266          9.032          0.840
   C          32.885          3.388         10.081          3.266          9.031          0.840
   C          32.920          3.388         10.086          3.267          9.037          0.840
   C          32.918          3.388         10.086          3.266          9.035          0.840
   C          32.894          3.388         10.082          3.266          9.029          0.840
   C          32.885          3.388         10.081          3.266          9.032          0.840
   C          32.931          3.389         10.088          3.266          9.034          0.841
   C          32.912          3.388         10.085          3.266          9.034          0.840
   C          32.886          3.388         10.081          3.266          9.031          0.840
   C          32.886          3.388         10.081          3.266          9.032          0.840
   C          32.888          3.388         10.081          3.266          9.031          0.840
   C          32.889          3.388         10.081          3.266          9.031          0.840
   C          32.899          3.388         10.083          3.266          9.031          0.840
   C          32.896          3.388         10.082          3.266          9.031          0.840
   C          32.901          3.388         10.083          3.266          9.033          0.840
   C          32.897          3.388         10.082          3.266          9.032          0.840
   C          32.898          3.388         10.083          3.266          9.032          0.840
   C          32.906          3.388         10.084          3.266          9.034          0.840
   C          32.894          3.388         10.082          3.266          9.030          0.840
   C          32.910          3.388         10.084          3.266          9.033          0.840
   C          32.885          3.388         10.081          3.266          9.031          0.840
   C          32.893          3.388         10.082          3.266          9.029          0.840
   C          32.886          3.388         10.081          3.266          9.031          0.840
   C          32.884          3.388         10.080          3.266          9.032          0.840
   C          32.893          3.388         10.082          3.266          9.031          0.840
   C          32.892          3.388         10.082          3.266          9.031          0.840
   C          26.359          3.265          9.025          3.200          8.492          0.752
   O          12.445          3.076          4.823          3.035          4.635          0.893
   O          12.442          3.075          4.823          3.035          4.635          0.893

  vdW correction parametrized for the method pbe       

  IVDW = 202
  VDW_RADIUS =    50.000 A
  VDW_SR =     0.830
  VDW_D =     6.000
  SCSRAD =   120.000 A
  LVDWSCS = T
  LSCSGRAD = T
  LSCALER0 = T
  ITIM = -1
  Edisp (eV):   -4.51098
    FORVDW:  cpu time   18.1983: real time   18.3183

 VOLUME and BASIS-vectors are now :
 -----------------------------------------------------------------------------
  energy-cutoff  :     1000.00
  volume of cell :     2631.08
      direct lattice vectors                 reciprocal lattice vectors
    12.325000000  0.000000000  0.000000000     0.081135903  0.046843835  0.000000000
    -6.162500000 10.673763102  0.000000000     0.000000000  0.093687670  0.000000000
     0.000000000  0.000000000 20.000000000     0.000000000  0.000000000  0.050000000

  length of vectors
    12.325000000 12.325000000 20.000000000     0.093687670  0.093687670  0.050000000


 FORCES acting on ions:
    Electron-Ion                     Ewald-Force                    Non-Local-Force
 -----------------------------------------------------------------------------------------------
   0.218E+01 0.189E+01 0.150E+02   -.218E+01 -.189E+01 -.150E+02   0.596E-02 -.828E-03 0.669E-02
   0.308E+01 0.153E+01 0.170E+02   -.309E+01 -.152E+01 -.170E+02   0.535E-02 -.371E-02 -.547E-02
   0.127E+01 0.346E+01 0.180E+02   -.128E+01 -.346E+01 -.180E+02   -.294E-03 0.136E-01 0.133E-02
   0.163E+01 0.236E+01 0.221E+02   -.163E+01 -.236E+01 -.221E+02   0.132E-01 0.145E-02 -.107E-01
   0.233E+01 0.564E+00 0.153E+02   -.233E+01 -.563E+00 -.153E+02   0.732E-03 -.639E-02 0.229E-02
   0.238E+01 -.495E+00 0.155E+02   -.239E+01 0.498E+00 -.155E+02   -.623E-02 0.288E-02 -.449E-02
   0.314E+01 0.117E+01 0.213E+02   -.315E+01 -.116E+01 -.213E+02   0.144E-01 -.203E-01 -.456E-02
   0.307E+01 -.109E+01 0.224E+02   -.308E+01 0.109E+01 -.224E+02   -.432E-02 -.706E-02 -.570E-02
   -.155E+01 0.316E+01 0.182E+02   0.155E+01 -.316E+01 -.182E+02   -.206E-02 -.110E-01 -.513E-02
   -.221E+01 0.187E+01 0.219E+02   0.222E+01 -.187E+01 -.219E+02   -.285E-01 0.167E-01 0.409E-02
   0.613E+00 -.629E+00 0.138E+02   -.610E+00 0.629E+00 -.138E+02   0.315E-02 -.269E-02 -.115E-02
   0.552E+00 -.465E+00 0.134E+02   -.550E+00 0.465E+00 -.134E+02   -.783E-02 0.374E-02 0.505E-02
   0.116E+01 -.255E+01 0.238E+02   -.117E+01 0.255E+01 -.238E+02   0.292E-01 -.964E-02 -.636E-03
   0.692E+00 -.351E+01 0.193E+02   -.698E+00 0.351E+01 -.193E+02   0.570E-02 0.490E-02 -.162E-01
   -.213E+01 0.130E+01 0.148E+02   0.213E+01 -.130E+01 -.148E+02   0.720E-02 -.360E-02 0.563E-02
   -.283E+01 0.839E+00 0.156E+02   0.283E+01 -.840E+00 -.156E+02   -.313E-02 0.629E-02 -.636E-02
   -.392E+00 -.154E+00 0.129E+02   0.397E+00 0.151E+00 -.129E+02   -.145E-02 0.794E-03 0.173E-02
   0.173E+00 0.134E+01 0.132E+02   -.172E+00 -.134E+01 -.132E+02   -.373E-02 0.218E-02 0.923E-02
   -.548E+00 -.336E+01 0.169E+02   0.546E+00 0.337E+01 -.169E+02   0.732E-02 -.292E-02 0.821E-03
   -.307E+00 -.199E+01 0.142E+02   0.303E+00 0.199E+01 -.142E+02   0.109E-02 -.196E-02 -.933E-03
   0.309E+01 -.136E+01 0.179E+02   -.309E+01 0.136E+01 -.179E+02   -.192E-03 -.344E-02 -.184E-01
   0.213E+01 -.174E+01 0.162E+02   -.213E+01 0.174E+01 -.162E+02   -.654E-02 0.514E-02 -.418E-02
   -.572E+00 0.106E+01 0.248E+02   0.570E+00 -.106E+01 -.248E+02   -.112E-01 0.114E-01 0.586E-02
   -.768E+00 -.166E+01 0.246E+02   0.769E+00 0.166E+01 -.245E+02   0.128E-01 -.162E-01 -.587E-02
   0.115E+01 -.439E+00 0.139E+02   -.115E+01 0.437E+00 -.139E+02   0.303E-02 -.237E-02 -.459E-02
   0.286E+00 0.100E+01 0.139E+02   -.284E+00 -.100E+01 -.139E+02   -.618E-02 0.407E-02 0.446E-02
   -.349E+01 0.467E+00 0.190E+02   0.350E+01 -.471E+00 -.190E+02   0.938E-02 0.904E-02 -.217E-02
   -.334E+01 -.133E+01 0.182E+02   0.335E+01 0.132E+01 -.182E+02   -.108E-01 0.970E-02 0.202E-02
   0.124E+01 -.248E+01 0.165E+02   -.124E+01 0.248E+01 -.165E+02   0.584E-02 0.158E-02 -.840E-02
   0.105E+00 -.108E+01 0.144E+02   -.108E+00 0.108E+01 -.144E+02   -.430E-02 0.235E-02 -.363E-02
   -.241E+01 -.249E+01 0.201E+02   0.241E+01 0.249E+01 -.201E+02   -.133E-01 -.894E-02 -.962E-02
   -.171E+01 -.319E+01 0.171E+02   0.171E+01 0.319E+01 -.171E+02   0.665E-03 -.270E-02 0.363E-02
   0.150E+00 0.622E+00 0.133E+02   -.151E+00 -.622E+00 -.133E+02   0.602E-02 -.507E-02 0.639E-02
   0.390E+00 0.595E+00 0.137E+02   -.393E+00 -.594E+00 -.137E+02   -.191E-02 0.436E-02 -.209E-02
   -.148E+01 0.254E+00 0.142E+02   0.148E+01 -.255E+00 -.142E+02   0.382E-02 -.217E-02 0.473E-02
   -.131E+01 -.574E+00 0.141E+02   0.131E+01 0.573E+00 -.141E+02   -.517E-02 0.289E-02 0.292E-02
   -.252E+01 -.132E+01 0.150E+02   0.252E+01 0.132E+01 -.150E+02   -.283E-02 0.122E-02 0.337E-02
   -.164E+01 -.131E+01 0.139E+02   0.164E+01 0.131E+01 -.139E+02   -.502E-02 0.133E-02 0.924E-02
   -.149E+01 -.190E+01 0.143E+02   0.149E+01 0.190E+01 -.144E+02   -.373E-02 -.291E-03 0.547E-02
   -.226E+00 -.505E+00 0.134E+02   0.226E+00 0.505E+00 -.134E+02   0.210E-02 0.276E-03 0.772E-02
   0.559E+00 0.140E+01 0.135E+02   -.560E+00 -.140E+01 -.135E+02   -.419E-02 0.244E-02 0.732E-02
   0.170E+01 0.264E+01 0.152E+02   -.170E+01 -.264E+01 -.152E+02   0.238E-03 -.869E-04 0.871E-02
   0.166E+00 0.234E+01 0.141E+02   -.161E+00 -.234E+01 -.141E+02   -.137E-02 0.200E-02 0.184E-02
   -.412E-01 0.352E+01 0.168E+02   0.440E-01 -.352E+01 -.168E+02   -.947E-02 0.333E-02 0.571E-02
   -.443E+00 0.840E+00 0.142E+02   0.445E+00 -.842E+00 -.142E+02   0.374E-02 -.274E-02 0.422E-06
   -.168E+01 0.206E+01 0.155E+02   0.168E+01 -.206E+01 -.155E+02   -.744E-02 0.113E-02 -.295E-02
   -.411E+00 -.101E+01 0.139E+02   0.409E+00 0.101E+01 -.139E+02   0.725E-02 -.171E-02 0.499E-02
   -.910E+00 0.333E+00 0.133E+02   0.907E+00 -.332E+00 -.133E+02   -.305E-02 0.314E-02 -.407E-02
   0.983E-01 -.628E+00 0.133E+02   -.995E-01 0.629E+00 -.133E+02   0.494E-02 -.345E-02 0.581E-02
   0.995E+00 0.709E+00 0.133E+02   -.999E+00 -.707E+00 -.133E+02   0.959E-03 0.142E-02 0.316E-02
   0.825E-02 0.154E-01 -.203E+03   -.118E-01 -.120E-01 0.203E+03   -.298E-02 0.194E-02 -.299E-02
   -.229E+03 0.156E+03 -.316E+03   0.279E+03 -.190E+03 0.320E+03   -.511E+02 0.348E+02 -.343E+01
   0.229E+03 -.156E+03 -.297E+03   -.279E+03 0.190E+03 0.293E+03   0.511E+02 -.348E+02 0.309E+01
 -----------------------------------------------------------------------------------------------
   -.586E-02 0.129E-01 0.342E+00   0.000E+00 0.284E-13 0.114E-12   0.659E-02 -.134E-01 -.341E+00
 
 
 POSITION                                       TOTAL-FORCE (eV/Angst)
 -----------------------------------------------------------------------------------
     11.98348      0.00342      0.01417         0.003037     -0.001528     -0.001120
     -0.34154      1.42665      0.01100        -0.000957     -0.000021     -0.003361
      2.12355      0.00315      0.01249        -0.001617      0.010371     -0.006325
      2.12326      1.42653      0.00641         0.012927      0.001180     -0.007846
     10.75099      2.13819      0.01213         0.000144     -0.005550     -0.000078
     -1.57382      3.56123      0.01110        -0.008780      0.004928     -0.001450
      0.89078      2.13854      0.00548         0.009145     -0.018687      0.002725
      0.89099      3.56147      0.00181        -0.012262     -0.002165      0.012265
      4.58864      0.00346      0.01135         0.003898     -0.016099     -0.003433
      4.58894      1.42623      0.00646        -0.023067      0.012967      0.014243
      9.51854      4.27281      0.01369         0.006630     -0.003193      0.000091
     -2.80632      5.69591      0.01434        -0.006387      0.003343      0.000689
      2.12300      4.27302      0.00000         0.024510     -0.004733      0.021014
      2.12335      5.69594      0.00581        -0.000799      0.009416     -0.002424
      7.05344      0.00333      0.01399         0.009285     -0.005226     -0.000421
      7.05353      1.42635      0.01368        -0.001554      0.004884     -0.003918
      8.28610      6.40752      0.01601         0.003095     -0.001528     -0.000953
     -4.03885      7.83070      0.01636        -0.002091      0.000840     -0.000242
      3.35586      6.40753      0.01007         0.005154      0.000617     -0.001219
      3.35599      7.83072      0.01320        -0.003342      0.000157     -0.000730
     -0.34146      4.27290      0.00723        -0.002035     -0.001338     -0.004367
     -0.34138      5.69591      0.00946        -0.009189      0.006405     -0.001013
      3.35624      2.13791      0.00222        -0.013157      0.011698      0.016764
      3.35573      3.56155      0.00139         0.013289     -0.015557      0.009190
     -1.57395      6.40758      0.01311         0.005573     -0.003973     -0.000704
     -1.57385      7.83068      0.01438        -0.004720      0.003678     -0.000049
      5.82093      2.13784      0.01033         0.016390      0.005003     -0.002771
      5.82114      3.56097      0.01156        -0.006011      0.008247     -0.003625
      0.89092      6.40755      0.00907         0.004386      0.002409     -0.002180
      0.89106      7.83068      0.01235        -0.006961      0.003741      0.000280
      4.58871      4.27293      0.00850        -0.012539     -0.006410     -0.010535
      4.58852      5.69606      0.01149         0.001909     -0.000785     -0.003908
      9.51845      0.00337      0.01490         0.004568     -0.004590      0.000089
      9.51855      1.42644      0.01438        -0.005131      0.005562     -0.000456
      8.28593      2.13803      0.01453         0.006566     -0.003511      0.000502
      8.28613      3.56115      0.01464        -0.004163      0.002151     -0.000162
      7.05356      4.27269      0.01457         0.002857     -0.001140     -0.000759
      7.05362      5.69588      0.01553        -0.002361      0.001499     -0.000216
      5.82112      6.40755      0.01489        -0.002816      0.001664     -0.000198
      5.82102      7.83073      0.01579         0.002683      0.000350     -0.000416
      7.05363      8.54227      0.01631        -0.004640      0.001153      0.000898
     -5.27149      9.96549      0.01495        -0.000057     -0.002140     -0.002235
     -2.80638      8.54234      0.01558         0.003313     -0.001492     -0.001360
     -2.80627      9.96553      0.01362        -0.006408     -0.000240     -0.003832
     -0.34149      8.54239      0.01378         0.005839     -0.004739      0.000138
     -0.34138      9.96550      0.01354        -0.005812     -0.000167     -0.001356
      2.12343      8.54232      0.01336         0.005687     -0.001444      0.000719
      2.12354      9.96544      0.01469        -0.005339      0.003880     -0.002021
      4.58846      8.54235      0.01505         0.003578     -0.002761      0.000866
      4.58853      9.96550      0.01517        -0.002973      0.003392      0.000018
      3.04930      2.68154      6.29961        -0.006366      0.005211      0.032152
      4.02070      2.02068      6.36403        -0.530133      0.360261     -0.052469
      2.07767      3.34267      6.24015         0.537207     -0.365993      0.015513
 -----------------------------------------------------------------------------------
    total drift:                                0.000733     -0.000490      0.000769


--------------------------------------------------------------------------------------------------------



  FREE ENERGIE OF THE ION-ELECTRON SYSTEM (eV)
  ---------------------------------------------------
  free  energy   TOTEN  =      -489.27935727 eV

  energy  without entropy=     -489.27935727  energy(sigma->0) =     -489.27935727
 


--------------------------------------------------------------------------------------------------------


    POTLOK:  cpu time    0.5673: real time    0.5714


--------------------------------------------------------------------------------------------------------


     LOOP+:  cpu time  287.0289: real time  290.0852
    4ORBIT:  cpu time    0.0000: real time    0.0000

 total amount of memory used by VASP MPI-rank0   441788. kBytes
=======================================================================

   base      :      30000. kBytes
   nonl-proj :     184518. kBytes
   fftplans  :      31725. kBytes
   grid      :     168095. kBytes
   one-center:        162. kBytes
   wavefun   :      27288. kBytes
 
  
  
 General timing and accounting informations for this job:
 ========================================================
  
                  Total CPU time used (sec):      325.482
                            User time (sec):      305.633
                          System time (sec):       19.849
                         Elapsed time (sec):      329.998
  
                   Maximum memory used (kb):      885796.
                   Average memory used (kb):          N/A
  
                          Minor page faults:        99018
                          Major page faults:           88
                 Voluntary context switches:         3605
