 vasp.6.2.1 16May21 (build Nov 06 2021 14:46:37) complex                        
  
 executed on             LinuxIFC date 2025.04.16  16:46:55
 running on  112 total cores
 distrk:  each k-point on   56 cores,    2 groups
 distr:  one band on NCORE=   1 cores,   56 groups


--------------------------------------------------------------------------------------------------------


 INCAR:
   ALGO = Conjugate
   KPAR = 2
   NCORE = 32
   PREC = Accurate
   EDIFF = 1E-7
   ENCUT = 1000
   ISMEAR = 0
   SIGMA = 0.01
   ISIF = 0
   GGA = PE
   IVDW = 202
   LVDWEXPANSION = .TRUE.
   LWAVE = .FALSE.
   LCHARGE = .FALSE.
   SYMPREC = 1E-7

 POTCAR:    PAW_PBE C_h 06Feb2004                 
 POTCAR:    PAW_PBE O_h 06Feb2004                 
 -----------------------------------------------------------------------------
|                                                                             |
|           W    W    AA    RRRRR   N    N  II  N    N   GGGG   !!!           |
|           W    W   A  A   R    R  NN   N  II  NN   N  G    G  !!!           |
|           W    W  A    A  R    R  N N  N  II  N N  N  G       !!!           |
|           W WW W  AAAAAA  RRRRR   N  N N  II  N  N N  G  GGG   !            |
|           WW  WW  A    A  R   R   N   NN  II  N   NN  G    G                |
|           W    W  A    A  R    R  N    N  II  N    N   GGGG   !!!           |
|                                                                             |
|     The value NCORE = 32 specified in the INCAR file was overwritten,       |
|     because it was not compatible with the 56 processes available:          |
|     NCORE = 1                                                               |
|     was used instead, please check that this makes sense for your           |
|     machine.                                                                |
|                                                                             |
 -----------------------------------------------------------------------------

 -----------------------------------------------------------------------------
|                                                                             |
|           W    W    AA    RRRRR   N    N  II  N    N   GGGG   !!!           |
|           W    W   A  A   R    R  NN   N  II  NN   N  G    G  !!!           |
|           W    W  A    A  R    R  N N  N  II  N N  N  G       !!!           |
|           W WW W  AAAAAA  RRRRR   N  N N  II  N  N N  G  GGG   !            |
|           WW  WW  A    A  R   R   N   NN  II  N   NN  G    G                |
|           W    W  A    A  R    R  N    N  II  N    N   GGGG   !!!           |
|                                                                             |
|     For optimal performance we recommend to set                             |
|       NCORE = 2 up to number-of-cores-per-socket                            |
|     NCORE specifies how many cores store one orbital (NPAR=cpu/NCORE).      |
|     This setting can greatly improve the performance of VASP for DFT.       |
|     The default, NCORE=1 might be grossly inefficient on modern             |
|     multi-core architectures or massively parallel machines. Do your        |
|     own testing! More info at https://www.vasp.at/wiki/index.php/NCORE      |
|     Unfortunately you need to use the default for GW and RPA                |
|     calculations (for HF NCORE is supported but not extensively tested      |
|     yet).                                                                   |
|                                                                             |
 -----------------------------------------------------------------------------

 POTCAR:    PAW_PBE C_h 06Feb2004                 
   VRHFIN =C: s2p2                                                                                  
   LEXCH  = PE                                                                                      
   EATOM  =   147.1560 eV,   10.8157 Ry                                                             
                                                                                                    
   TITEL  = PAW_PBE C_h 06Feb2004                                                                   
   LULTRA =        F    use ultrasoft PP ?                                                          
   IUNSCR =        1    unscreen: 0-lin 1-nonlin 2-no                                               
   RPACOR =    0.800    partial core radius                                                         
   POMASS =   12.011; ZVAL   =    4.000    mass and valenz                                          
   RCORE  =    1.100    outmost cutoff radius                                                       
   RWIGS  =    1.630; RWIGS  =    0.863    wigner-seitz radius (au A)                               
   ENMAX  =  700.000; ENMIN  =  500.000 eV                                                          
   ICORE  =        2    local potential                                                             
   LCOR   =        T    correct aug charges                                                         
   LPAW   =        T    paw PP                                                                      
   EAUG   =  946.768                                                                                
   DEXC   =    0.000                                                                                
   RMAX   =    1.128    core radius for proj-oper                                                   
   RAUG   =    1.300    factor for augmentation sphere                                              
   RDEP   =    1.162    radius for radial grids                                                     
   RDEPT  =    1.088    core radius for aug-charge                                                  
                                                                                                    
   Atomic configuration                                                                             
    4 entries                                                                                       
     n  l   j            E        occ.                                                              
     1  0  0.50      -273.3789   2.0000                                                             
     2  0  0.50       -13.7508   2.0000                                                             
     2  1  0.50        -5.2854   2.0000                                                             
     3  2  1.50        -5.4423   0.0000                                                             
   Description                                                                                      
     l       E           TYP  RCUT    TYP  RCUT                                                     
     0    -13.7508458     23  1.100                                                                 
     0     -8.2022199     23  1.100                                                                 
     1     -5.2854383     23  1.100                                                                 
     1      1.1560700     23  1.100                                                                 
     2     -5.4423304      7  1.100                                                                 
  local pseudopotential read in
  partial core-charges read in
  partial kinetic energy density read in
  atomic valenz-charges read in
  non local Contribution for L=           0  read in
    real space projection operators read in
  non local Contribution for L=           0  read in
    real space projection operators read in
  non local Contribution for L=           1  read in
    real space projection operators read in
  non local Contribution for L=           1  read in
    real space projection operators read in
    PAW grid and wavefunctions read in
 
   number of l-projection  operators is LMAX  =           4
   number of lm-projection operators is LMMAX =           8
 
 POTCAR:    PAW_PBE O_h 06Feb2004                 
   VRHFIN =O: s2p4                                                                                  
   LEXCH  = PE                                                                                      
   EATOM  =   432.3788 eV,   31.7789 Ry                                                             
                                                                                                    
   TITEL  = PAW_PBE O_h 06Feb2004                                                                   
   LULTRA =        F    use ultrasoft PP ?                                                          
   IUNSCR =        1    unscreen: 0-lin 1-nonlin 2-no                                               
   RPACOR =    0.800    partial core radius                                                         
   POMASS =   16.000; ZVAL   =    6.000    mass and valenz                                          
   RCORE  =    1.100    outmost cutoff radius                                                       
   RWIGS  =    1.400; RWIGS  =    0.741    wigner-seitz radius (au A)                               
   ENMAX  =  700.000; ENMIN  =  500.000 eV                                                          
   ICORE  =        2    local potential                                                             
   LCOR   =        T    correct aug charges                                                         
   LPAW   =        T    paw PP                                                                      
   EAUG   =  888.804                                                                                
   DEXC   =    0.000                                                                                
   RMAX   =    1.128    core radius for proj-oper                                                   
   RAUG   =    1.300    factor for augmentation sphere                                              
   RDEP   =    1.125    radius for radial grids                                                     
   RDEPT  =    1.088    core radius for aug-charge                                                  
                                                                                                    
   Atomic configuration                                                                             
    4 entries                                                                                       
     n  l   j            E        occ.                                                              
     1  0  0.50      -514.6923   2.0000                                                             
     2  0  0.50       -23.9615   2.0000                                                             
     2  1  0.50        -9.0305   4.0000                                                             
     3  2  1.50        -9.5241   0.0000                                                             
   Description                                                                                      
     l       E           TYP  RCUT    TYP  RCUT                                                     
     0    -23.9615319     23  1.100                                                                 
     0    -25.3221145     23  1.100                                                                 
     1     -9.0304911     23  1.100                                                                 
     1     -5.4802209     23  1.100                                                                 
     2     -9.5240782      7  1.100                                                                 
  local pseudopotential read in
  partial core-charges read in
  partial kinetic energy density read in
  atomic valenz-charges read in
  non local Contribution for L=           0  read in
    real space projection operators read in
  non local Contribution for L=           0  read in
    real space projection operators read in
  non local Contribution for L=           1  read in
    real space projection operators read in
  non local Contribution for L=           1  read in
    real space projection operators read in
    PAW grid and wavefunctions read in
 
   number of l-projection  operators is LMAX  =           4
   number of lm-projection operators is LMMAX =           8
 
 -----------------------------------------------------------------------------
|                                                                             |
|               ----> ADVICE to this user running VASP <----                  |
|                                                                             |
|     You have a (more or less) 'large supercell' and for larger cells it     |
|     might be more efficient to use real-space projection operators.         |
|     Therefore, try LREAL= Auto in the INCAR file.                           |
|     Mind: For very accurate calculation, you might also keep the            |
|     reciprocal projection scheme (i.e. LREAL=.FALSE.).                      |
|                                                                             |
 -----------------------------------------------------------------------------

  PAW_PBE C_h 06Feb2004                 :
 energy of atom  1       EATOM= -147.1560
 kinetic energy error for atom=    0.0031 (will be added to EATOM!!)
  PAW_PBE O_h 06Feb2004                 :
 energy of atom  2       EATOM= -432.3788
 kinetic energy error for atom=    0.0171 (will be added to EATOM!!)
 
 
 POSCAR:  C  O
  positions in cartesian coordinates
  No initial velocities read in
 exchange correlation table for  LEXCH =        8
   RHO(1)=    0.500       N(1)  =     2000
   RHO(2)=  100.500       N(2)  =     4000
 


--------------------------------------------------------------------------------------------------------


 ion  position               nearest neighbor table
   1  0.972  0.000  0.001-  50 1.42   2 1.42  42 1.42
   2  0.039  0.134  0.000-   5 1.42   7 1.42   1 1.42
   3  0.172  0.000  0.000-  42 1.42  44 1.42   4 1.42
   4  0.239  0.134  0.000-   7 1.42   3 1.42  23 1.42
   5  0.972  0.200  0.000-   6 1.42   2 1.42  34 1.42
   6  0.039  0.334  0.000-   5 1.42  21 1.42  11 1.42
   7  0.172  0.200  0.000-   8 1.42   2 1.42   4 1.42
   8  0.239  0.334  0.000-  13 1.42   7 1.42  21 1.42
   9  0.372  0.000  0.000-  10 1.42  44 1.42  46 1.42
  10  0.439  0.134  0.000-  27 1.42   9 1.42  23 1.42
  11  0.972  0.400  0.001-  12 1.42  36 1.42   6 1.42
  12  0.039  0.534  0.001-  25 1.42  11 1.42  17 1.42
  13  0.372  0.400  0.000-   8 1.42  14 1.42  24 1.42
  14  0.439  0.534  0.000-  13 1.42  29 1.42  19 1.42
  15  0.572  0.000  0.001-  46 1.42  16 1.42  48 1.42
  16  0.639  0.134  0.001-  15 1.42  35 1.42  27 1.42
  17  0.972  0.600  0.001-  38 1.42  18 1.42  12 1.42
  18  0.039  0.734  0.001-  43 1.42  41 1.42  17 1.42
  19  0.572  0.600  0.000-  14 1.42  20 1.42  32 1.42
  20  0.639  0.734  0.001-  49 1.42  19 1.42  47 1.42
  21  0.172  0.400  0.000-  22 1.42   8 1.42   6 1.42
  22  0.239  0.534  0.000-  21 1.42  29 1.42  25 1.42
  23  0.372  0.200  0.000-  10 1.42   4 1.42  24 1.42
  24  0.439  0.334  0.000-  13 1.42  31 1.42  23 1.42
  25  0.172  0.600  0.001-  26 1.42  12 1.42  22 1.42
  26  0.239  0.734  0.001-  25 1.42  45 1.42  43 1.42
  27  0.572  0.200  0.000-  10 1.42  28 1.42  16 1.42
  28  0.639  0.334  0.000-  27 1.42  37 1.42  31 1.42
  29  0.372  0.600  0.000-  22 1.42  14 1.42  30 1.42
  30  0.439  0.734  0.000-  47 1.42  29 1.42  45 1.42
  31  0.572  0.400  0.000-  32 1.42  28 1.42  24 1.42
  32  0.639  0.534  0.000-  31 1.42  39 1.42  19 1.42
  33  0.772  0.000  0.001-  34 1.42  48 1.42  50 1.42
  34  0.839  0.134  0.001-  33 1.42   5 1.42  35 1.42
  35  0.772  0.200  0.001-  36 1.42  16 1.42  34 1.42
  36  0.839  0.334  0.001-  35 1.42  11 1.42  37 1.42
  37  0.772  0.400  0.001-  28 1.42  38 1.42  36 1.42
  38  0.839  0.534  0.001-  17 1.42  37 1.42  39 1.42
  39  0.772  0.600  0.001-  40 1.42  38 1.42  32 1.42
  40  0.839  0.734  0.001-  39 1.42  49 1.42  41 1.42
  41  0.972  0.800  0.001-  18 1.42  42 1.42  40 1.42
  42  0.039  0.934  0.001-   3 1.42  41 1.42   1 1.42
  43  0.172  0.800  0.001-  18 1.42  44 1.42  26 1.42
  44  0.239  0.934  0.001-   9 1.42  43 1.42   3 1.42
  45  0.372  0.800  0.001-  26 1.42  46 1.42  30 1.42
  46  0.439  0.934  0.001-  15 1.42  45 1.42   9 1.42
  47  0.572  0.800  0.001-  30 1.42  48 1.42  20 1.42
  48  0.639  0.934  0.001-  47 1.42  33 1.42  15 1.42
  49  0.772  0.800  0.001-  50 1.42  20 1.42  40 1.42
  50  0.839  0.934  0.001-  49 1.42   1 1.42  33 1.42
  51  0.373  0.251  0.100-  52 1.18  53 1.18
  52  0.421  0.189  0.103-  51 1.18
  53  0.325  0.313  0.098-  51 1.18
 
  LATTYP: Found a hexagonal cell.
 ALAT       =    12.3250000000
 C/A-ratio  =     2.0283975659
  
  Lattice vectors:
  
 A1 = (  12.3250000000,   0.0000000000,   0.0000000000)
 A2 = (  -6.1625000000,  10.6737631016,   0.0000000000)
 A3 = (   0.0000000000,   0.0000000000,  25.0000000000)


Analysis of symmetry for initial positions (statically):
=====================================================================
 Subroutine PRICEL returns:
 Original cell was already a primitive cell.
 

 Routine SETGRP: Setting up the symmetry group for a 
 hexagonal supercell.


 Subroutine GETGRP returns: Found  1 space group operations
 (whereof  1 operations were pure point group operations)
 out of a pool of 24 trial point group operations.


The static configuration has the point symmetry C_1 .


Analysis of symmetry for dynamics (positions and initial velocities):
=====================================================================
 Subroutine PRICEL returns:
 Original cell was already a primitive cell.
 

 Routine SETGRP: Setting up the symmetry group for a 
 hexagonal supercell.


 Subroutine GETGRP returns: Found  1 space group operations
 (whereof  1 operations were pure point group operations)
 out of a pool of 24 trial point group operations.


The dynamic configuration has the point symmetry C_1 .


 Subroutine INISYM returns: Found  1 space group operations
 (whereof  1 operations are pure point group operations),
 and found     1 'primitive' translations


----------------------------------------------------------------------------------------

                                     Primitive cell                                     

  volume of cell :    3288.8533

  direct lattice vectors                    reciprocal lattice vectors
    12.325000000  0.000000000  0.000000000     0.081135903  0.046843835  0.000000000
    -6.162500000 10.673763102  0.000000000     0.000000000  0.093687670  0.000000000
     0.000000000  0.000000000 25.000000000     0.000000000  0.000000000  0.040000000

  length of vectors
    12.325000000 12.325000000 25.000000000     0.093687670  0.093687670  0.040000000

  position of ions in fractional coordinates (direct lattice)
     0.972450841  0.000320818  0.000566711
     0.039118382  0.133659505  0.000440173
     0.172443627  0.000295449  0.000499628
     0.239096278  0.133647917  0.000256468
     0.972452058  0.200322012  0.000485219
     0.039128360  0.333643771  0.000444150
     0.172451764  0.200354552  0.000219167
     0.239124359  0.333665720  0.000072260
     0.372465565  0.000324403  0.000453913
     0.439137473  0.133619939  0.000258338
     0.972449824  0.400309362  0.000547611
     0.039124981  0.533636789  0.000573410
     0.372416176  0.400329481  0.000000000
     0.439099602  0.533638981  0.000232414
     0.572443676  0.000312125  0.000559580
     0.639110207  0.133631751  0.000547275
     0.972452703  0.600305653  0.000640289
     0.039124495  0.733640359  0.000654513
     0.572433471  0.600306242  0.000402895
     0.639111888  0.733641879  0.000527905
     0.172454630  0.400318228  0.000289045
     0.239120185  0.533636548  0.000378509
     0.372459750  0.200295993  0.000088997
     0.439107096  0.333673419  0.000055762
     0.172452155  0.600311506  0.000524340
     0.239123371  0.733638574  0.000575129
     0.572431082  0.200289171  0.000413296
     0.639112773  0.333618630  0.000462376
     0.372439808  0.600308022  0.000362844
     0.439116090  0.733637858  0.000494190
     0.572469358  0.400320504  0.000339918
     0.639119408  0.533650873  0.000459610
     0.772445723  0.000315427  0.000596161
     0.839116277  0.133640203  0.000575306
     0.772440513  0.200307432  0.000581033
     0.839120241  0.333635728  0.000585467
     0.772446320  0.400298367  0.000582978
     0.839118980  0.533633964  0.000621100
     0.772456143  0.600308173  0.000595712
     0.839115033  0.733643180  0.000631512
     0.972455313  0.800305582  0.000652233
     0.039114714  0.933643289  0.000598051
     0.172457971  0.800312211  0.000623372
     0.239134551  0.933647193  0.000544850
     0.372451396  0.800316674  0.000551399
     0.439124489  0.933644769  0.000541430
     0.572441101  0.800310054  0.000534535
     0.639115067  0.933638985  0.000587644
     0.772445098  0.800313187  0.000602062
     0.839116614  0.933644338  0.000606830
     0.373021009  0.251226878  0.100000000
     0.420879805  0.189313152  0.102576874
     0.325156981  0.313167186  0.097621805

  ion indices of the primitive-cell ions
   primitive index   ion index
                 1           1
                 2           2
                 3           3
                 4           4
                 5           5
                 6           6
                 7           7
                 8           8
                 9           9
                10          10
                11          11
                12          12
                13          13
                14          14
                15          15
                16          16
                17          17
                18          18
                19          19
                20          20
                21          21
                22          22
                23          23
                24          24
                25          25
                26          26
                27          27
                28          28
                29          29
                30          30
                31          31
                32          32
                33          33
                34          34
                35          35
                36          36
                37          37
                38          38
                39          39
                40          40
                41          41
                42          42
                43          43
                44          44
                45          45
                46          46
                47          47
                48          48
                49          49
                50          50
                51          51
                52          52
                53          53

----------------------------------------------------------------------------------------

 
 
 KPOINTS: auto                                    

Automatic generation of k-mesh.
 Grid dimensions read from file:
 generate k-points for:    1    1    1

 Generating k-lattice:

  Cartesian coordinates                     Fractional coordinates (reciprocal lattice)
     0.081135903  0.046843835  0.000000000     1.000000000 -0.000000000  0.000000000
     0.000000000  0.093687670  0.000000000     0.000000000  1.000000000  0.000000000
     0.000000000  0.000000000  0.040000000     0.000000000  0.000000000  1.000000000

  Length of vectors
     0.093687670  0.093687670  0.040000000

  Shift w.r.t. Gamma in fractional coordinates (k-lattice)
     0.000000000  0.000000000  0.000000000

 
 Subroutine IBZKPT returns following result:
 ===========================================
 
 Found      1 irreducible k-points:
 
 Following reciprocal coordinates:
            Coordinates               Weight
  0.000000  0.000000  0.000000      1.000000
 
 Following cartesian coordinates:
            Coordinates               Weight
  0.000000  0.000000  0.000000      1.000000
 


--------------------------------------------------------------------------------------------------------




 Dimension of arrays:
   k-points           NKPTS =      1   k-points in BZ     NKDIM =      1   number of bands    NBANDS=    168
   number of dos      NEDOS =    301   number of ions     NIONS =     53
   non local maximal  LDIM  =      4   non local SUM 2l+1 LMDIM =      8
   total plane-waves  NPLWV = ******
   max r-space proj   IRMAX =      1   max aug-charges    IRDMAX=  10008
   dimension x,y,z NGX =   128 NGY =  128 NGZ =  270
   dimension x,y,z NGXF=   256 NGYF=  256 NGZF=  540
   support grid    NGXF=   256 NGYF=  256 NGZF=  540
   ions per type =              51   2
   NGX,Y,Z   is equivalent  to a cutoff of  17.27, 17.27, 17.95 a.u.
   NGXF,Y,Z  is equivalent  to a cutoff of  34.53, 34.53, 35.91 a.u.

 SYSTEM =  unknown system                          
 POSCAR =   C  O                                   

 Startparameter for this run:
   NWRITE =      2    write-flag & timer
   PREC   = accura    normal or accurate (medium, high low for compatibility)
   ISTART =      0    job   : 0-new  1-cont  2-samecut
   ICHARG =      2    charge: 1-file 2-atom 10-const
   ISPIN  =      1    spin polarized calculation?
   LNONCOLLINEAR =      F non collinear calculations
   LSORBIT =      F    spin-orbit coupling
   INIWAV =      1    electr: 0-lowe 1-rand  2-diag
   LASPH  =      F    aspherical Exc in radial PAW
 Electronic Relaxation 1
   ENCUT  = 1000.0 eV  73.50 Ry    8.57 a.u.  31.78 31.78 64.46*2*pi/ulx,y,z
   ENINI  = 1000.0     initial cutoff
   ENAUG  =  946.8 eV  augmentation charge cutoff
   NELM   =     60;   NELMIN=  2; NELMDL= -5     # of ELM steps 
   EDIFF  = 0.1E-06   stopping-criterion for ELM
   LREAL  =      F    real-space projection
   NLSPLINE    = F    spline interpolate recip. space projectors
   LCOMPAT=      F    compatible to vasp.4.4
   GGA_COMPAT  = T    GGA compatible to vasp.4.4-vasp.4.6
   LMAXPAW     = -100 max onsite density
   LMAXMIX     =    2 max onsite mixed and CHGCAR
   VOSKOWN=      0    Vosko Wilk Nusair interpolation
   ROPT   =    0.00000   0.00000
 Ionic relaxation
   EDIFFG = 0.1E-05   stopping-criterion for IOM
   NSW    =      0    number of steps for IOM
   NBLOCK =      1;   KBLOCK =      1    inner block; outer block 
   IBRION =     -1    ionic relax: 0-MD 1-quasi-New 2-CG
   NFREE  =      0    steps in history (QN), initial steepest desc. (CG)
   ISIF   =      0    stress and relaxation
   IWAVPR =     10    prediction:  0-non 1-charg 2-wave 3-comb
   ISYM   =      2    0-nonsym 1-usesym 2-fastsym
   LCORR  =      T    Harris-Foulkes like correction to forces

   POTIM  = 0.5000    time-step for ionic-motion
   TEIN   =    0.0    initial temperature
   TEBEG  =    0.0;   TEEND  =   0.0 temperature during run
   SMASS  =  -3.00    Nose mass-parameter (am)
   estimated Nose-frequenzy (Omega)   =  0.10E-29 period in steps = 0.13E+47 mass=  -0.347E-26a.u.
   SCALEE = 1.0000    scale energy and forces
   NPACO  =    256;   APACO  = 16.0  distance and # of slots for P.C.
   PSTRESS=    0.0 pullay stress

  Mass of Ions in am
   POMASS =  12.01 16.00
  Ionic Valenz
   ZVAL   =   4.00  6.00
  Atomic Wigner-Seitz radii
   RWIGS  =  -1.00 -1.00
  virtual crystal weights 
   VCA    =   1.00  1.00
   NELECT =     216.0000    total number of electrons
   NUPDOWN=      -1.0000    fix difference up-down

 DOS related values:
   EMIN   =  10.00;   EMAX   =-10.00  energy-range for DOS
   EFERMI =   0.00
   ISMEAR =     0;   SIGMA  =   0.01  broadening in eV -4-tet -1-fermi 0-gaus

 Electronic relaxation 2 (details)
   IALGO  =     58    algorithm
   LDIAG  =      T    sub-space diagonalisation (order eigenvalues)
   LSUBROT=      F    optimize rotation matrix (better conditioning)
   TURBO    =      0    0=normal 1=particle mesh
   IRESTART =      0    0=no restart 2=restart with 2 vectors
   NREBOOT  =      0    no. of reboots
   NMIN     =      0    reboot dimension
   EREF     =   0.00    reference energy to select bands
   IMIX   =      4    mixing-type and parameters
     AMIX     =   0.40;   BMIX     =  1.00
     AMIX_MAG =   1.60;   BMIX_MAG =  1.00
     AMIN     =   0.10
     WC   =   100.;   INIMIX=   1;  MIXPRE=   1;  MAXMIX= -45

 Intra band minimization:
   WEIMIN = 0.0000     energy-eigenvalue tresh-hold
   EBREAK =  0.15E-09  absolut break condition
   DEPER  =   0.30     relativ break condition  

   TIME   =   0.40     timestep for ELM

  volume/ion in A,a.u.               =      62.05       418.76
  Fermi-wavevector in a.u.,A,eV,Ry     =   0.660508  1.248179  5.935820  0.436270
  Thomas-Fermi vector in A             =   1.732977
 
 Write flags
   LWAVE        =      F    write WAVECAR
   LDOWNSAMPLE  =      F    k-point downsampling of WAVECAR
   LCHARG       =      T    write CHGCAR
   LVTOT        =      F    write LOCPOT, total local potential
   LVHAR        =      F    write LOCPOT, Hartree potential only
   LELF         =      F    write electronic localiz. function (ELF)
   LORBIT       =      0    0 simple, 1 ext, 2 COOP (PROOUT), +10 PAW based schemes


 Dipole corrections
   LMONO  =      F    monopole corrections only (constant potential shift)
   LDIPOL =      F    correct potential (dipole corrections)
   IDIPOL =      0    1-x, 2-y, 3-z, 4-all directions 
   EPSILON=  1.0000000 bulk dielectric constant

 Exchange correlation treatment:
   GGA     =    PE    GGA type
   LEXCH   =     8    internal setting for exchange type
   VOSKOWN=      0    Vosko Wilk Nusair interpolation
   LHFCALC =     F    Hartree Fock is set to
   LHFONE  =     F    Hartree Fock one center treatment
   AEXX    =    0.0000 exact exchange contribution

 Linear response parameters
   LEPSILON=     F    determine dielectric tensor
   LRPA    =     F    only Hartree local field effects (RPA)
   LNABLA  =     F    use nabla operator in PAW spheres
   LVEL    =     F    velocity operator in full k-point grid
   LINTERFAST=   F  fast interpolation
   KINTER  =     0    interpolate to denser k-point grid
   CSHIFT  =0.1000    complex shift for real part using Kramers Kronig
   OMEGAMAX=  -1.0    maximum frequency
   DEG_THRESHOLD= 0.2000000E-02 threshold for treating states as degnerate
   RTIME   =   -0.100 relaxation time in fs
  (WPLASMAI=    0.000 imaginary part of plasma frequency in eV, 0.658/RTIME)
   DFIELD  = 0.0000000 0.0000000 0.0000000 field for delta impulse in time
 
 Orbital magnetization related:
   ORBITALMAG=     F  switch on orbital magnetization
   LCHIMAG   =     F  perturbation theory with respect to B field
   DQ        =  0.001000  dq finite difference perturbation B field
   LLRAUG    =     F  two centre corrections for induced B field



--------------------------------------------------------------------------------------------------------


 Static calculation
 charge density and potential will be updated during run
 non-spin polarized calculation
 Conjugate gradient for all bands (Freysoldt, et al. PRB 79, 241103 (2009))
 preconditioned conjugated gradient                                        
 perform sub-space diagonalisation
    before iterative eigenvector-optimisation
 modified Broyden-mixing scheme, WC =      100.0
 initial mixing is a Kerker type mixing with AMIX =  0.4000 and BMIX =      1.0000
 Hartree-type preconditioning will be used
 using additional bands           60
 reciprocal scheme for non local part
 use partial core corrections
 no Harris-corrections to forces 
 use gradient corrections 
 use of overlap-Matrix (Vanderbilt PP)
 Gauss-broadening in eV      SIGMA  =   0.01


--------------------------------------------------------------------------------------------------------


  energy-cutoff  :     1000.00
  volume of cell :     3288.85
      direct lattice vectors                 reciprocal lattice vectors
    12.325000000  0.000000000  0.000000000     0.081135903  0.046843835  0.000000000
    -6.162500000 10.673763102  0.000000000     0.000000000  0.093687670  0.000000000
     0.000000000  0.000000000 25.000000000     0.000000000  0.000000000  0.040000000

  length of vectors
    12.325000000 12.325000000 25.000000000     0.093687670  0.093687670  0.040000000


 
 k-points in units of 2pi/SCALE and weight: auto                                    
   0.00000000  0.00000000  0.00000000       1.000
 
 k-points in reciprocal lattice and weights: auto                                    
   0.00000000  0.00000000  0.00000000       1.000
 
 position of ions in fractional coordinates (direct lattice) 
   0.97245084  0.00032082  0.00056671
   0.03911838  0.13365950  0.00044017
   0.17244363  0.00029545  0.00049963
   0.23909628  0.13364792  0.00025647
   0.97245206  0.20032201  0.00048522
   0.03912836  0.33364377  0.00044415
   0.17245176  0.20035455  0.00021917
   0.23912436  0.33366572  0.00007226
   0.37246557  0.00032440  0.00045391
   0.43913747  0.13361994  0.00025834
   0.97244982  0.40030936  0.00054761
   0.03912498  0.53363679  0.00057341
   0.37241618  0.40032948  0.00000000
   0.43909960  0.53363898  0.00023241
   0.57244368  0.00031213  0.00055958
   0.63911021  0.13363175  0.00054727
   0.97245270  0.60030565  0.00064029
   0.03912449  0.73364036  0.00065451
   0.57243347  0.60030624  0.00040289
   0.63911189  0.73364188  0.00052791
   0.17245463  0.40031823  0.00028904
   0.23912018  0.53363655  0.00037851
   0.37245975  0.20029599  0.00008900
   0.43910710  0.33367342  0.00005576
   0.17245216  0.60031151  0.00052434
   0.23912337  0.73363857  0.00057513
   0.57243108  0.20028917  0.00041330
   0.63911277  0.33361863  0.00046238
   0.37243981  0.60030802  0.00036284
   0.43911609  0.73363786  0.00049419
   0.57246936  0.40032050  0.00033992
   0.63911941  0.53365087  0.00045961
   0.77244572  0.00031543  0.00059616
   0.83911628  0.13364020  0.00057531
   0.77244051  0.20030743  0.00058103
   0.83912024  0.33363573  0.00058547
   0.77244632  0.40029837  0.00058298
   0.83911898  0.53363396  0.00062110
   0.77245614  0.60030817  0.00059571
   0.83911503  0.73364318  0.00063151
   0.97245531  0.80030558  0.00065223
   0.03911471  0.93364329  0.00059805
   0.17245797  0.80031221  0.00062337
   0.23913455  0.93364719  0.00054485
   0.37245140  0.80031667  0.00055140
   0.43912449  0.93364477  0.00054143
   0.57244110  0.80031005  0.00053453
   0.63911507  0.93363899  0.00058764
   0.77244510  0.80031319  0.00060206
   0.83911661  0.93364434  0.00060683
   0.37302101  0.25122688  0.10000000
   0.42087980  0.18931315  0.10257687
   0.32515698  0.31316719  0.09762181
 
 position of ions in cartesian coordinates  (Angst):
  11.98347958  0.00342433  0.01416777
  -0.34154264  1.42664989  0.01100432
   2.12354700  0.00315355  0.01249070
   2.12325634  1.42652621  0.00641170
  10.75098721  2.13818970  0.01213047
  -1.57382270  3.56123457  0.01110375
   0.89078307  2.13853702  0.00547917
   0.89099273  3.56146885  0.00180651
   4.58863896  0.00346260  0.01134782
   4.58893648  1.42622757  0.00645846
   9.51853763  4.27280730  0.01369027
  -2.80632132  5.69591267  0.01433526
   2.12299894  4.27302204  0.00000000
   2.12335237  5.69593607  0.00581036
   7.05344483  0.00333155  0.01398950
   7.05352764  1.42635365  0.01368187
   8.28609598  6.40752033  0.01600723
  -4.03884931  7.83070339  0.01636283
   3.35585531  6.40752662  0.01007237
   3.35598594  7.83071962  0.01319763
  -0.34145776  4.27290193  0.00722612
  -0.34137895  5.69591010  0.00946273
   3.35624236  2.13791198  0.00222492
   3.35573251  3.56155103  0.00139405
  -1.57394684  6.40758280  0.01310850
  -1.57385216  7.83068434  0.01437823
   5.82093107  2.13783916  0.01033241
   5.82114012  3.56096622  0.01155939
   0.89092245  6.40754561  0.00907111
   0.89106251  7.83067670  0.01235474
   4.58870974  4.27292622  0.00849795
   4.58852320  5.69606300  0.01149026
   9.51844972  0.00336679  0.01490402
   9.51855036  1.42644387  0.01438264
   8.28593477  2.13803408  0.01452582
   8.28612680  3.56114872  0.01463668
   7.05356221  4.27268994  0.01457444
   7.05362213  5.69588251  0.01552751
   5.82112285  6.40754723  0.01489279
   5.82101669  7.83073350  0.01578780
   7.05362858  8.54227219  0.01630582
  -5.27148792  9.96548729  0.01495127
  -2.80637951  8.54234295  0.01558431
  -2.80626749  9.96552896  0.01362126
  -0.34148805  8.54239058  0.01378498
  -0.34137657  9.96550309  0.01353576
   2.12342586  8.54231992  0.01336337
   2.12354296  9.96544135  0.01469111
   4.58845581  8.54235337  0.01505154
   4.58852904  9.96549848  0.01517076
   3.04929830  2.68153618  2.50000000
   4.02070129  2.02068374  2.56442186
   2.07766701  3.34267235  2.44054513
 


--------------------------------------------------------------------------------------------------------


 k-point   1 :   0.0000 0.0000 0.0000  plane waves:  236157

 maximum and minimum number of plane-waves per node :    236157   236157

 maximum number of plane-waves:    236157
 maximum index in each direction: 
   IXMAX=   31   IYMAX=   31   IZMAX=   64
   IXMIN=  -31   IYMIN=  -31   IZMIN=  -64


 serial   3D FFT for wavefunctions
 parallel 3D FFT for charge:
    minimum data exchange during FFTs selected (reduces bandwidth)


 total amount of memory used by VASP MPI-rank0   551512. kBytes
=======================================================================

   base      :      30000. kBytes
   nonl-proj :     230539. kBytes
   fftplans  :      40716. kBytes
   grid      :     216018. kBytes
   one-center:        162. kBytes
   wavefun   :      34077. kBytes
 
     INWAV:  cpu time    0.0000: real time    0.0000
 Broyden mixing: mesh for mixing (old mesh)
   NGX = 63   NGY = 63   NGZ =129
  (NGX  =256   NGY  =256   NGZ  =540)
  gives a total of 512001 points

 initial charge density was supplied:
 charge density of overlapping atoms calculated
 number of electron     216.0000000 magnetization 
 keeping initial charge density in first step


--------------------------------------------------------------------------------------------------------


 Maximum index for augmentation-charges          471 (set IRDMAX)


--------------------------------------------------------------------------------------------------------


 First call to EWALD:  gamma=   0.119
 Maximum number of real-space cells 4x 4x 2
 Maximum number of reciprocal cells 2x 2x 4

    FEWALD:  cpu time    0.0046: real time    0.0046


--------------------------------------- Iteration      1(   1)  ---------------------------------------


    POTLOK:  cpu time    0.7735: real time    0.7801
    SETDIJ:  cpu time    0.0169: real time    0.0170
    TRIAL :  cpu time   15.2120: real time   15.3355
    CORREC:  cpu time    0.0005: real time    0.0007
    --------------------------------------------
      LOOP:  cpu time   16.0156: real time   16.1520

 eigenvalue-minimisations  :   336
 total energy-change (2. order) : 0.2614027E+04  (-0.1073347E+05)
 number of electron     216.0000000 magnetization 
 augmentation part      216.0000000 magnetization 

 Free energy of the ion-electron system (eV)
  ---------------------------------------------------
  alpha Z        PSCENC =        47.94900195
  Ewald energy   TEWEN  =     48644.60191082
  -Hartree energ DENC   =    -54710.66706681
  -exchange      EXHF   =         0.00000000
  -V(xc)+E(xc)   XCENC  =       421.67783134
  PAW double counting   =      6525.96553977    -6260.36035765
  entropy T*S    EENTRO =        -0.00000000
  eigenvalues    EBANDS =      -424.66313348
  atomic energy  EATOM  =      8369.52358910
  ---------------------------------------------------
  free energy    TOTEN  =      2614.02731505 eV

  energy without entropy =     2614.02731505  energy(sigma->0) =     2614.02731505


--------------------------------------------------------------------------------------------------------




--------------------------------------- Iteration      1(   2)  ---------------------------------------


    TRIAL :  cpu time   22.8691: real time   23.0408
    CORREC:  cpu time    0.0001: real time    0.0001
    --------------------------------------------
      LOOP:  cpu time   22.9049: real time   23.0823

 eigenvalue-minimisations  :   560
 total energy-change (2. order) :-0.2435987E+04  (-0.2266048E+04)
 number of electron     216.0000000 magnetization 
 augmentation part      216.0000000 magnetization 

 Free energy of the ion-electron system (eV)
  ---------------------------------------------------
  alpha Z        PSCENC =        47.94900195
  Ewald energy   TEWEN  =     48644.60191082
  -Hartree energ DENC   =    -54710.66706681
  -exchange      EXHF   =         0.00000000
  -V(xc)+E(xc)   XCENC  =       421.67783134
  PAW double counting   =      6525.96553977    -6260.36035765
  entropy T*S    EENTRO =        -0.00000000
  eigenvalues    EBANDS =     -2860.64964871
  atomic energy  EATOM  =      8369.52358910
  ---------------------------------------------------
  free energy    TOTEN  =       178.04079981 eV

  energy without entropy =      178.04079981  energy(sigma->0) =      178.04079981


--------------------------------------------------------------------------------------------------------




--------------------------------------- Iteration      1(   3)  ---------------------------------------


    TRIAL :  cpu time   19.0128: real time   19.1565
    CORREC:  cpu time    0.0001: real time    0.0003
    --------------------------------------------
      LOOP:  cpu time   19.0830: real time   19.2274

 eigenvalue-minimisations  :   448
 total energy-change (2. order) :-0.6694960E+03  (-0.6666446E+03)
 number of electron     216.0000000 magnetization 
 augmentation part      216.0000000 magnetization 

 Free energy of the ion-electron system (eV)
  ---------------------------------------------------
  alpha Z        PSCENC =        47.94900195
  Ewald energy   TEWEN  =     48644.60191082
  -Hartree energ DENC   =    -54710.66706681
  -exchange      EXHF   =         0.00000000
  -V(xc)+E(xc)   XCENC  =       421.67783134
  PAW double counting   =      6525.96553977    -6260.36035765
  entropy T*S    EENTRO =        -0.00000000
  eigenvalues    EBANDS =     -3530.14568542
  atomic energy  EATOM  =      8369.52358910
  ---------------------------------------------------
  free energy    TOTEN  =      -491.45523690 eV

  energy without entropy =     -491.45523690  energy(sigma->0) =     -491.45523690


--------------------------------------------------------------------------------------------------------




--------------------------------------- Iteration      1(   4)  ---------------------------------------


    TRIAL :  cpu time   19.0313: real time   19.1776
    CORREC:  cpu time    0.0001: real time    0.0001
    --------------------------------------------
      LOOP:  cpu time   19.0434: real time   19.2247

 eigenvalue-minimisations  :   448
 total energy-change (2. order) :-0.2482619E+02  (-0.2468228E+02)
 number of electron     216.0000000 magnetization 
 augmentation part      216.0000000 magnetization 

 Free energy of the ion-electron system (eV)
  ---------------------------------------------------
  alpha Z        PSCENC =        47.94900195
  Ewald energy   TEWEN  =     48644.60191082
  -Hartree energ DENC   =    -54710.66706681
  -exchange      EXHF   =         0.00000000
  -V(xc)+E(xc)   XCENC  =       421.67783134
  PAW double counting   =      6525.96553977    -6260.36035765
  entropy T*S    EENTRO =        -0.00000000
  eigenvalues    EBANDS =     -3554.97187975
  atomic energy  EATOM  =      8369.52358910
  ---------------------------------------------------
  free energy    TOTEN  =      -516.28143123 eV

  energy without entropy =     -516.28143123  energy(sigma->0) =     -516.28143123


--------------------------------------------------------------------------------------------------------




--------------------------------------- Iteration      1(   5)  ---------------------------------------


    TRIAL :  cpu time   15.1912: real time   15.3165
    CORREC:  cpu time    0.0001: real time    0.0003
    CHARGE:  cpu time    0.8090: real time    0.8148
    --------------------------------------------
      LOOP:  cpu time   16.0534: real time   16.1852

 eigenvalue-minimisations  :   336
 total energy-change (2. order) :-0.8180210E+00  (-0.8167730E+00)
 number of electron     216.0000000 magnetization 
 augmentation part       -0.2772825 magnetization 

 Free energy of the ion-electron system (eV)
  ---------------------------------------------------
  alpha Z        PSCENC =        47.94900195
  Ewald energy   TEWEN  =     48644.60191082
  -Hartree energ DENC   =    -54710.66706681
  -exchange      EXHF   =         0.00000000
  -V(xc)+E(xc)   XCENC  =       421.67783134
  PAW double counting   =      6525.96553977    -6260.36035765
  entropy T*S    EENTRO =        -0.00000000
  eigenvalues    EBANDS =     -3555.78990076
  atomic energy  EATOM  =      8369.52358910
  ---------------------------------------------------
  free energy    TOTEN  =      -517.09945223 eV

  energy without entropy =     -517.09945223  energy(sigma->0) =     -517.09945223


--------------------------------------------------------------------------------------------------------




--------------------------------------- Iteration      1(   6)  ---------------------------------------


    POTLOK:  cpu time    0.7339: real time    0.7388
    SETDIJ:  cpu time    0.0051: real time    0.0051
    TRIAL :  cpu time    6.8367: real time    6.8924
    CORREC:  cpu time    2.2441: real time    2.2610
    CHARGE:  cpu time    0.8036: real time    0.8092
    --------------------------------------------
      LOOP:  cpu time   10.6724: real time   10.7712

 eigenvalue-minimisations  :     0
 total energy-change (2. order) : 0.5071915E+02  (-0.1510561E+02)
 number of electron     216.0000000 magnetization 
 augmentation part       -0.3766212 magnetization 

 Free energy of the ion-electron system (eV)
  ---------------------------------------------------
  alpha Z        PSCENC =        47.94900195
  Ewald energy   TEWEN  =     48644.60191082
  -Hartree energ DENC   =    -56155.08479203
  -exchange      EXHF   =         0.00000000
  -V(xc)+E(xc)   XCENC  =       469.17361507
  PAW double counting   =     90463.63058591   -90206.27234192
  entropy T*S    EENTRO =        -0.00000000
  eigenvalues    EBANDS =     -2099.90187475
  atomic energy  EATOM  =      8369.52358910
  ---------------------------------------------------
  free energy    TOTEN  =      -466.38030584 eV

  energy without entropy =     -466.38030584  energy(sigma->0) =     -466.38030584


--------------------------------------------------------------------------------------------------------




--------------------------------------- Iteration      1(   7)  ---------------------------------------


    POTLOK:  cpu time    0.7365: real time    0.7414
    SETDIJ:  cpu time    0.0018: real time    0.0018
    TRIAL :  cpu time    6.8408: real time    6.8976
    CORREC:  cpu time    2.2493: real time    2.2660
    CHARGE:  cpu time    0.8060: real time    0.8117
    --------------------------------------------
      LOOP:  cpu time   10.7021: real time   10.7879

 eigenvalue-minimisations  :     0
 total energy-change (2. order) :-0.1512346E+02  (-0.1752668E+01)
 number of electron     216.0000000 magnetization 
 augmentation part       -0.4222508 magnetization 

 Free energy of the ion-electron system (eV)
  ---------------------------------------------------
  alpha Z        PSCENC =        47.94900195
  Ewald energy   TEWEN  =     48644.60191082
  -Hartree energ DENC   =    -55650.36437144
  -exchange      EXHF   =         0.00000000
  -V(xc)+E(xc)   XCENC  =       452.94340116
  PAW double counting   =    106752.43402038  -106492.28612107
  entropy T*S    EENTRO =        -0.00000000
  eigenvalues    EBANDS =     -2606.30519705
  atomic energy  EATOM  =      8369.52358910
  ---------------------------------------------------
  free energy    TOTEN  =      -481.50376615 eV

  energy without entropy =     -481.50376615  energy(sigma->0) =     -481.50376615


--------------------------------------------------------------------------------------------------------




--------------------------------------- Iteration      1(   8)  ---------------------------------------


    POTLOK:  cpu time    0.7375: real time    0.7423
    SETDIJ:  cpu time    0.0019: real time    0.0019
    TRIAL :  cpu time    6.8361: real time    6.8930
    CORREC:  cpu time    2.2585: real time    2.2756
    CHARGE:  cpu time    0.8030: real time    0.8086
    --------------------------------------------
      LOOP:  cpu time   10.7087: real time   10.7973

 eigenvalue-minimisations  :     0
 total energy-change (2. order) :-0.1754005E+01  (-0.5112608E+00)
 number of electron     216.0000000 magnetization 
 augmentation part       -0.4350325 magnetization 

 Free energy of the ion-electron system (eV)
  ---------------------------------------------------
  alpha Z        PSCENC =        47.94900195
  Ewald energy   TEWEN  =     48644.60191082
  -Hartree energ DENC   =    -55632.33353080
  -exchange      EXHF   =         0.00000000
  -V(xc)+E(xc)   XCENC  =       452.33615613
  PAW double counting   =    111304.16316816  -111043.60138001
  entropy T*S    EENTRO =        -0.00000000
  eigenvalues    EBANDS =     -2625.89668680
  atomic energy  EATOM  =      8369.52358910
  ---------------------------------------------------
  free energy    TOTEN  =      -483.25777145 eV

  energy without entropy =     -483.25777145  energy(sigma->0) =     -483.25777145


--------------------------------------------------------------------------------------------------------




--------------------------------------- Iteration      1(   9)  ---------------------------------------


    POTLOK:  cpu time    0.7375: real time    0.7423
    SETDIJ:  cpu time    0.0019: real time    0.0019
    TRIAL :  cpu time    6.8321: real time    6.8865
    CORREC:  cpu time    2.2465: real time    2.2640
    CHARGE:  cpu time    0.8068: real time    0.8125
    --------------------------------------------
      LOOP:  cpu time   10.6789: real time   10.7646

 eigenvalue-minimisations  :     0
 total energy-change (2. order) :-0.5109530E+00  (-0.1959797E+00)
 number of electron     216.0000000 magnetization 
 augmentation part       -0.4394163 magnetization 

 Free energy of the ion-electron system (eV)
  ---------------------------------------------------
  alpha Z        PSCENC =        47.94900195
  Ewald energy   TEWEN  =     48644.60191082
  -Hartree energ DENC   =    -55641.78417705
  -exchange      EXHF   =         0.00000000
  -V(xc)+E(xc)   XCENC  =       452.34487962
  PAW double counting   =    114037.94330667  -113777.22080447
  entropy T*S    EENTRO =        -0.00000000
  eigenvalues    EBANDS =     -2617.12643104
  atomic energy  EATOM  =      8369.52358910
  ---------------------------------------------------
  free energy    TOTEN  =      -483.76872440 eV

  energy without entropy =     -483.76872440  energy(sigma->0) =     -483.76872440


--------------------------------------------------------------------------------------------------------




--------------------------------------- Iteration      1(  10)  ---------------------------------------


    POTLOK:  cpu time    0.7383: real time    0.7431
    SETDIJ:  cpu time    0.0019: real time    0.0020
    TRIAL :  cpu time    6.8415: real time    6.8959
    CORREC:  cpu time    2.2483: real time    2.2658
    CHARGE:  cpu time    0.8048: real time    0.8107
    --------------------------------------------
      LOOP:  cpu time   10.6892: real time   10.7745

 eigenvalue-minimisations  :     0
 total energy-change (2. order) :-0.1954663E+00  (-0.8624259E-01)
 number of electron     216.0000000 magnetization 
 augmentation part       -0.4384691 magnetization 

 Free energy of the ion-electron system (eV)
  ---------------------------------------------------
  alpha Z        PSCENC =        47.94900195
  Ewald energy   TEWEN  =     48644.60191082
  -Hartree energ DENC   =    -55637.56301883
  -exchange      EXHF   =         0.00000000
  -V(xc)+E(xc)   XCENC  =       452.18571523
  PAW double counting   =    114290.55170915  -114029.75140713
  entropy T*S    EENTRO =        -0.00000000
  eigenvalues    EBANDS =     -2621.46169101
  atomic energy  EATOM  =      8369.52358910
  ---------------------------------------------------
  free energy    TOTEN  =      -483.96419071 eV

  energy without entropy =     -483.96419071  energy(sigma->0) =     -483.96419071


--------------------------------------------------------------------------------------------------------




--------------------------------------- Iteration      1(  11)  ---------------------------------------


    POTLOK:  cpu time    0.7337: real time    0.7384
    SETDIJ:  cpu time    0.0022: real time    0.0022
    TRIAL :  cpu time    6.8345: real time    6.8883
    CORREC:  cpu time    2.2526: real time    2.2697
    CHARGE:  cpu time    0.8104: real time    0.8161
    --------------------------------------------
      LOOP:  cpu time   10.6738: real time   10.7575

 eigenvalue-minimisations  :     0
 total energy-change (2. order) :-0.8578744E-01  (-0.3173120E-01)
 number of electron     216.0000000 magnetization 
 augmentation part       -0.4369989 magnetization 

 Free energy of the ion-electron system (eV)
  ---------------------------------------------------
  alpha Z        PSCENC =        47.94900195
  Ewald energy   TEWEN  =     48644.60191082
  -Hartree energ DENC   =    -55629.87482666
  -exchange      EXHF   =         0.00000000
  -V(xc)+E(xc)   XCENC  =       452.06728687
  PAW double counting   =    113528.62724898  -113267.84028788
  entropy T*S    EENTRO =        -0.00000000
  eigenvalues    EBANDS =     -2629.10390133
  atomic energy  EATOM  =      8369.52358910
  ---------------------------------------------------
  free energy    TOTEN  =      -484.04997815 eV

  energy without entropy =     -484.04997815  energy(sigma->0) =     -484.04997815


--------------------------------------------------------------------------------------------------------




--------------------------------------- Iteration      1(  12)  ---------------------------------------


    POTLOK:  cpu time    0.7328: real time    0.7382
    SETDIJ:  cpu time    0.0020: real time    0.0020
    TRIAL :  cpu time    6.8367: real time    6.8915
    CORREC:  cpu time    2.2453: real time    2.2622
    CHARGE:  cpu time    0.8049: real time    0.8103
    --------------------------------------------
      LOOP:  cpu time   10.6350: real time   10.7354

 eigenvalue-minimisations  :     0
 total energy-change (2. order) :-0.3164762E-01  (-0.9637603E-02)
 number of electron     216.0000000 magnetization 
 augmentation part       -0.4367095 magnetization 

 Free energy of the ion-electron system (eV)
  ---------------------------------------------------
  alpha Z        PSCENC =        47.94900195
  Ewald energy   TEWEN  =     48644.60191082
  -Hartree energ DENC   =    -55625.74424255
  -exchange      EXHF   =         0.00000000
  -V(xc)+E(xc)   XCENC  =       451.99485171
  PAW double counting   =    113021.72671671  -112760.96825472
  entropy T*S    EENTRO =        -0.00000000
  eigenvalues    EBANDS =     -2633.16519880
  atomic energy  EATOM  =      8369.52358910
  ---------------------------------------------------
  free energy    TOTEN  =      -484.08162578 eV

  energy without entropy =     -484.08162578  energy(sigma->0) =     -484.08162578


--------------------------------------------------------------------------------------------------------




--------------------------------------- Iteration      1(  13)  ---------------------------------------


    POTLOK:  cpu time    0.7281: real time    0.7329
    SETDIJ:  cpu time    0.0018: real time    0.0018
    TRIAL :  cpu time    6.8334: real time    6.8882
    CORREC:  cpu time    2.2329: real time    2.2507
    CHARGE:  cpu time    0.8057: real time    0.8120
    --------------------------------------------
      LOOP:  cpu time   10.6180: real time   10.7381

 eigenvalue-minimisations  :     0
 total energy-change (2. order) :-0.9629151E-02  (-0.2565148E-02)
 number of electron     216.0000000 magnetization 
 augmentation part       -0.4364117 magnetization 

 Free energy of the ion-electron system (eV)
  ---------------------------------------------------
  alpha Z        PSCENC =        47.94900195
  Ewald energy   TEWEN  =     48644.60191082
  -Hartree energ DENC   =    -55624.75706764
  -exchange      EXHF   =         0.00000000
  -V(xc)+E(xc)   XCENC  =       451.96614269
  PAW double counting   =    112874.43289012  -112613.68473276
  entropy T*S    EENTRO =        -0.00000000
  eigenvalues    EBANDS =     -2634.12298920
  atomic energy  EATOM  =      8369.52358910
  ---------------------------------------------------
  free energy    TOTEN  =      -484.09125493 eV

  energy without entropy =     -484.09125493  energy(sigma->0) =     -484.09125493


--------------------------------------------------------------------------------------------------------




--------------------------------------- Iteration      1(  14)  ---------------------------------------


    POTLOK:  cpu time    0.7263: real time    0.7318
    SETDIJ:  cpu time    0.0019: real time    0.0020
    TRIAL :  cpu time    6.8336: real time    6.8900
    CORREC:  cpu time    2.2409: real time    2.2589
    CHARGE:  cpu time    0.8077: real time    0.8134
    --------------------------------------------
      LOOP:  cpu time   10.6254: real time   10.7486

 eigenvalue-minimisations  :     0
 total energy-change (2. order) :-0.2564882E-02  (-0.6740991E-03)
 number of electron     216.0000000 magnetization 
 augmentation part       -0.4361832 magnetization 

 Free energy of the ion-electron system (eV)
  ---------------------------------------------------
  alpha Z        PSCENC =        47.94900195
  Ewald energy   TEWEN  =     48644.60191082
  -Hartree energ DENC   =    -55624.76121063
  -exchange      EXHF   =         0.00000000
  -V(xc)+E(xc)   XCENC  =       451.96509411
  PAW double counting   =    112895.83066782  -112635.08574373
  entropy T*S    EENTRO =        -0.00000000
  eigenvalues    EBANDS =     -2634.11712925
  atomic energy  EATOM  =      8369.52358910
  ---------------------------------------------------
  free energy    TOTEN  =      -484.09381981 eV

  energy without entropy =     -484.09381981  energy(sigma->0) =     -484.09381981


--------------------------------------------------------------------------------------------------------




--------------------------------------- Iteration      1(  15)  ---------------------------------------


    POTLOK:  cpu time    0.7228: real time    0.7274
    SETDIJ:  cpu time    0.0020: real time    0.0021
    TRIAL :  cpu time    6.8521: real time    6.9056
    CORREC:  cpu time    2.2347: real time    2.2521
    CHARGE:  cpu time    0.8060: real time    0.8118
    --------------------------------------------
      LOOP:  cpu time   10.6608: real time   10.7448

 eigenvalue-minimisations  :     0
 total energy-change (2. order) :-0.6749215E-03  (-0.2065458E-03)
 number of electron     216.0000000 magnetization 
 augmentation part       -0.4359779 magnetization 

 Free energy of the ion-electron system (eV)
  ---------------------------------------------------
  alpha Z        PSCENC =        47.94900195
  Ewald energy   TEWEN  =     48644.60191082
  -Hartree energ DENC   =    -55624.57462237
  -exchange      EXHF   =         0.00000000
  -V(xc)+E(xc)   XCENC  =       451.95948615
  PAW double counting   =    112925.76048734  -112665.01516177
  entropy T*S    EENTRO =        -0.00000000
  eigenvalues    EBANDS =     -2634.29918595
  atomic energy  EATOM  =      8369.52358910
  ---------------------------------------------------
  free energy    TOTEN  =      -484.09449473 eV

  energy without entropy =     -484.09449473  energy(sigma->0) =     -484.09449473


--------------------------------------------------------------------------------------------------------




--------------------------------------- Iteration      1(  16)  ---------------------------------------


    POTLOK:  cpu time    0.7210: real time    0.7259
    SETDIJ:  cpu time    0.0018: real time    0.0018
    TRIAL :  cpu time    6.8303: real time    6.8844
    CORREC:  cpu time    2.2383: real time    2.2555
    CHARGE:  cpu time    0.8062: real time    0.8119
    --------------------------------------------
      LOOP:  cpu time   10.6521: real time   10.7377

 eigenvalue-minimisations  :     0
 total energy-change (2. order) :-0.2075349E-03  (-0.7427652E-04)
 number of electron     216.0000000 magnetization 
 augmentation part       -0.4358008 magnetization 

 Free energy of the ion-electron system (eV)
  ---------------------------------------------------
  alpha Z        PSCENC =        47.94900195
  Ewald energy   TEWEN  =     48644.60191082
  -Hartree energ DENC   =    -55624.63961700
  -exchange      EXHF   =         0.00000000
  -V(xc)+E(xc)   XCENC  =       451.96020497
  PAW double counting   =    112920.05576608  -112659.31021774
  entropy T*S    EENTRO =        -0.00000000
  eigenvalues    EBANDS =     -2634.23534046
  atomic energy  EATOM  =      8369.52358910
  ---------------------------------------------------
  free energy    TOTEN  =      -484.09470227 eV

  energy without entropy =     -484.09470227  energy(sigma->0) =     -484.09470227


--------------------------------------------------------------------------------------------------------




--------------------------------------- Iteration      1(  17)  ---------------------------------------


    POTLOK:  cpu time    0.7177: real time    0.7225
    SETDIJ:  cpu time    0.0020: real time    0.0020
    TRIAL :  cpu time    6.8250: real time    6.8822
    CORREC:  cpu time    2.2305: real time    2.2481
    CHARGE:  cpu time    0.8033: real time    0.8090
    --------------------------------------------
      LOOP:  cpu time   10.6554: real time   10.7444

 eigenvalue-minimisations  :     0
 total energy-change (2. order) :-0.7496832E-04  (-0.2948597E-04)
 number of electron     216.0000000 magnetization 
 augmentation part       -0.4357730 magnetization 

 Free energy of the ion-electron system (eV)
  ---------------------------------------------------
  alpha Z        PSCENC =        47.94900195
  Ewald energy   TEWEN  =     48644.60191082
  -Hartree energ DENC   =    -55624.86962019
  -exchange      EXHF   =         0.00000000
  -V(xc)+E(xc)   XCENC  =       451.96603329
  PAW double counting   =    112903.83312316  -112643.08803794
  entropy T*S    EENTRO =        -0.00000000
  eigenvalues    EBANDS =     -2634.01077743
  atomic energy  EATOM  =      8369.52358910
  ---------------------------------------------------
  free energy    TOTEN  =      -484.09477724 eV

  energy without entropy =     -484.09477724  energy(sigma->0) =     -484.09477724


--------------------------------------------------------------------------------------------------------




--------------------------------------- Iteration      1(  18)  ---------------------------------------


    POTLOK:  cpu time    0.7200: real time    0.7247
    SETDIJ:  cpu time    0.0020: real time    0.0020
    TRIAL :  cpu time    6.8349: real time    6.8924
    CORREC:  cpu time    2.2258: real time    2.2487
    CHARGE:  cpu time    0.8023: real time    0.8088
    --------------------------------------------
      LOOP:  cpu time   10.6049: real time   10.6993

 eigenvalue-minimisations  :     0
 total energy-change (2. order) :-0.2983146E-04  (-0.1248886E-04)
 number of electron     216.0000000 magnetization 
 augmentation part       -0.4357961 magnetization 

 Free energy of the ion-electron system (eV)
  ---------------------------------------------------
  alpha Z        PSCENC =        47.94900195
  Ewald energy   TEWEN  =     48644.60191082
  -Hartree energ DENC   =    -55624.91015793
  -exchange      EXHF   =         0.00000000
  -V(xc)+E(xc)   XCENC  =       451.96617180
  PAW double counting   =    112900.03638487  -112639.29085327
  entropy T*S    EENTRO =        -0.00000000
  eigenvalues    EBANDS =     -2633.97085441
  atomic energy  EATOM  =      8369.52358910
  ---------------------------------------------------
  free energy    TOTEN  =      -484.09480707 eV

  energy without entropy =     -484.09480707  energy(sigma->0) =     -484.09480707


--------------------------------------------------------------------------------------------------------




--------------------------------------- Iteration      1(  19)  ---------------------------------------


    POTLOK:  cpu time    0.7219: real time    0.7265
    SETDIJ:  cpu time    0.0019: real time    0.0019
    TRIAL :  cpu time    6.8378: real time    6.8914
    CORREC:  cpu time    2.2344: real time    2.2531
    CHARGE:  cpu time    0.8050: real time    0.8106
    --------------------------------------------
      LOOP:  cpu time   10.6473: real time   10.7334

 eigenvalue-minimisations  :     0
 total energy-change (2. order) :-0.1238128E-04  (-0.4990111E-05)
 number of electron     216.0000000 magnetization 
 augmentation part       -0.4358314 magnetization 

 Free energy of the ion-electron system (eV)
  ---------------------------------------------------
  alpha Z        PSCENC =        47.94900195
  Ewald energy   TEWEN  =     48644.60191082
  -Hartree energ DENC   =    -55624.94291843
  -exchange      EXHF   =         0.00000000
  -V(xc)+E(xc)   XCENC  =       451.96692567
  PAW double counting   =    112905.63986428  -112644.89411577
  entropy T*S    EENTRO =        -0.00000000
  eigenvalues    EBANDS =     -2633.93907708
  atomic energy  EATOM  =      8369.52358910
  ---------------------------------------------------
  free energy    TOTEN  =      -484.09481945 eV

  energy without entropy =     -484.09481945  energy(sigma->0) =     -484.09481945


--------------------------------------------------------------------------------------------------------




--------------------------------------- Iteration      1(  20)  ---------------------------------------


    POTLOK:  cpu time    0.7169: real time    0.7217
    SETDIJ:  cpu time    0.0042: real time    0.0042
    TRIAL :  cpu time    6.8313: real time    6.8867
    CORREC:  cpu time    2.2286: real time    2.2516
    CHARGE:  cpu time    0.8069: real time    0.8124
    --------------------------------------------
      LOOP:  cpu time   10.6356: real time   10.7250

 eigenvalue-minimisations  :     0
 total energy-change (2. order) :-0.4637302E-05  (-0.2002210E-05)
 number of electron     216.0000000 magnetization 
 augmentation part       -0.4358526 magnetization 

 Free energy of the ion-electron system (eV)
  ---------------------------------------------------
  alpha Z        PSCENC =        47.94900195
  Ewald energy   TEWEN  =     48644.60191082
  -Hartree energ DENC   =    -55624.97019536
  -exchange      EXHF   =         0.00000000
  -V(xc)+E(xc)   XCENC  =       451.96762322
  PAW double counting   =    112911.27884111  -112650.53303976
  entropy T*S    EENTRO =        -0.00000000
  eigenvalues    EBANDS =     -2633.91255516
  atomic energy  EATOM  =      8369.52358910
  ---------------------------------------------------
  free energy    TOTEN  =      -484.09482409 eV

  energy without entropy =     -484.09482409  energy(sigma->0) =     -484.09482409


--------------------------------------------------------------------------------------------------------




--------------------------------------- Iteration      1(  21)  ---------------------------------------


    POTLOK:  cpu time    0.7207: real time    0.7253
    SETDIJ:  cpu time    0.0019: real time    0.0019
    TRIAL :  cpu time    6.8295: real time    6.8926
    CORREC:  cpu time    2.2271: real time    2.2474
    CHARGE:  cpu time    0.8044: real time    0.8109
    --------------------------------------------
      LOOP:  cpu time   10.6441: real time   10.7422

 eigenvalue-minimisations  :     0
 total energy-change (2. order) :-0.1749446E-05  (-0.9145639E-06)
 number of electron     216.0000000 magnetization 
 augmentation part       -0.4358499 magnetization 

 Free energy of the ion-electron system (eV)
  ---------------------------------------------------
  alpha Z        PSCENC =        47.94900195
  Ewald energy   TEWEN  =     48644.60191082
  -Hartree energ DENC   =    -55624.95836889
  -exchange      EXHF   =         0.00000000
  -V(xc)+E(xc)   XCENC  =       451.96716265
  PAW double counting   =    112912.45881701  -112651.71299036
  entropy T*S    EENTRO =        -0.00000000
  eigenvalues    EBANDS =     -2633.92394812
  atomic energy  EATOM  =      8369.52358910
  ---------------------------------------------------
  free energy    TOTEN  =      -484.09482584 eV

  energy without entropy =     -484.09482584  energy(sigma->0) =     -484.09482584


--------------------------------------------------------------------------------------------------------




--------------------------------------- Iteration      1(  22)  ---------------------------------------


    POTLOK:  cpu time    0.7161: real time    0.7217
    SETDIJ:  cpu time    0.0021: real time    0.0021
    TRIAL :  cpu time    6.8292: real time    6.8956
    CORREC:  cpu time    2.2433: real time    2.2639
    CHARGE:  cpu time    0.8059: real time    0.8122
    --------------------------------------------
      LOOP:  cpu time   10.6943: real time   10.7937

 eigenvalue-minimisations  :     0
 total energy-change (2. order) :-0.7502385E-06  (-0.3903741E-06)
 number of electron     216.0000000 magnetization 
 augmentation part       -0.4358507 magnetization 

 Free energy of the ion-electron system (eV)
  ---------------------------------------------------
  alpha Z        PSCENC =        47.94900195
  Ewald energy   TEWEN  =     48644.60191082
  -Hartree energ DENC   =    -55624.95035702
  -exchange      EXHF   =         0.00000000
  -V(xc)+E(xc)   XCENC  =       451.96712265
  PAW double counting   =    112910.45669952  -112649.71099102
  entropy T*S    EENTRO =        -0.00000000
  eigenvalues    EBANDS =     -2633.93180259
  atomic energy  EATOM  =      8369.52358910
  ---------------------------------------------------
  free energy    TOTEN  =      -484.09482659 eV

  energy without entropy =     -484.09482659  energy(sigma->0) =     -484.09482659


--------------------------------------------------------------------------------------------------------




--------------------------------------- Iteration      1(  23)  ---------------------------------------


    POTLOK:  cpu time    0.7193: real time    0.7253
    SETDIJ:  cpu time    0.0019: real time    0.0019
    TRIAL :  cpu time    6.8267: real time    6.8912
    CORREC:  cpu time    2.2397: real time    2.2596
    CHARGE:  cpu time    0.7907: real time    0.8100
    --------------------------------------------
      LOOP:  cpu time   10.5876: real time   10.7287

 eigenvalue-minimisations  :     0
 total energy-change (2. order) :-0.3186142E-06  (-0.2018818E-06)
 number of electron     216.0000000 magnetization 
 augmentation part       -0.4358502 magnetization 

 Free energy of the ion-electron system (eV)
  ---------------------------------------------------
  alpha Z        PSCENC =        47.94900195
  Ewald energy   TEWEN  =     48644.60191082
  -Hartree energ DENC   =    -55624.94081632
  -exchange      EXHF   =         0.00000000
  -V(xc)+E(xc)   XCENC  =       451.96686610
  PAW double counting   =    112908.82151734  -112648.07582014
  entropy T*S    EENTRO =        -0.00000000
  eigenvalues    EBANDS =     -2633.94107577
  atomic energy  EATOM  =      8369.52358910
  ---------------------------------------------------
  free energy    TOTEN  =      -484.09482690 eV

  energy without entropy =     -484.09482690  energy(sigma->0) =     -484.09482690


--------------------------------------------------------------------------------------------------------




--------------------------------------- Iteration      1(  24)  ---------------------------------------


    POTLOK:  cpu time    0.7630: real time    0.7713
    SETDIJ:  cpu time    0.0288: real time    0.0289
    TRIAL :  cpu time    6.8446: real time    6.9104
    CORREC:  cpu time    2.2267: real time    2.2466
    CHARGE:  cpu time    0.8049: real time    0.8116
    --------------------------------------------
      LOOP:  cpu time   10.6936: real time   10.8113

 eigenvalue-minimisations  :     0
 total energy-change (2. order) :-0.1231529E-06  (-0.1411197E-06)
 number of electron     216.0000000 magnetization 
 augmentation part       -0.4358501 magnetization 

 Free energy of the ion-electron system (eV)
  ---------------------------------------------------
  alpha Z        PSCENC =        47.94900195
  Ewald energy   TEWEN  =     48644.60191082
  -Hartree energ DENC   =    -55624.93642737
  -exchange      EXHF   =         0.00000000
  -V(xc)+E(xc)   XCENC  =       451.96682704
  PAW double counting   =    112908.21857211  -112647.47287593
  entropy T*S    EENTRO =        -0.00000000
  eigenvalues    EBANDS =     -2633.94542475
  atomic energy  EATOM  =      8369.52358910
  ---------------------------------------------------
  free energy    TOTEN  =      -484.09482703 eV

  energy without entropy =     -484.09482703  energy(sigma->0) =     -484.09482703


--------------------------------------------------------------------------------------------------------




--------------------------------------- Iteration      1(  25)  ---------------------------------------


    POTLOK:  cpu time    0.7186: real time    0.7246
    SETDIJ:  cpu time    0.0019: real time    0.0020
    TRIAL :  cpu time    6.8204: real time    6.8860
    CORREC:  cpu time    2.2291: real time    2.2499
    CHARGE:  cpu time    0.8036: real time    0.8102
    --------------------------------------------
      LOOP:  cpu time   10.5785: real time   10.7122

 eigenvalue-minimisations  :     0
 total energy-change (2. order) : 0.4089088E-07  (-0.1382531E-06)
 number of electron     216.0000000 magnetization 
 augmentation part       -0.4358512 magnetization 

 Free energy of the ion-electron system (eV)
  ---------------------------------------------------
  alpha Z        PSCENC =        47.94900195
  Ewald energy   TEWEN  =     48644.60191082
  -Hartree energ DENC   =    -55624.93455372
  -exchange      EXHF   =         0.00000000
  -V(xc)+E(xc)   XCENC  =       451.96686226
  PAW double counting   =    112908.47394994  -112647.72822933
  entropy T*S    EENTRO =        -0.00000000
  eigenvalues    EBANDS =     -2633.94735802
  atomic energy  EATOM  =      8369.52358910
  ---------------------------------------------------
  free energy    TOTEN  =      -484.09482699 eV

  energy without entropy =     -484.09482699  energy(sigma->0) =     -484.09482699


--------------------------------------------------------------------------------------------------------




--------------------------------------- Iteration      1(  26)  ---------------------------------------


    POTLOK:  cpu time    0.7178: real time    0.7243
    SETDIJ:  cpu time    0.0021: real time    0.0021
    TRIAL :  cpu time    6.8237: real time    6.8886
    CORREC:  cpu time    8.9327: real time    8.9988
    CHARGE:  cpu time    0.8062: real time    0.8120
    --------------------------------------------
      LOOP:  cpu time   17.2989: real time   17.4592

 eigenvalue-minimisations  :     0
 total energy-change (2. order) :-0.9701762E-07  (-0.6198434E-06)
 number of electron     216.0000000 magnetization 
 augmentation part       -0.4358445 magnetization 

 Free energy of the ion-electron system (eV)
  ---------------------------------------------------
  alpha Z        PSCENC =        47.94900195
  Ewald energy   TEWEN  =     48644.60191082
  -Hartree energ DENC   =    -55624.93522546
  -exchange      EXHF   =         0.00000000
  -V(xc)+E(xc)   XCENC  =       451.96677722
  PAW double counting   =    112908.53873627  -112647.79299839
  entropy T*S    EENTRO =        -0.00000000
  eigenvalues    EBANDS =     -2633.94661860
  atomic energy  EATOM  =      8369.52358910
  ---------------------------------------------------
  free energy    TOTEN  =      -484.09482708 eV

  energy without entropy =     -484.09482708  energy(sigma->0) =     -484.09482708


--------------------------------------------------------------------------------------------------------




--------------------------------------- Iteration      1(  27)  ---------------------------------------


    POTLOK:  cpu time    0.7217: real time    0.7263
    SETDIJ:  cpu time    0.0021: real time    0.0021
    TRIAL :  cpu time    6.8392: real time    6.8943
    CORREC:  cpu time    2.2297: real time    2.2490
    CHARGE:  cpu time    0.8057: real time    0.8117
    --------------------------------------------
      LOOP:  cpu time   10.6572: real time   10.7436

 eigenvalue-minimisations  :     0
 total energy-change (2. order) : 0.1149703E-05  (-0.9447041E-06)
 number of electron     216.0000000 magnetization 
 augmentation part       -0.4358474 magnetization 

 Free energy of the ion-electron system (eV)
  ---------------------------------------------------
  alpha Z        PSCENC =        47.94900195
  Ewald energy   TEWEN  =     48644.60191082
  -Hartree energ DENC   =    -55624.94774800
  -exchange      EXHF   =         0.00000000
  -V(xc)+E(xc)   XCENC  =       451.96717591
  PAW double counting   =    112909.20258646  -112648.45690885
  entropy T*S    EENTRO =        -0.00000000
  eigenvalues    EBANDS =     -2633.93443332
  atomic energy  EATOM  =      8369.52358910
  ---------------------------------------------------
  free energy    TOTEN  =      -484.09482593 eV

  energy without entropy =     -484.09482593  energy(sigma->0) =     -484.09482593


--------------------------------------------------------------------------------------------------------




--------------------------------------- Iteration      1(  28)  ---------------------------------------


    POTLOK:  cpu time    0.7199: real time    0.7246
    SETDIJ:  cpu time    0.0019: real time    0.0019
    TRIAL :  cpu time    6.8361: real time    6.8912
    CORREC:  cpu time    2.2358: real time    2.2532
    CHARGE:  cpu time    0.8077: real time    0.8133
    --------------------------------------------
      LOOP:  cpu time   10.6229: real time   10.7098

 eigenvalue-minimisations  :     0
 total energy-change (2. order) :-0.9413343E-06  (-0.2318454E-06)
 number of electron     216.0000000 magnetization 
 augmentation part       -0.4358493 magnetization 

 Free energy of the ion-electron system (eV)
  ---------------------------------------------------
  alpha Z        PSCENC =        47.94900195
  Ewald energy   TEWEN  =     48644.60191082
  -Hartree energ DENC   =    -55624.94576656
  -exchange      EXHF   =         0.00000000
  -V(xc)+E(xc)   XCENC  =       451.96698668
  PAW double counting   =    112909.26739040  -112648.52167626
  entropy T*S    EENTRO =        -0.00000000
  eigenvalues    EBANDS =     -2633.93626302
  atomic energy  EATOM  =      8369.52358910
  ---------------------------------------------------
  free energy    TOTEN  =      -484.09482688 eV

  energy without entropy =     -484.09482688  energy(sigma->0) =     -484.09482688


--------------------------------------------------------------------------------------------------------




--------------------------------------- Iteration      1(  29)  ---------------------------------------


[...]
     30     C        0.00058774
     31     C       -0.00328694
     32     C       -0.00117506
     33     C        0.00105947
     34     C        0.00046447
     35     C        0.00047409
     36     C        0.00063596
     37     C        0.00012002
     38     C        0.00020216
     39     C       -0.00014237
     40     C       -0.00021676
     41     C       -0.00005765
     42     C       -0.00047995
     43     C        0.00023960
     44     C        0.00016056
     45     C        0.00055538
     46     C        0.00112749
     47     C        0.00089629
     48     C        0.00050651
     49     C        0.00017190
     50     C       -0.00001952
     51     C        0.28171495
     52     O       -0.12875333
     53     O       -0.12208911

  Atomic reference data used in the T-S method for vdW correction:
            C6at              R0at           ALPHAat      REFSTATE
            (au)              (au)            (au)                
   ---------------------------------------------------------------
   C          46.600          3.590         12.000         0
   O          15.600          3.194          5.400         0
 
 Nth order contribution to Edisp (eV)
 Edisp(N=2):  -4.78794975054176     
 Edisp(N=3):  0.379022760520480     
 Edisp(N=4): -0.537333168372277     
 Edisp(N=5):  0.246629869127073     
 Edisp(N=6): -0.236165524470656     
 Edisp(N=inf):  -4.84537098111533     

  Tkatchenko/Scheffler method for vdW energy calculation
  ---------------------------------------------------------------------------------------------

  Parameters of vdW forcefield:
            C6ts              R0ts          ALPHAts         R0scs        ALPHAscs        RELVOL 
            (au)              (au)           (au)            (au)          (au)                 
   ---------------------------------------------------------------------------------------------
   C          32.946          3.389         10.090          3.266          9.029          0.841
   C          33.089          3.391         10.112          3.268          9.046          0.843
   C          33.269          3.394         10.139          3.277          9.122          0.845
   C          33.983          3.406         10.247          3.258          8.968          0.854
   C          32.941          3.389         10.089          3.267          9.037          0.841
   C          32.946          3.389         10.090          3.266          9.034          0.841
   C          33.806          3.403         10.221          3.272          9.080          0.852
   C          34.030          3.407         10.255          3.278          9.132          0.855
   C          33.434          3.397         10.164          3.275          9.109          0.847
   C          34.226          3.410         10.284          3.247          8.874          0.857
   C          32.876          3.388         10.079          3.267          9.043          0.840
   C          32.868          3.388         10.078          3.269          9.059          0.840
   C          34.267          3.411         10.290          3.256          8.953          0.858
   C          33.338          3.396         10.150          3.272          9.083          0.846
   C          32.930          3.389         10.087          3.262          9.001          0.841
   C          33.028          3.390         10.102          3.264          9.013          0.842
   C          32.883          3.388         10.080          3.270          9.064          0.840
   C          32.897          3.388         10.082          3.264          9.017          0.840
   C          33.057          3.391         10.107          3.274          9.101          0.842
   C          32.904          3.388         10.084          3.262          8.996          0.840
   C          33.174          3.393         10.125          3.260          8.980          0.844
   C          32.980          3.389         10.095          3.264          9.017          0.841
   C          34.692          3.418         10.354          3.244          8.848          0.863
   C          34.447          3.414         10.317          3.239          8.811          0.860
   C          32.877          3.388         10.079          3.267          9.036          0.840
   C          32.881          3.388         10.080          3.262          9.001          0.840
   C          33.610          3.400         10.191          3.277          9.126          0.849
   C          33.384          3.396         10.157          3.283          9.177          0.846
   C          33.011          3.390         10.100          3.270          9.064          0.842
   C          32.885          3.388         10.081          3.266          9.035          0.840
   C          33.556          3.399         10.183          3.273          9.091          0.849
   C          33.085          3.391         10.111          3.276          9.114          0.843
   C          32.868          3.388         10.078          3.267          9.040          0.840
   C          32.878          3.388         10.079          3.267          9.040          0.840
   C          32.899          3.388         10.083          3.265          9.026          0.840
   C          32.894          3.388         10.082          3.263          9.005          0.840
   C          32.966          3.389         10.093          3.261          8.994          0.841
   C          32.909          3.388         10.084          3.261          8.991          0.840
   C          32.929          3.389         10.087          3.263          9.004          0.841
   C          32.902          3.388         10.083          3.268          9.047          0.840
   C          32.908          3.388         10.084          3.265          9.026          0.840
   C          32.973          3.389         10.094          3.267          9.041          0.841
   C          32.925          3.389         10.087          3.261          8.989          0.841
   C          33.189          3.393         10.127          3.279          9.141          0.844
   C          32.886          3.388         10.081          3.266          9.031          0.840
   C          32.992          3.390         10.097          3.267          9.038          0.841
   C          32.874          3.388         10.079          3.263          9.009          0.840
   C          32.867          3.388         10.078          3.267          9.042          0.840
   C          32.893          3.388         10.082          3.266          9.035          0.840
   C          32.889          3.388         10.081          3.266          9.035          0.840
   C          29.324          3.324          9.519          3.164          8.213          0.793
   O          12.340          3.071          4.803          2.920          4.128          0.889
   O          12.273          3.068          4.790          2.910          4.087          0.887

  vdW correction parametrized for the method pbe       

  IVDW = 202
  VDW_RADIUS =    50.000 A
  VDW_SR =     0.830
  VDW_D =     6.000
  SCSRAD =   120.000 A
  LVDWSCS = T
  LSCSGRAD = T
  LSCALER0 = T
  ITIM = -1
  Edisp (eV):   -4.84537
    FORVDW:  cpu time   18.6447: real time   18.7824

 VOLUME and BASIS-vectors are now :
 -----------------------------------------------------------------------------
  energy-cutoff  :     1000.00
  volume of cell :     3288.85
      direct lattice vectors                 reciprocal lattice vectors
    12.325000000  0.000000000  0.000000000     0.081135903  0.046843835  0.000000000
    -6.162500000 10.673763102  0.000000000     0.000000000  0.093687670  0.000000000
     0.000000000  0.000000000 25.000000000     0.000000000  0.000000000  0.040000000

  length of vectors
    12.325000000 12.325000000 25.000000000     0.093687670  0.093687670  0.040000000


 FORCES acting on ions:
    Electron-Ion                     Ewald-Force                    Non-Local-Force
 -----------------------------------------------------------------------------------------------
   0.147E+02 0.130E+02 0.238E+02   -.147E+02 -.130E+02 -.238E+02   0.125E-01 -.111E-01 0.187E-01
   0.257E+02 0.130E+02 0.333E+02   -.257E+02 -.129E+02 -.333E+02   0.291E-01 -.154E-01 -.662E-02
   0.137E+02 0.341E+02 0.439E+02   -.137E+02 -.342E+02 -.439E+02   0.175E-02 0.774E-01 0.565E-01
   0.247E+02 0.365E+02 0.823E+02   -.249E+02 -.366E+02 -.826E+02   0.140E+00 0.647E-01 0.852E-01
   0.162E+02 0.387E+01 0.239E+02   -.162E+02 -.385E+01 -.239E+02   -.983E-03 -.244E-01 -.353E-02
   0.172E+02 -.278E+01 0.246E+02   -.172E+02 0.280E+01 -.246E+02   -.368E-01 -.934E-02 -.916E-02
   0.398E+02 0.176E+02 0.674E+02   -.400E+02 -.175E+02 -.674E+02   0.635E-01 -.130E+00 -.121E+00
   0.408E+02 -.131E+02 0.750E+02   -.408E+02 0.132E+02 -.748E+02   -.744E-01 -.322E-01 -.403E+00
   -.148E+02 0.327E+02 0.467E+02   0.148E+02 -.326E+02 -.467E+02   -.244E-01 -.470E-02 -.905E-01
   -.307E+02 0.267E+02 0.831E+02   0.308E+02 -.267E+02 -.829E+02   -.619E-01 0.125E-01 -.479E+00
   0.386E+01 -.330E+01 0.184E+02   -.384E+01 0.327E+01 -.184E+02   -.106E-01 0.784E-02 -.716E-02
   0.299E+01 -.240E+01 0.169E+02   -.299E+01 0.240E+01 -.169E+02   -.189E-01 0.797E-02 0.152E-02
   0.146E+02 -.393E+02 0.895E+02   -.148E+02 0.394E+02 -.894E+02   0.151E+00 0.688E-01 -.507E+00
   0.600E+01 -.351E+02 0.451E+02   -.605E+01 0.350E+02 -.451E+02   0.355E-01 -.196E-01 -.653E-01
   -.146E+02 0.923E+01 0.236E+02   0.146E+02 -.921E+01 -.236E+02   0.245E-01 -.135E-01 -.437E-02
   -.225E+02 0.619E+01 0.288E+02   0.225E+02 -.619E+01 -.288E+02   0.536E-02 0.315E-02 -.270E-01
   -.201E+01 -.838E+00 0.162E+02   0.202E+01 0.833E+00 -.162E+02   -.480E-03 -.755E-02 0.164E-02
   0.117E+01 0.758E+01 0.175E+02   -.117E+01 -.757E+01 -.175E+02   -.110E-01 0.527E-02 0.802E-02
   -.475E+01 -.266E+02 0.313E+02   0.473E+01 0.266E+02 -.313E+02   0.457E-01 0.375E-02 0.291E-01
   -.183E+01 -.119E+02 0.197E+02   0.183E+01 0.119E+02 -.197E+02   -.467E-03 -.426E-02 -.139E-02
   0.277E+02 -.120E+02 0.373E+02   -.277E+02 0.119E+02 -.372E+02   -.978E-02 -.619E-02 -.577E-01
   0.154E+02 -.134E+02 0.269E+02   -.153E+02 0.134E+02 -.269E+02   -.215E-01 0.325E-01 -.781E-02
   -.709E+01 0.189E+02 0.119E+03   0.730E+01 -.191E+02 -.119E+03   -.244E+00 0.155E+00 -.291E+00
   -.161E+02 -.304E+02 0.108E+03   0.160E+02 0.306E+02 -.108E+03   0.166E+00 -.160E+00 -.210E+00
   0.665E+01 -.302E+01 0.186E+02   -.661E+01 0.302E+01 -.186E+02   -.193E-01 0.428E-02 -.981E-02
   0.114E+01 0.600E+01 0.188E+02   -.113E+01 -.601E+01 -.188E+02   -.144E-01 0.573E-02 -.255E-02
   -.385E+02 0.379E+01 0.538E+02   0.384E+02 -.387E+01 -.537E+02   0.111E-01 0.390E-01 -.126E+00
   -.335E+02 -.150E+02 0.457E+02   0.335E+02 0.149E+02 -.457E+02   -.560E-01 0.548E-01 0.309E-01
   0.940E+01 -.195E+02 0.285E+02   -.941E+01 0.195E+02 -.285E+02   0.505E-02 0.226E-01 -.152E-01
   0.866E+00 -.673E+01 0.200E+02   -.891E+00 0.670E+01 -.200E+02   0.897E-02 0.167E-01 -.998E-02
   -.287E+02 -.316E+02 0.599E+02   0.288E+02 0.316E+02 -.600E+02   -.991E-01 -.703E-01 0.115E+00
   -.146E+02 -.264E+02 0.341E+02   0.146E+02 0.265E+02 -.341E+02   -.384E-02 -.458E-01 0.318E-01
   0.738E+00 0.310E+01 0.168E+02   -.735E+00 -.310E+01 -.168E+02   0.106E-01 -.119E-01 0.320E-02
   0.218E+01 0.318E+01 0.183E+02   -.219E+01 -.314E+01 -.183E+02   0.124E-02 -.136E-01 -.714E-02
   -.100E+02 0.113E+01 0.206E+02   0.100E+02 -.114E+01 -.206E+02   0.152E-01 0.874E-03 -.410E-02
   -.850E+01 -.334E+01 0.199E+02   0.851E+01 0.333E+01 -.199E+02   -.123E-01 0.112E-01 -.582E-02
   -.177E+02 -.932E+01 0.247E+02   0.178E+02 0.932E+01 -.247E+02   -.216E-01 0.141E-02 -.151E-02
   -.978E+01 -.799E+01 0.195E+02   0.979E+01 0.799E+01 -.195E+02   -.117E-01 0.321E-02 0.104E-01
   -.931E+01 -.122E+02 0.213E+02   0.932E+01 0.122E+02 -.213E+02   -.129E-01 -.149E-01 0.532E-02
   -.135E+01 -.281E+01 0.174E+02   0.134E+01 0.282E+01 -.174E+02   -.272E-02 -.905E-03 0.684E-02
   0.349E+01 0.821E+01 0.184E+02   -.348E+01 -.823E+01 -.184E+02   -.139E-02 0.145E-01 0.674E-02
   0.121E+02 0.189E+02 0.258E+02   -.121E+02 -.189E+02 -.258E+02   0.185E-01 0.245E-01 0.138E-01
   0.939E+00 0.151E+02 0.211E+02   -.931E+00 -.151E+02 -.211E+02   -.648E-02 0.134E-01 -.185E-02
   0.506E+00 0.310E+02 0.361E+02   -.477E+00 -.311E+02 -.361E+02   -.560E-01 0.118E-01 0.280E-01
   -.287E+01 0.577E+01 0.201E+02   0.288E+01 -.576E+01 -.201E+02   0.248E-02 -.870E-02 -.807E-02
   -.127E+02 0.164E+02 0.271E+02   0.127E+02 -.164E+02 -.271E+02   0.615E-03 -.370E-02 -.198E-01
   -.193E+01 -.555E+01 0.182E+02   0.192E+01 0.555E+01 -.182E+02   0.172E-01 0.449E-02 0.425E-03
   -.522E+01 0.217E+01 0.174E+02   0.519E+01 -.217E+01 -.174E+02   0.140E-01 -.188E-02 -.825E-02
   0.376E+00 -.344E+01 0.170E+02   -.362E+00 0.342E+01 -.170E+02   0.706E-02 -.168E-02 0.351E-02
   0.543E+01 0.401E+01 0.173E+02   -.543E+01 -.401E+01 -.173E+02   -.599E-03 0.112E-01 0.358E-02
   0.544E+00 -.267E+00 -.438E+03   -.545E+00 0.257E+00 0.439E+03   -.464E-01 0.171E-01 -.173E+00
   -.229E+03 0.155E+03 -.673E+03   0.279E+03 -.189E+03 0.675E+03   -.504E+02 0.345E+02 -.169E+01
   0.229E+03 -.155E+03 -.648E+03   -.279E+03 0.189E+03 0.645E+03   0.504E+02 -.347E+02 0.456E+01
 -----------------------------------------------------------------------------------------------
   0.633E-01 0.592E-01 -.649E+00   0.171E-12 -.142E-12 -.796E-12   -.642E-01 -.587E-01 0.649E+00
 
 
 POSITION                                       TOTAL-FORCE (eV/Angst)
 -----------------------------------------------------------------------------------
     11.98348      0.00342      0.01417        -0.002014     -0.006905      0.000591
     -0.34154      1.42665      0.01100         0.027390      0.020789     -0.000210
      2.12355      0.00315      0.01249         0.015103     -0.026861      0.011233
      2.12326      1.42653      0.00641        -0.024646     -0.001687     -0.119847
     10.75099      2.13819      0.01213        -0.003573     -0.004182      0.004510
     -1.57382      3.56123      0.01110        -0.010562      0.009928      0.004084
      0.89078      2.13854      0.00548        -0.044954      0.007551     -0.095984
      0.89099      3.56147      0.00181        -0.063622      0.040331     -0.239496
      4.58864      0.00346      0.01135         0.014966      0.077544     -0.025678
      4.58894      1.42623      0.00646         0.089178     -0.075147     -0.319612
      9.51854      4.27281      0.01369         0.010614     -0.021701      0.000444
     -2.80632      5.69591      0.01434        -0.024241      0.014080      0.001092
      2.12300      4.27302      0.00000        -0.045708      0.144484     -0.394449
      2.12335      5.69594      0.00581        -0.011057     -0.094517     -0.023315
      7.05344      0.00333      0.01399         0.001773     -0.000265      0.005013
      7.05353      1.42635      0.01368        -0.009421      0.009114      0.001703
      8.28610      6.40752      0.01601         0.009617     -0.012265     -0.000204
     -4.03885      7.83070      0.01636        -0.014712      0.011242      0.000069
      3.35586      6.40753      0.01007         0.025678      0.006727      0.008212
      3.35599      7.83072      0.01320        -0.003020     -0.013886      0.000890
     -0.34146      4.27290      0.00723         0.053093     -0.032756     -0.008336
     -0.34138      5.69591      0.00946        -0.007164      0.012430      0.009124
      3.35624      2.13791      0.00222        -0.031862     -0.037384     -0.646439
      3.35573      3.56155      0.00139         0.068662      0.085701     -0.453028
     -1.57395      6.40758      0.01311         0.022239     -0.000016     -0.000992
     -1.57385      7.83068      0.01438        -0.005261      0.001047      0.000184
      5.82093      2.13784      0.01033        -0.043479     -0.039503     -0.050637
      5.82114      3.56097      0.01156        -0.003179      0.002729      0.009366
      0.89092      6.40755      0.00907        -0.003638      0.001616      0.008274
      0.89106      7.83068      0.01235        -0.017992     -0.010439      0.000254
      4.58871      4.27293      0.00850        -0.000136     -0.026298     -0.009526
      4.58852      5.69606      0.01149        -0.007636      0.026530      0.006123
      9.51845      0.00337      0.01490         0.013290     -0.012309      0.000464
      9.51855      1.42644      0.01438        -0.004118      0.021914     -0.000464
      8.28593      2.13803      0.01453         0.002032     -0.015358      0.001688
      8.28613      3.56115      0.01464        -0.001876      0.005277      0.000390
      7.05356      4.27269      0.01457        -0.008348     -0.008708      0.001988
      7.05362      5.69588      0.01553        -0.000736      0.006014     -0.000169
      5.82112      6.40755      0.01489        -0.005391     -0.005396     -0.001117
      5.82102      7.83073      0.01579        -0.012842      0.010620     -0.000028
      7.05363      8.54227      0.01631         0.009185     -0.007317      0.000811
     -5.27149      9.96549      0.01495         0.003436      0.004720     -0.002153
     -2.80638      8.54234      0.01558         0.001681      0.010991     -0.000023
     -2.80627      9.96553      0.01362        -0.025805     -0.002059      0.010764
     -0.34149      8.54239      0.01378         0.011173      0.004512      0.000816
     -0.34138      9.96550      0.01354        -0.009810      0.004108      0.004842
      2.12343      8.54232      0.01336         0.009641      0.004132      0.000768
      2.12354      9.96544      0.01469        -0.010047     -0.000628     -0.002225
      4.58846      8.54235      0.01505         0.021795     -0.013740      0.001340
      4.58853      9.96550      0.01517        -0.000995      0.012832      0.001109
      3.04930      2.68154      2.50000        -0.047998      0.007523      0.452657
      4.02070      2.02068      2.56442        -0.488669      0.407589      0.816297
      2.07767      3.34267      2.44055         0.583965     -0.502745      1.028831
 -----------------------------------------------------------------------------------
    total drift:                               -0.000925      0.000500     -0.000406


--------------------------------------------------------------------------------------------------------



  FREE ENERGIE OF THE ION-ELECTRON SYSTEM (eV)
  ---------------------------------------------------
  free  energy   TOTEN  =      -488.94019810 eV

  energy  without entropy=     -488.94019810  energy(sigma->0) =     -488.94019810
 


--------------------------------------------------------------------------------------------------------


    POTLOK:  cpu time    0.7223: real time    0.7272


--------------------------------------------------------------------------------------------------------


     LOOP+:  cpu time  419.1854: real time  423.0454
    4ORBIT:  cpu time    0.0000: real time    0.0000

 total amount of memory used by VASP MPI-rank0   551512. kBytes
=======================================================================

   base      :      30000. kBytes
   nonl-proj :     230539. kBytes
   fftplans  :      40716. kBytes
   grid      :     216018. kBytes
   one-center:        162. kBytes
   wavefun   :      34077. kBytes
 
  
  
 General timing and accounting informations for this job:
 ========================================================
  
                  Total CPU time used (sec):      463.960
                            User time (sec):      440.747
                          System time (sec):       23.213
                         Elapsed time (sec):      469.383
  
                   Maximum memory used (kb):     1005672.
                   Average memory used (kb):          N/A
  
                          Minor page faults:       128509
                          Major page faults:          124
                 Voluntary context switches:         3712
