 vasp.6.2.1 16May21 (build Nov 06 2021 14:46:37) complex                        
  
 executed on             LinuxIFC date 2025.04.16  18:28:02
 running on  112 total cores
 distrk:  each k-point on   56 cores,    2 groups
 distr:  one band on NCORE=   1 cores,   56 groups


--------------------------------------------------------------------------------------------------------


 INCAR:
   ALGO = Conjugate
   KPAR = 2
   NCORE = 32
   PREC = Accurate
   EDIFF = 1E-7
   ENCUT = 1000
   ISMEAR = 0
   SIGMA = 0.01
   ISIF = 0
   GGA = PE
   IVDW = 202
   LVDWEXPANSION = .TRUE.
   LWAVE = .FALSE.
   LCHARGE = .FALSE.
   SYMPREC = 1E-7

 POTCAR:    PAW_PBE C_h 06Feb2004                 
 POTCAR:    PAW_PBE O_h 06Feb2004                 
 -----------------------------------------------------------------------------
|                                                                             |
|           W    W    AA    RRRRR   N    N  II  N    N   GGGG   !!!           |
|           W    W   A  A   R    R  NN   N  II  NN   N  G    G  !!!           |
|           W    W  A    A  R    R  N N  N  II  N N  N  G       !!!           |
|           W WW W  AAAAAA  RRRRR   N  N N  II  N  N N  G  GGG   !            |
|           WW  WW  A    A  R   R   N   NN  II  N   NN  G    G                |
|           W    W  A    A  R    R  N    N  II  N    N   GGGG   !!!           |
|                                                                             |
|     The value NCORE = 32 specified in the INCAR file was overwritten,       |
|     because it was not compatible with the 56 processes available:          |
|     NCORE = 1                                                               |
|     was used instead, please check that this makes sense for your           |
|     machine.                                                                |
|                                                                             |
 -----------------------------------------------------------------------------

 -----------------------------------------------------------------------------
|                                                                             |
|           W    W    AA    RRRRR   N    N  II  N    N   GGGG   !!!           |
|           W    W   A  A   R    R  NN   N  II  NN   N  G    G  !!!           |
|           W    W  A    A  R    R  N N  N  II  N N  N  G       !!!           |
|           W WW W  AAAAAA  RRRRR   N  N N  II  N  N N  G  GGG   !            |
|           WW  WW  A    A  R   R   N   NN  II  N   NN  G    G                |
|           W    W  A    A  R    R  N    N  II  N    N   GGGG   !!!           |
|                                                                             |
|     For optimal performance we recommend to set                             |
|       NCORE = 2 up to number-of-cores-per-socket                            |
|     NCORE specifies how many cores store one orbital (NPAR=cpu/NCORE).      |
|     This setting can greatly improve the performance of VASP for DFT.       |
|     The default, NCORE=1 might be grossly inefficient on modern             |
|     multi-core architectures or massively parallel machines. Do your        |
|     own testing! More info at https://www.vasp.at/wiki/index.php/NCORE      |
|     Unfortunately you need to use the default for GW and RPA                |
|     calculations (for HF NCORE is supported but not extensively tested      |
|     yet).                                                                   |
|                                                                             |
 -----------------------------------------------------------------------------

 POTCAR:    PAW_PBE C_h 06Feb2004                 
   VRHFIN =C: s2p2                                                                                  
   LEXCH  = PE                                                                                      
   EATOM  =   147.1560 eV,   10.8157 Ry                                                             
                                                                                                    
   TITEL  = PAW_PBE C_h 06Feb2004                                                                   
   LULTRA =        F    use ultrasoft PP ?                                                          
   IUNSCR =        1    unscreen: 0-lin 1-nonlin 2-no                                               
   RPACOR =    0.800    partial core radius                                                         
   POMASS =   12.011; ZVAL   =    4.000    mass and valenz                                          
   RCORE  =    1.100    outmost cutoff radius                                                       
   RWIGS  =    1.630; RWIGS  =    0.863    wigner-seitz radius (au A)                               
   ENMAX  =  700.000; ENMIN  =  500.000 eV                                                          
   ICORE  =        2    local potential                                                             
   LCOR   =        T    correct aug charges                                                         
   LPAW   =        T    paw PP                                                                      
   EAUG   =  946.768                                                                                
   DEXC   =    0.000                                                                                
   RMAX   =    1.128    core radius for proj-oper                                                   
   RAUG   =    1.300    factor for augmentation sphere                                              
   RDEP   =    1.162    radius for radial grids                                                     
   RDEPT  =    1.088    core radius for aug-charge                                                  
                                                                                                    
   Atomic configuration                                                                             
    4 entries                                                                                       
     n  l   j            E        occ.                                                              
     1  0  0.50      -273.3789   2.0000                                                             
     2  0  0.50       -13.7508   2.0000                                                             
     2  1  0.50        -5.2854   2.0000                                                             
     3  2  1.50        -5.4423   0.0000                                                             
   Description                                                                                      
     l       E           TYP  RCUT    TYP  RCUT                                                     
     0    -13.7508458     23  1.100                                                                 
     0     -8.2022199     23  1.100                                                                 
     1     -5.2854383     23  1.100                                                                 
     1      1.1560700     23  1.100                                                                 
     2     -5.4423304      7  1.100                                                                 
  local pseudopotential read in
  partial core-charges read in
  partial kinetic energy density read in
  atomic valenz-charges read in
  non local Contribution for L=           0  read in
    real space projection operators read in
  non local Contribution for L=           0  read in
    real space projection operators read in
  non local Contribution for L=           1  read in
    real space projection operators read in
  non local Contribution for L=           1  read in
    real space projection operators read in
    PAW grid and wavefunctions read in
 
   number of l-projection  operators is LMAX  =           4
   number of lm-projection operators is LMMAX =           8
 
 POTCAR:    PAW_PBE O_h 06Feb2004                 
   VRHFIN =O: s2p4                                                                                  
   LEXCH  = PE                                                                                      
   EATOM  =   432.3788 eV,   31.7789 Ry                                                             
                                                                                                    
   TITEL  = PAW_PBE O_h 06Feb2004                                                                   
   LULTRA =        F    use ultrasoft PP ?                                                          
   IUNSCR =        1    unscreen: 0-lin 1-nonlin 2-no                                               
   RPACOR =    0.800    partial core radius                                                         
   POMASS =   16.000; ZVAL   =    6.000    mass and valenz                                          
   RCORE  =    1.100    outmost cutoff radius                                                       
   RWIGS  =    1.400; RWIGS  =    0.741    wigner-seitz radius (au A)                               
   ENMAX  =  700.000; ENMIN  =  500.000 eV                                                          
   ICORE  =        2    local potential                                                             
   LCOR   =        T    correct aug charges                                                         
   LPAW   =        T    paw PP                                                                      
   EAUG   =  888.804                                                                                
   DEXC   =    0.000                                                                                
   RMAX   =    1.128    core radius for proj-oper                                                   
   RAUG   =    1.300    factor for augmentation sphere                                              
   RDEP   =    1.125    radius for radial grids                                                     
   RDEPT  =    1.088    core radius for aug-charge                                                  
                                                                                                    
   Atomic configuration                                                                             
    4 entries                                                                                       
     n  l   j            E        occ.                                                              
     1  0  0.50      -514.6923   2.0000                                                             
     2  0  0.50       -23.9615   2.0000                                                             
     2  1  0.50        -9.0305   4.0000                                                             
     3  2  1.50        -9.5241   0.0000                                                             
   Description                                                                                      
     l       E           TYP  RCUT    TYP  RCUT                                                     
     0    -23.9615319     23  1.100                                                                 
     0    -25.3221145     23  1.100                                                                 
     1     -9.0304911     23  1.100                                                                 
     1     -5.4802209     23  1.100                                                                 
     2     -9.5240782      7  1.100                                                                 
  local pseudopotential read in
  partial core-charges read in
  partial kinetic energy density read in
  atomic valenz-charges read in
  non local Contribution for L=           0  read in
    real space projection operators read in
  non local Contribution for L=           0  read in
    real space projection operators read in
  non local Contribution for L=           1  read in
    real space projection operators read in
  non local Contribution for L=           1  read in
    real space projection operators read in
    PAW grid and wavefunctions read in
 
   number of l-projection  operators is LMAX  =           4
   number of lm-projection operators is LMMAX =           8
 
 -----------------------------------------------------------------------------
|                                                                             |
|               ----> ADVICE to this user running VASP <----                  |
|                                                                             |
|     You have a (more or less) 'large supercell' and for larger cells it     |
|     might be more efficient to use real-space projection operators.         |
|     Therefore, try LREAL= Auto in the INCAR file.                           |
|     Mind: For very accurate calculation, you might also keep the            |
|     reciprocal projection scheme (i.e. LREAL=.FALSE.).                      |
|                                                                             |
 -----------------------------------------------------------------------------

  PAW_PBE C_h 06Feb2004                 :
 energy of atom  1       EATOM= -147.1560
 kinetic energy error for atom=    0.0031 (will be added to EATOM!!)
  PAW_PBE O_h 06Feb2004                 :
 energy of atom  2       EATOM= -432.3788
 kinetic energy error for atom=    0.0171 (will be added to EATOM!!)
 
 
 POSCAR:  C  O
  positions in cartesian coordinates
  No initial velocities read in
 exchange correlation table for  LEXCH =        8
   RHO(1)=    0.500       N(1)  =     2000
   RHO(2)=  100.500       N(2)  =     4000
 


--------------------------------------------------------------------------------------------------------


 ion  position               nearest neighbor table
   1  0.972  0.000  0.001-  50 1.42   2 1.42  42 1.42
   2  0.039  0.134  0.000-   5 1.42   7 1.42   1 1.42
   3  0.172  0.000  0.000-  42 1.42  44 1.42   4 1.42
   4  0.239  0.134  0.000-   7 1.42   3 1.42  23 1.42
   5  0.972  0.200  0.000-   6 1.42   2 1.42  34 1.42
   6  0.039  0.334  0.000-   5 1.42  21 1.42  11 1.42
   7  0.172  0.200  0.000-   8 1.42   2 1.42   4 1.42
   8  0.239  0.334  0.000-  13 1.42   7 1.42  21 1.42
   9  0.372  0.000  0.000-  10 1.42  44 1.42  46 1.42
  10  0.439  0.134  0.000-  27 1.42   9 1.42  23 1.42
  11  0.972  0.400  0.001-  12 1.42  36 1.42   6 1.42
  12  0.039  0.534  0.001-  25 1.42  11 1.42  17 1.42
  13  0.372  0.400  0.000-   8 1.42  14 1.42  24 1.42
  14  0.439  0.534  0.000-  13 1.42  29 1.42  19 1.42
  15  0.572  0.000  0.001-  46 1.42  16 1.42  48 1.42
  16  0.639  0.134  0.001-  15 1.42  35 1.42  27 1.42
  17  0.972  0.600  0.001-  38 1.42  18 1.42  12 1.42
  18  0.039  0.734  0.001-  43 1.42  41 1.42  17 1.42
  19  0.572  0.600  0.000-  14 1.42  20 1.42  32 1.42
  20  0.639  0.734  0.001-  49 1.42  19 1.42  47 1.42
  21  0.172  0.400  0.000-  22 1.42   8 1.42   6 1.42
  22  0.239  0.534  0.000-  21 1.42  29 1.42  25 1.42
  23  0.372  0.200  0.000-  10 1.42   4 1.42  24 1.42
  24  0.439  0.334  0.000-  13 1.42  31 1.42  23 1.42
  25  0.172  0.600  0.001-  26 1.42  12 1.42  22 1.42
  26  0.239  0.734  0.001-  25 1.42  45 1.42  43 1.42
  27  0.572  0.200  0.000-  10 1.42  28 1.42  16 1.42
  28  0.639  0.334  0.000-  27 1.42  37 1.42  31 1.42
  29  0.372  0.600  0.000-  22 1.42  14 1.42  30 1.42
  30  0.439  0.734  0.000-  47 1.42  29 1.42  45 1.42
  31  0.572  0.400  0.000-  32 1.42  28 1.42  24 1.42
  32  0.639  0.534  0.000-  31 1.42  39 1.42  19 1.42
  33  0.772  0.000  0.001-  34 1.42  48 1.42  50 1.42
  34  0.839  0.134  0.001-  33 1.42   5 1.42  35 1.42
  35  0.772  0.200  0.001-  36 1.42  16 1.42  34 1.42
  36  0.839  0.334  0.001-  35 1.42  11 1.42  37 1.42
  37  0.772  0.400  0.001-  28 1.42  38 1.42  36 1.42
  38  0.839  0.534  0.001-  17 1.42  37 1.42  39 1.42
  39  0.772  0.600  0.001-  40 1.42  38 1.42  32 1.42
  40  0.839  0.734  0.001-  39 1.42  49 1.42  41 1.42
  41  0.972  0.800  0.001-  18 1.42  42 1.42  40 1.42
  42  0.039  0.934  0.001-   3 1.42  41 1.42   1 1.42
  43  0.172  0.800  0.001-  18 1.42  44 1.42  26 1.42
  44  0.239  0.934  0.001-   9 1.42  43 1.42   3 1.42
  45  0.372  0.800  0.001-  26 1.42  46 1.42  30 1.42
  46  0.439  0.934  0.001-  15 1.42  45 1.42   9 1.42
  47  0.572  0.800  0.001-  30 1.42  48 1.42  20 1.42
  48  0.639  0.934  0.001-  47 1.42  33 1.42  15 1.42
  49  0.772  0.800  0.001-  50 1.42  20 1.42  40 1.42
  50  0.839  0.934  0.001-  49 1.42   1 1.42  33 1.42
  51  0.373  0.251  0.212-  52 1.18  53 1.18
  52  0.421  0.189  0.214-  51 1.18
  53  0.325  0.313  0.210-  51 1.18
 
  LATTYP: Found a hexagonal cell.
 ALAT       =    12.3250000000
 C/A-ratio  =     2.0283975659
  
  Lattice vectors:
  
 A1 = (  12.3250000000,   0.0000000000,   0.0000000000)
 A2 = (  -6.1625000000,  10.6737631016,   0.0000000000)
 A3 = (   0.0000000000,   0.0000000000,  25.0000000000)


Analysis of symmetry for initial positions (statically):
=====================================================================
 Subroutine PRICEL returns:
 Original cell was already a primitive cell.
 

 Routine SETGRP: Setting up the symmetry group for a 
 hexagonal supercell.


 Subroutine GETGRP returns: Found  1 space group operations
 (whereof  1 operations were pure point group operations)
 out of a pool of 24 trial point group operations.


The static configuration has the point symmetry C_1 .


Analysis of symmetry for dynamics (positions and initial velocities):
=====================================================================
 Subroutine PRICEL returns:
 Original cell was already a primitive cell.
 

 Routine SETGRP: Setting up the symmetry group for a 
 hexagonal supercell.


 Subroutine GETGRP returns: Found  1 space group operations
 (whereof  1 operations were pure point group operations)
 out of a pool of 24 trial point group operations.


The dynamic configuration has the point symmetry C_1 .


 Subroutine INISYM returns: Found  1 space group operations
 (whereof  1 operations are pure point group operations),
 and found     1 'primitive' translations


----------------------------------------------------------------------------------------

                                     Primitive cell                                     

  volume of cell :    3288.8533

  direct lattice vectors                    reciprocal lattice vectors
    12.325000000  0.000000000  0.000000000     0.081135903  0.046843835  0.000000000
    -6.162500000 10.673763102  0.000000000     0.000000000  0.093687670  0.000000000
     0.000000000  0.000000000 25.000000000     0.000000000  0.000000000  0.040000000

  length of vectors
    12.325000000 12.325000000 25.000000000     0.093687670  0.093687670  0.040000000

  position of ions in fractional coordinates (direct lattice)
     0.972450841  0.000320818  0.000566711
     0.039118382  0.133659505  0.000440173
     0.172443627  0.000295449  0.000499628
     0.239096278  0.133647917  0.000256468
     0.972452058  0.200322012  0.000485219
     0.039128360  0.333643771  0.000444150
     0.172451764  0.200354552  0.000219167
     0.239124359  0.333665720  0.000072260
     0.372465565  0.000324403  0.000453913
     0.439137473  0.133619939  0.000258338
     0.972449824  0.400309362  0.000547611
     0.039124981  0.533636789  0.000573410
     0.372416176  0.400329481  0.000000000
     0.439099602  0.533638981  0.000232414
     0.572443676  0.000312125  0.000559580
     0.639110207  0.133631751  0.000547275
     0.972452703  0.600305653  0.000640289
     0.039124495  0.733640359  0.000654513
     0.572433471  0.600306242  0.000402895
     0.639111888  0.733641879  0.000527905
     0.172454630  0.400318228  0.000289045
     0.239120185  0.533636548  0.000378509
     0.372459750  0.200295993  0.000088997
     0.439107096  0.333673419  0.000055762
     0.172452155  0.600311506  0.000524340
     0.239123371  0.733638574  0.000575129
     0.572431082  0.200289171  0.000413296
     0.639112773  0.333618630  0.000462376
     0.372439808  0.600308022  0.000362844
     0.439116090  0.733637858  0.000494190
     0.572469358  0.400320504  0.000339918
     0.639119408  0.533650873  0.000459610
     0.772445723  0.000315427  0.000596161
     0.839116277  0.133640203  0.000575306
     0.772440513  0.200307432  0.000581033
     0.839120241  0.333635728  0.000585467
     0.772446320  0.400298367  0.000582978
     0.839118980  0.533633964  0.000621100
     0.772456143  0.600308173  0.000595712
     0.839115033  0.733643180  0.000631512
     0.972455313  0.800305582  0.000652233
     0.039114714  0.933643289  0.000598051
     0.172457971  0.800312211  0.000623372
     0.239134551  0.933647193  0.000544850
     0.372451396  0.800316674  0.000551399
     0.439124489  0.933644769  0.000541430
     0.572441101  0.800310054  0.000534535
     0.639115067  0.933638985  0.000587644
     0.772445098  0.800313187  0.000602062
     0.839116614  0.933644338  0.000606830
     0.373021009  0.251226878  0.211892619
     0.420879805  0.189313152  0.214469493
     0.325156981  0.313167186  0.209514424

  ion indices of the primitive-cell ions
   primitive index   ion index
                 1           1
                 2           2
                 3           3
                 4           4
                 5           5
                 6           6
                 7           7
                 8           8
                 9           9
                10          10
                11          11
                12          12
                13          13
                14          14
                15          15
                16          16
                17          17
                18          18
                19          19
                20          20
                21          21
                22          22
                23          23
                24          24
                25          25
                26          26
                27          27
                28          28
                29          29
                30          30
                31          31
                32          32
                33          33
                34          34
                35          35
                36          36
                37          37
                38          38
                39          39
                40          40
                41          41
                42          42
                43          43
                44          44
                45          45
                46          46
                47          47
                48          48
                49          49
                50          50
                51          51
                52          52
                53          53

----------------------------------------------------------------------------------------

 
 
 KPOINTS: auto                                    

Automatic generation of k-mesh.
 Grid dimensions read from file:
 generate k-points for:    1    1    1

 Generating k-lattice:

  Cartesian coordinates                     Fractional coordinates (reciprocal lattice)
     0.081135903  0.046843835  0.000000000     1.000000000 -0.000000000  0.000000000
     0.000000000  0.093687670  0.000000000     0.000000000  1.000000000  0.000000000
     0.000000000  0.000000000  0.040000000     0.000000000  0.000000000  1.000000000

  Length of vectors
     0.093687670  0.093687670  0.040000000

  Shift w.r.t. Gamma in fractional coordinates (k-lattice)
     0.000000000  0.000000000  0.000000000

 
 Subroutine IBZKPT returns following result:
 ===========================================
 
 Found      1 irreducible k-points:
 
 Following reciprocal coordinates:
            Coordinates               Weight
  0.000000  0.000000  0.000000      1.000000
 
 Following cartesian coordinates:
            Coordinates               Weight
  0.000000  0.000000  0.000000      1.000000
 


--------------------------------------------------------------------------------------------------------




 Dimension of arrays:
   k-points           NKPTS =      1   k-points in BZ     NKDIM =      1   number of bands    NBANDS=    168
   number of dos      NEDOS =    301   number of ions     NIONS =     53
   non local maximal  LDIM  =      4   non local SUM 2l+1 LMDIM =      8
   total plane-waves  NPLWV = ******
   max r-space proj   IRMAX =      1   max aug-charges    IRDMAX=  10008
   dimension x,y,z NGX =   128 NGY =  128 NGZ =  270
   dimension x,y,z NGXF=   256 NGYF=  256 NGZF=  540
   support grid    NGXF=   256 NGYF=  256 NGZF=  540
   ions per type =              51   2
   NGX,Y,Z   is equivalent  to a cutoff of  17.27, 17.27, 17.95 a.u.
   NGXF,Y,Z  is equivalent  to a cutoff of  34.53, 34.53, 35.91 a.u.

 SYSTEM =  unknown system                          
 POSCAR =   C  O                                   

 Startparameter for this run:
   NWRITE =      2    write-flag & timer
   PREC   = accura    normal or accurate (medium, high low for compatibility)
   ISTART =      0    job   : 0-new  1-cont  2-samecut
   ICHARG =      2    charge: 1-file 2-atom 10-const
   ISPIN  =      1    spin polarized calculation?
   LNONCOLLINEAR =      F non collinear calculations
   LSORBIT =      F    spin-orbit coupling
   INIWAV =      1    electr: 0-lowe 1-rand  2-diag
   LASPH  =      F    aspherical Exc in radial PAW
 Electronic Relaxation 1
   ENCUT  = 1000.0 eV  73.50 Ry    8.57 a.u.  31.78 31.78 64.46*2*pi/ulx,y,z
   ENINI  = 1000.0     initial cutoff
   ENAUG  =  946.8 eV  augmentation charge cutoff
   NELM   =     60;   NELMIN=  2; NELMDL= -5     # of ELM steps 
   EDIFF  = 0.1E-06   stopping-criterion for ELM
   LREAL  =      F    real-space projection
   NLSPLINE    = F    spline interpolate recip. space projectors
   LCOMPAT=      F    compatible to vasp.4.4
   GGA_COMPAT  = T    GGA compatible to vasp.4.4-vasp.4.6
   LMAXPAW     = -100 max onsite density
   LMAXMIX     =    2 max onsite mixed and CHGCAR
   VOSKOWN=      0    Vosko Wilk Nusair interpolation
   ROPT   =    0.00000   0.00000
 Ionic relaxation
   EDIFFG = 0.1E-05   stopping-criterion for IOM
   NSW    =      0    number of steps for IOM
   NBLOCK =      1;   KBLOCK =      1    inner block; outer block 
   IBRION =     -1    ionic relax: 0-MD 1-quasi-New 2-CG
   NFREE  =      0    steps in history (QN), initial steepest desc. (CG)
   ISIF   =      0    stress and relaxation
   IWAVPR =     10    prediction:  0-non 1-charg 2-wave 3-comb
   ISYM   =      2    0-nonsym 1-usesym 2-fastsym
   LCORR  =      T    Harris-Foulkes like correction to forces

   POTIM  = 0.5000    time-step for ionic-motion
   TEIN   =    0.0    initial temperature
   TEBEG  =    0.0;   TEEND  =   0.0 temperature during run
   SMASS  =  -3.00    Nose mass-parameter (am)
   estimated Nose-frequenzy (Omega)   =  0.10E-29 period in steps = 0.13E+47 mass=  -0.347E-26a.u.
   SCALEE = 1.0000    scale energy and forces
   NPACO  =    256;   APACO  = 16.0  distance and # of slots for P.C.
   PSTRESS=    0.0 pullay stress

  Mass of Ions in am
   POMASS =  12.01 16.00
  Ionic Valenz
   ZVAL   =   4.00  6.00
  Atomic Wigner-Seitz radii
   RWIGS  =  -1.00 -1.00
  virtual crystal weights 
   VCA    =   1.00  1.00
   NELECT =     216.0000    total number of electrons
   NUPDOWN=      -1.0000    fix difference up-down

 DOS related values:
   EMIN   =  10.00;   EMAX   =-10.00  energy-range for DOS
   EFERMI =   0.00
   ISMEAR =     0;   SIGMA  =   0.01  broadening in eV -4-tet -1-fermi 0-gaus

 Electronic relaxation 2 (details)
   IALGO  =     58    algorithm
   LDIAG  =      T    sub-space diagonalisation (order eigenvalues)
   LSUBROT=      F    optimize rotation matrix (better conditioning)
   TURBO    =      0    0=normal 1=particle mesh
   IRESTART =      0    0=no restart 2=restart with 2 vectors
   NREBOOT  =      0    no. of reboots
   NMIN     =      0    reboot dimension
   EREF     =   0.00    reference energy to select bands
   IMIX   =      4    mixing-type and parameters
     AMIX     =   0.40;   BMIX     =  1.00
     AMIX_MAG =   1.60;   BMIX_MAG =  1.00
     AMIN     =   0.10
     WC   =   100.;   INIMIX=   1;  MIXPRE=   1;  MAXMIX= -45

 Intra band minimization:
   WEIMIN = 0.0000     energy-eigenvalue tresh-hold
   EBREAK =  0.15E-09  absolut break condition
   DEPER  =   0.30     relativ break condition  

   TIME   =   0.40     timestep for ELM

  volume/ion in A,a.u.               =      62.05       418.76
  Fermi-wavevector in a.u.,A,eV,Ry     =   0.660508  1.248179  5.935820  0.436270
  Thomas-Fermi vector in A             =   1.732977
 
 Write flags
   LWAVE        =      F    write WAVECAR
   LDOWNSAMPLE  =      F    k-point downsampling of WAVECAR
   LCHARG       =      T    write CHGCAR
   LVTOT        =      F    write LOCPOT, total local potential
   LVHAR        =      F    write LOCPOT, Hartree potential only
   LELF         =      F    write electronic localiz. function (ELF)
   LORBIT       =      0    0 simple, 1 ext, 2 COOP (PROOUT), +10 PAW based schemes


 Dipole corrections
   LMONO  =      F    monopole corrections only (constant potential shift)
   LDIPOL =      F    correct potential (dipole corrections)
   IDIPOL =      0    1-x, 2-y, 3-z, 4-all directions 
   EPSILON=  1.0000000 bulk dielectric constant

 Exchange correlation treatment:
   GGA     =    PE    GGA type
   LEXCH   =     8    internal setting for exchange type
   VOSKOWN=      0    Vosko Wilk Nusair interpolation
   LHFCALC =     F    Hartree Fock is set to
   LHFONE  =     F    Hartree Fock one center treatment
   AEXX    =    0.0000 exact exchange contribution

 Linear response parameters
   LEPSILON=     F    determine dielectric tensor
   LRPA    =     F    only Hartree local field effects (RPA)
   LNABLA  =     F    use nabla operator in PAW spheres
   LVEL    =     F    velocity operator in full k-point grid
   LINTERFAST=   F  fast interpolation
   KINTER  =     0    interpolate to denser k-point grid
   CSHIFT  =0.1000    complex shift for real part using Kramers Kronig
   OMEGAMAX=  -1.0    maximum frequency
   DEG_THRESHOLD= 0.2000000E-02 threshold for treating states as degnerate
   RTIME   =   -0.100 relaxation time in fs
  (WPLASMAI=    0.000 imaginary part of plasma frequency in eV, 0.658/RTIME)
   DFIELD  = 0.0000000 0.0000000 0.0000000 field for delta impulse in time
 
 Orbital magnetization related:
   ORBITALMAG=     F  switch on orbital magnetization
   LCHIMAG   =     F  perturbation theory with respect to B field
   DQ        =  0.001000  dq finite difference perturbation B field
   LLRAUG    =     F  two centre corrections for induced B field



--------------------------------------------------------------------------------------------------------


 Static calculation
 charge density and potential will be updated during run
 non-spin polarized calculation
 Conjugate gradient for all bands (Freysoldt, et al. PRB 79, 241103 (2009))
 preconditioned conjugated gradient                                        
 perform sub-space diagonalisation
    before iterative eigenvector-optimisation
 modified Broyden-mixing scheme, WC =      100.0
 initial mixing is a Kerker type mixing with AMIX =  0.4000 and BMIX =      1.0000
 Hartree-type preconditioning will be used
 using additional bands           60
 reciprocal scheme for non local part
 use partial core corrections
 no Harris-corrections to forces 
 use gradient corrections 
 use of overlap-Matrix (Vanderbilt PP)
 Gauss-broadening in eV      SIGMA  =   0.01


--------------------------------------------------------------------------------------------------------


  energy-cutoff  :     1000.00
  volume of cell :     3288.85
      direct lattice vectors                 reciprocal lattice vectors
    12.325000000  0.000000000  0.000000000     0.081135903  0.046843835  0.000000000
    -6.162500000 10.673763102  0.000000000     0.000000000  0.093687670  0.000000000
     0.000000000  0.000000000 25.000000000     0.000000000  0.000000000  0.040000000

  length of vectors
    12.325000000 12.325000000 25.000000000     0.093687670  0.093687670  0.040000000


 
 k-points in units of 2pi/SCALE and weight: auto                                    
   0.00000000  0.00000000  0.00000000       1.000
 
 k-points in reciprocal lattice and weights: auto                                    
   0.00000000  0.00000000  0.00000000       1.000
 
 position of ions in fractional coordinates (direct lattice) 
   0.97245084  0.00032082  0.00056671
   0.03911838  0.13365950  0.00044017
   0.17244363  0.00029545  0.00049963
   0.23909628  0.13364792  0.00025647
   0.97245206  0.20032201  0.00048522
   0.03912836  0.33364377  0.00044415
   0.17245176  0.20035455  0.00021917
   0.23912436  0.33366572  0.00007226
   0.37246557  0.00032440  0.00045391
   0.43913747  0.13361994  0.00025834
   0.97244982  0.40030936  0.00054761
   0.03912498  0.53363679  0.00057341
   0.37241618  0.40032948  0.00000000
   0.43909960  0.53363898  0.00023241
   0.57244368  0.00031213  0.00055958
   0.63911021  0.13363175  0.00054727
   0.97245270  0.60030565  0.00064029
   0.03912449  0.73364036  0.00065451
   0.57243347  0.60030624  0.00040289
   0.63911189  0.73364188  0.00052791
   0.17245463  0.40031823  0.00028904
   0.23912018  0.53363655  0.00037851
   0.37245975  0.20029599  0.00008900
   0.43910710  0.33367342  0.00005576
   0.17245216  0.60031151  0.00052434
   0.23912337  0.73363857  0.00057513
   0.57243108  0.20028917  0.00041330
   0.63911277  0.33361863  0.00046238
   0.37243981  0.60030802  0.00036284
   0.43911609  0.73363786  0.00049419
   0.57246936  0.40032050  0.00033992
   0.63911941  0.53365087  0.00045961
   0.77244572  0.00031543  0.00059616
   0.83911628  0.13364020  0.00057531
   0.77244051  0.20030743  0.00058103
   0.83912024  0.33363573  0.00058547
   0.77244632  0.40029837  0.00058298
   0.83911898  0.53363396  0.00062110
   0.77245614  0.60030817  0.00059571
   0.83911503  0.73364318  0.00063151
   0.97245531  0.80030558  0.00065223
   0.03911471  0.93364329  0.00059805
   0.17245797  0.80031221  0.00062337
   0.23913455  0.93364719  0.00054485
   0.37245140  0.80031667  0.00055140
   0.43912449  0.93364477  0.00054143
   0.57244110  0.80031005  0.00053453
   0.63911507  0.93363899  0.00058764
   0.77244510  0.80031319  0.00060206
   0.83911661  0.93364434  0.00060683
   0.37302101  0.25122688  0.21189262
   0.42087980  0.18931315  0.21446949
   0.32515698  0.31316719  0.20951442
 
 position of ions in cartesian coordinates  (Angst):
  11.98347958  0.00342433  0.01416777
  -0.34154264  1.42664989  0.01100432
   2.12354700  0.00315355  0.01249070
   2.12325634  1.42652621  0.00641170
  10.75098721  2.13818970  0.01213047
  -1.57382270  3.56123457  0.01110375
   0.89078307  2.13853702  0.00547917
   0.89099273  3.56146885  0.00180651
   4.58863896  0.00346260  0.01134782
   4.58893648  1.42622757  0.00645846
   9.51853763  4.27280730  0.01369027
  -2.80632132  5.69591267  0.01433526
   2.12299894  4.27302204  0.00000000
   2.12335237  5.69593607  0.00581036
   7.05344483  0.00333155  0.01398950
   7.05352764  1.42635365  0.01368187
   8.28609598  6.40752033  0.01600723
  -4.03884931  7.83070339  0.01636283
   3.35585531  6.40752662  0.01007237
   3.35598594  7.83071962  0.01319763
  -0.34145776  4.27290193  0.00722612
  -0.34137895  5.69591010  0.00946273
   3.35624236  2.13791198  0.00222492
   3.35573251  3.56155103  0.00139405
  -1.57394684  6.40758280  0.01310850
  -1.57385216  7.83068434  0.01437823
   5.82093107  2.13783916  0.01033241
   5.82114012  3.56096622  0.01155939
   0.89092245  6.40754561  0.00907111
   0.89106251  7.83067670  0.01235474
   4.58870974  4.27292622  0.00849795
   4.58852320  5.69606300  0.01149026
   9.51844972  0.00336679  0.01490402
   9.51855036  1.42644387  0.01438264
   8.28593477  2.13803408  0.01452582
   8.28612680  3.56114872  0.01463668
   7.05356221  4.27268994  0.01457444
   7.05362213  5.69588251  0.01552751
   5.82112285  6.40754723  0.01489279
   5.82101669  7.83073350  0.01578780
   7.05362858  8.54227219  0.01630582
  -5.27148792  9.96548729  0.01495127
  -2.80637951  8.54234295  0.01558431
  -2.80626749  9.96552896  0.01362126
  -0.34148805  8.54239058  0.01378498
  -0.34137657  9.96550309  0.01353576
   2.12342586  8.54231992  0.01336337
   2.12354296  9.96544135  0.01469111
   4.58845581  8.54235337  0.01505154
   4.58852904  9.96549848  0.01517076
   3.04929830  2.68153618  5.29731547
   4.02070129  2.02068374  5.36173733
   2.07766701  3.34267235  5.23786060
 


--------------------------------------------------------------------------------------------------------


 k-point   1 :   0.0000 0.0000 0.0000  plane waves:  236157

 maximum and minimum number of plane-waves per node :    236157   236157

 maximum number of plane-waves:    236157
 maximum index in each direction: 
   IXMAX=   31   IYMAX=   31   IZMAX=   64
   IXMIN=  -31   IYMIN=  -31   IZMIN=  -64


 serial   3D FFT for wavefunctions
 parallel 3D FFT for charge:
    minimum data exchange during FFTs selected (reduces bandwidth)


 total amount of memory used by VASP MPI-rank0   551512. kBytes
=======================================================================

   base      :      30000. kBytes
   nonl-proj :     230539. kBytes
   fftplans  :      40716. kBytes
   grid      :     216018. kBytes
   one-center:        162. kBytes
   wavefun   :      34077. kBytes
 
     INWAV:  cpu time    0.0000: real time    0.0000
 Broyden mixing: mesh for mixing (old mesh)
   NGX = 63   NGY = 63   NGZ =129
  (NGX  =256   NGY  =256   NGZ  =540)
  gives a total of 512001 points

 initial charge density was supplied:
 charge density of overlapping atoms calculated
 number of electron     216.0000000 magnetization 
 keeping initial charge density in first step


--------------------------------------------------------------------------------------------------------


 Maximum index for augmentation-charges          471 (set IRDMAX)


--------------------------------------------------------------------------------------------------------


 First call to EWALD:  gamma=   0.119
 Maximum number of real-space cells 4x 4x 2
 Maximum number of reciprocal cells 2x 2x 4

    FEWALD:  cpu time    0.0041: real time    0.0042


--------------------------------------- Iteration      1(   1)  ---------------------------------------


    POTLOK:  cpu time    0.7871: real time    0.7934
    SETDIJ:  cpu time    0.0035: real time    0.0036
    TRIAL :  cpu time   15.3458: real time   15.4935
    CORREC:  cpu time    0.0006: real time    0.0008
    --------------------------------------------
      LOOP:  cpu time   16.1531: real time   16.3130

 eigenvalue-minimisations  :   336
 total energy-change (2. order) : 0.2585454E+04  (-0.1073837E+05)
 number of electron     216.0000000 magnetization 
 augmentation part      216.0000000 magnetization 

 Free energy of the ion-electron system (eV)
  ---------------------------------------------------
  alpha Z        PSCENC =        47.94900195
  Ewald energy   TEWEN  =     44407.38298792
  -Hartree energ DENC   =    -50476.55488451
  -exchange      EXHF   =         0.00000000
  -V(xc)+E(xc)   XCENC  =       420.79915507
  PAW double counting   =      6525.96553977    -6260.36035765
  entropy T*S    EENTRO =        -0.00000000
  eigenvalues    EBANDS =      -449.25097572
  atomic energy  EATOM  =      8369.52358910
  ---------------------------------------------------
  free energy    TOTEN  =      2585.45405594 eV

  energy without entropy =     2585.45405594  energy(sigma->0) =     2585.45405594


--------------------------------------------------------------------------------------------------------




--------------------------------------- Iteration      1(   2)  ---------------------------------------


    TRIAL :  cpu time   26.9809: real time   27.2007
    CORREC:  cpu time    0.0001: real time    0.0001
    --------------------------------------------
      LOOP:  cpu time   27.0064: real time   27.2275

 eigenvalue-minimisations  :   672
 total energy-change (2. order) :-0.2475216E+04  (-0.2350476E+04)
 number of electron     216.0000000 magnetization 
 augmentation part      216.0000000 magnetization 

 Free energy of the ion-electron system (eV)
  ---------------------------------------------------
  alpha Z        PSCENC =        47.94900195
  Ewald energy   TEWEN  =     44407.38298792
  -Hartree energ DENC   =    -50476.55488451
  -exchange      EXHF   =         0.00000000
  -V(xc)+E(xc)   XCENC  =       420.79915507
  PAW double counting   =      6525.96553977    -6260.36035765
  entropy T*S    EENTRO =        -0.00000000
  eigenvalues    EBANDS =     -2924.46701173
  atomic energy  EATOM  =      8369.52358910
  ---------------------------------------------------
  free energy    TOTEN  =       110.23801994 eV

  energy without entropy =      110.23801994  energy(sigma->0) =      110.23801994


--------------------------------------------------------------------------------------------------------




--------------------------------------- Iteration      1(   3)  ---------------------------------------


    TRIAL :  cpu time   19.1818: real time   19.3570
    CORREC:  cpu time    0.0001: real time    0.0001
    --------------------------------------------
      LOOP:  cpu time   19.2134: real time   19.3904

 eigenvalue-minimisations  :   448
 total energy-change (2. order) :-0.6075868E+03  (-0.6054358E+03)
 number of electron     216.0000000 magnetization 
 augmentation part      216.0000000 magnetization 

 Free energy of the ion-electron system (eV)
  ---------------------------------------------------
  alpha Z        PSCENC =        47.94900195
  Ewald energy   TEWEN  =     44407.38298792
  -Hartree energ DENC   =    -50476.55488451
  -exchange      EXHF   =         0.00000000
  -V(xc)+E(xc)   XCENC  =       420.79915507
  PAW double counting   =      6525.96553977    -6260.36035765
  entropy T*S    EENTRO =        -0.00000000
  eigenvalues    EBANDS =     -3532.05376706
  atomic energy  EATOM  =      8369.52358910
  ---------------------------------------------------
  free energy    TOTEN  =      -497.34873540 eV

  energy without entropy =     -497.34873540  energy(sigma->0) =     -497.34873540


--------------------------------------------------------------------------------------------------------




--------------------------------------- Iteration      1(   4)  ---------------------------------------


    TRIAL :  cpu time   19.2426: real time   19.3911
    CORREC:  cpu time    0.0001: real time    0.0001
    --------------------------------------------
      LOOP:  cpu time   19.2946: real time   19.4555

 eigenvalue-minimisations  :   448
 total energy-change (2. order) :-0.2001290E+02  (-0.1989584E+02)
 number of electron     216.0000000 magnetization 
 augmentation part      216.0000000 magnetization 

 Free energy of the ion-electron system (eV)
  ---------------------------------------------------
  alpha Z        PSCENC =        47.94900195
  Ewald energy   TEWEN  =     44407.38298792
  -Hartree energ DENC   =    -50476.55488451
  -exchange      EXHF   =         0.00000000
  -V(xc)+E(xc)   XCENC  =       420.79915507
  PAW double counting   =      6525.96553977    -6260.36035765
  entropy T*S    EENTRO =        -0.00000000
  eigenvalues    EBANDS =     -3552.06667040
  atomic energy  EATOM  =      8369.52358910
  ---------------------------------------------------
  free energy    TOTEN  =      -517.36163873 eV

  energy without entropy =     -517.36163873  energy(sigma->0) =     -517.36163873


--------------------------------------------------------------------------------------------------------




--------------------------------------- Iteration      1(   5)  ---------------------------------------


    TRIAL :  cpu time   17.2649: real time   17.3992
    CORREC:  cpu time    0.0001: real time    0.0001
    CHARGE:  cpu time    0.8146: real time    0.8211
    --------------------------------------------
      LOOP:  cpu time   18.0985: real time   18.2448

 eigenvalue-minimisations  :   392
 total energy-change (2. order) :-0.6676639E+00  (-0.6666997E+00)
 number of electron     216.0000000 magnetization 
 augmentation part       -0.2722828 magnetization 

 Free energy of the ion-electron system (eV)
  ---------------------------------------------------
  alpha Z        PSCENC =        47.94900195
  Ewald energy   TEWEN  =     44407.38298792
  -Hartree energ DENC   =    -50476.55488451
  -exchange      EXHF   =         0.00000000
  -V(xc)+E(xc)   XCENC  =       420.79915507
  PAW double counting   =      6525.96553977    -6260.36035765
  entropy T*S    EENTRO =        -0.00000000
  eigenvalues    EBANDS =     -3552.73433429
  atomic energy  EATOM  =      8369.52358910
  ---------------------------------------------------
  free energy    TOTEN  =      -518.02930263 eV

  energy without entropy =     -518.02930263  energy(sigma->0) =     -518.02930263


--------------------------------------------------------------------------------------------------------




--------------------------------------- Iteration      1(   6)  ---------------------------------------


    POTLOK:  cpu time    0.7380: real time    0.7442
    SETDIJ:  cpu time    0.0036: real time    0.0036
    TRIAL :  cpu time    6.9028: real time    6.9707
    CORREC:  cpu time    2.2575: real time    2.2780
    CHARGE:  cpu time    0.8082: real time    0.8148
    --------------------------------------------
      LOOP:  cpu time   10.7304: real time   10.8693

 eigenvalue-minimisations  :     0
 total energy-change (2. order) : 0.5130088E+02  (-0.1529009E+02)
 number of electron     216.0000000 magnetization 
 augmentation part       -0.3743349 magnetization 

 Free energy of the ion-electron system (eV)
  ---------------------------------------------------
  alpha Z        PSCENC =        47.94900195
  Ewald energy   TEWEN  =     44407.38298792
  -Hartree energ DENC   =    -51915.22825145
  -exchange      EXHF   =         0.00000000
  -V(xc)+E(xc)   XCENC  =       469.00208723
  PAW double counting   =     90032.91420783   -89775.58336000
  entropy T*S    EENTRO =        -0.00000000
  eigenvalues    EBANDS =     -2102.68868286
  atomic energy  EATOM  =      8369.52358910
  ---------------------------------------------------
  free energy    TOTEN  =      -466.72842027 eV

  energy without entropy =     -466.72842027  energy(sigma->0) =     -466.72842027


--------------------------------------------------------------------------------------------------------




--------------------------------------- Iteration      1(   7)  ---------------------------------------


    POTLOK:  cpu time    0.7384: real time    0.7444
    SETDIJ:  cpu time    0.0026: real time    0.0026
    TRIAL :  cpu time    6.8890: real time    6.9557
    CORREC:  cpu time    2.2578: real time    2.2779
    CHARGE:  cpu time    0.8066: real time    0.8129
    --------------------------------------------
      LOOP:  cpu time   10.7747: real time   10.8758

 eigenvalue-minimisations  :     0
 total energy-change (2. order) :-0.1532104E+02  (-0.1846554E+01)
 number of electron     216.0000000 magnetization 
 augmentation part       -0.4206676 magnetization 

 Free energy of the ion-electron system (eV)
  ---------------------------------------------------
  alpha Z        PSCENC =        47.94900195
  Ewald energy   TEWEN  =     44407.38298792
  -Hartree energ DENC   =    -51421.05561593
  -exchange      EXHF   =         0.00000000
  -V(xc)+E(xc)   XCENC  =       452.44667229
  PAW double counting   =    106009.76562015  -105749.63069288
  entropy T*S    EENTRO =        -0.00000000
  eigenvalues    EBANDS =     -2598.43102624
  atomic energy  EATOM  =      8369.52358910
  ---------------------------------------------------
  free energy    TOTEN  =      -482.04946362 eV

  energy without entropy =     -482.04946362  energy(sigma->0) =     -482.04946362


--------------------------------------------------------------------------------------------------------




--------------------------------------- Iteration      1(   8)  ---------------------------------------


    POTLOK:  cpu time    0.7408: real time    0.7465
    SETDIJ:  cpu time    0.0025: real time    0.0026
    TRIAL :  cpu time    6.8928: real time    6.9618
    CORREC:  cpu time    2.2623: real time    2.2819
    CHARGE:  cpu time    0.8082: real time    0.8146
    --------------------------------------------
      LOOP:  cpu time   10.7434: real time   10.8494

 eigenvalue-minimisations  :     0
 total energy-change (2. order) :-0.1846640E+01  (-0.5380446E+00)
 number of electron     216.0000000 magnetization 
 augmentation part       -0.4347726 magnetization 

 Free energy of the ion-electron system (eV)
  ---------------------------------------------------
  alpha Z        PSCENC =        47.94900195
  Ewald energy   TEWEN  =     44407.38298792
  -Hartree energ DENC   =    -51391.98242931
  -exchange      EXHF   =         0.00000000
  -V(xc)+E(xc)   XCENC  =       451.73912694
  PAW double counting   =    110529.20299326  -110268.63697441
  entropy T*S    EENTRO =        -0.00000000
  eigenvalues    EBANDS =     -2629.07439945
  atomic energy  EATOM  =      8369.52358910
  ---------------------------------------------------
  free energy    TOTEN  =      -483.89610399 eV

  energy without entropy =     -483.89610399  energy(sigma->0) =     -483.89610399


--------------------------------------------------------------------------------------------------------




--------------------------------------- Iteration      1(   9)  ---------------------------------------


    POTLOK:  cpu time    0.7370: real time    0.7416
    SETDIJ:  cpu time    0.0026: real time    0.0026
    TRIAL :  cpu time    6.9030: real time    6.9626
    CORREC:  cpu time    2.2671: real time    2.2872
    CHARGE:  cpu time    0.8067: real time    0.8129
    --------------------------------------------
      LOOP:  cpu time   10.7939: real time   10.9146

 eigenvalue-minimisations  :     0
 total energy-change (2. order) :-0.5379080E+00  (-0.2029338E+00)
 number of electron     216.0000000 magnetization 
 augmentation part       -0.4403706 magnetization 

 Free energy of the ion-electron system (eV)
  ---------------------------------------------------
  alpha Z        PSCENC =        47.94900195
  Ewald energy   TEWEN  =     44407.38298792
  -Hartree energ DENC   =    -51404.05183418
  -exchange      EXHF   =         0.00000000
  -V(xc)+E(xc)   XCENC  =       451.77921318
  PAW double counting   =    113465.23458634  -113204.50327879
  entropy T*S    EENTRO =        -0.00000000
  eigenvalues    EBANDS =     -2617.74827756
  atomic energy  EATOM  =      8369.52358910
  ---------------------------------------------------
  free energy    TOTEN  =      -484.43401203 eV

  energy without entropy =     -484.43401203  energy(sigma->0) =     -484.43401203


--------------------------------------------------------------------------------------------------------




--------------------------------------- Iteration      1(  10)  ---------------------------------------


    POTLOK:  cpu time    0.7401: real time    0.7447
    SETDIJ:  cpu time    0.0028: real time    0.0028
    TRIAL :  cpu time    6.9007: real time    6.9622
    CORREC:  cpu time    2.2621: real time    2.2791
    CHARGE:  cpu time    0.8079: real time    0.8141
    --------------------------------------------
      LOOP:  cpu time   10.7641: real time   10.8574

 eigenvalue-minimisations  :     0
 total energy-change (2. order) :-0.2023605E+00  (-0.8913052E-01)
 number of electron     216.0000000 magnetization 
 augmentation part       -0.4393735 magnetization 

 Free energy of the ion-electron system (eV)
  ---------------------------------------------------
  alpha Z        PSCENC =        47.94900195
  Ewald energy   TEWEN  =     44407.38298792
  -Hartree energ DENC   =    -51402.15216845
  -exchange      EXHF   =         0.00000000
  -V(xc)+E(xc)   XCENC  =       451.61497421
  PAW double counting   =    113826.57431830  -113565.75554748
  entropy T*S    EENTRO =        -0.00000000
  eigenvalues    EBANDS =     -2619.77352806
  atomic energy  EATOM  =      8369.52358910
  ---------------------------------------------------
  free energy    TOTEN  =      -484.63637250 eV

  energy without entropy =     -484.63637250  energy(sigma->0) =     -484.63637250


--------------------------------------------------------------------------------------------------------




--------------------------------------- Iteration      1(  11)  ---------------------------------------


    POTLOK:  cpu time    0.7385: real time    0.7433
    SETDIJ:  cpu time    0.0023: real time    0.0024
    TRIAL :  cpu time    6.8906: real time    6.9541
    CORREC:  cpu time    2.2578: real time    2.2770
    CHARGE:  cpu time    0.8118: real time    0.8173
    --------------------------------------------
      LOOP:  cpu time   10.7796: real time   10.8745

 eigenvalue-minimisations  :     0
 total energy-change (2. order) :-0.8866551E-01  (-0.3303686E-01)
 number of electron     216.0000000 magnetization 
 augmentation part       -0.4376781 magnetization 

 Free energy of the ion-electron system (eV)
  ---------------------------------------------------
  alpha Z        PSCENC =        47.94900195
  Ewald energy   TEWEN  =     44407.38298792
  -Hartree energ DENC   =    -51394.37310540
  -exchange      EXHF   =         0.00000000
  -V(xc)+E(xc)   XCENC  =       451.47723692
  PAW double counting   =    113073.35727703  -112812.54910012
  entropy T*S    EENTRO =        -0.00000000
  eigenvalues    EBANDS =     -2627.49292541
  atomic energy  EATOM  =      8369.52358910
  ---------------------------------------------------
  free energy    TOTEN  =      -484.72503800 eV

  energy without entropy =     -484.72503800  energy(sigma->0) =     -484.72503800


--------------------------------------------------------------------------------------------------------




--------------------------------------- Iteration      1(  12)  ---------------------------------------


    POTLOK:  cpu time    0.7347: real time    0.7426
    SETDIJ:  cpu time    0.0023: real time    0.0023
    TRIAL :  cpu time    6.9192: real time    6.9776
    CORREC:  cpu time    2.3429: real time    2.3641
    CHARGE:  cpu time    0.8069: real time    0.8149
    --------------------------------------------
      LOOP:  cpu time   10.8668: real time   10.9645

 eigenvalue-minimisations  :     0
 total energy-change (2. order) :-0.3295087E-01  (-0.1032999E-01)
 number of electron     216.0000000 magnetization 
 augmentation part       -0.4374352 magnetization 

 Free energy of the ion-electron system (eV)
  ---------------------------------------------------
  alpha Z        PSCENC =        47.94900195
  Ewald energy   TEWEN  =     44407.38298792
  -Hartree energ DENC   =    -51390.44907140
  -exchange      EXHF   =         0.00000000
  -V(xc)+E(xc)   XCENC  =       451.40481067
  PAW double counting   =    112579.74638675  -112318.96915030
  entropy T*S    EENTRO =        -0.00000000
  eigenvalues    EBANDS =     -2631.34654358
  atomic energy  EATOM  =      8369.52358910
  ---------------------------------------------------
  free energy    TOTEN  =      -484.75798888 eV

  energy without entropy =     -484.75798888  energy(sigma->0) =     -484.75798888


--------------------------------------------------------------------------------------------------------




--------------------------------------- Iteration      1(  13)  ---------------------------------------


    POTLOK:  cpu time    0.7363: real time    0.7409
    SETDIJ:  cpu time    0.0026: real time    0.0026
    TRIAL :  cpu time    6.8982: real time    6.9543
    CORREC:  cpu time    2.2447: real time    2.2646
    CHARGE:  cpu time    0.8069: real time    0.8124
    --------------------------------------------
      LOOP:  cpu time   10.7385: real time   10.8269

 eigenvalue-minimisations  :     0
 total energy-change (2. order) :-0.1031915E-01  (-0.2729026E-02)
 number of electron     216.0000000 magnetization 
 augmentation part       -0.4372263 magnetization 

 Free energy of the ion-electron system (eV)
  ---------------------------------------------------
  alpha Z        PSCENC =        47.94900195
  Ewald energy   TEWEN  =     44407.38298792
  -Hartree energ DENC   =    -51389.59361990
  -exchange      EXHF   =         0.00000000
  -V(xc)+E(xc)   XCENC  =       451.37739537
  PAW double counting   =    112430.66334376  -112169.89758034
  entropy T*S    EENTRO =        -0.00000000
  eigenvalues    EBANDS =     -2632.17342589
  atomic energy  EATOM  =      8369.52358910
  ---------------------------------------------------
  free energy    TOTEN  =      -484.76830802 eV

  energy without entropy =     -484.76830802  energy(sigma->0) =     -484.76830802


--------------------------------------------------------------------------------------------------------




--------------------------------------- Iteration      1(  14)  ---------------------------------------


    POTLOK:  cpu time    0.7295: real time    0.7340
    SETDIJ:  cpu time    0.0024: real time    0.0024
    TRIAL :  cpu time    6.9084: real time    6.9636
    CORREC:  cpu time    2.2421: real time    2.2611
    CHARGE:  cpu time    0.8071: real time    0.8127
    --------------------------------------------
      LOOP:  cpu time   10.7854: real time   10.8716

 eigenvalue-minimisations  :     0
 total energy-change (2. order) :-0.2728857E-02  (-0.7250817E-03)
 number of electron     216.0000000 magnetization 
 augmentation part       -0.4370146 magnetization 

 Free energy of the ion-electron system (eV)
  ---------------------------------------------------
  alpha Z        PSCENC =        47.94900195
  Ewald energy   TEWEN  =     44407.38298792
  -Hartree energ DENC   =    -51389.40907792
  -exchange      EXHF   =         0.00000000
  -V(xc)+E(xc)   XCENC  =       451.37171556
  PAW double counting   =    112454.64262014  -112193.87905128
  entropy T*S    EENTRO =        -0.00000000
  eigenvalues    EBANDS =     -2632.35282237
  atomic energy  EATOM  =      8369.52358910
  ---------------------------------------------------
  free energy    TOTEN  =      -484.77103688 eV

  energy without entropy =     -484.77103688  energy(sigma->0) =     -484.77103688


--------------------------------------------------------------------------------------------------------




--------------------------------------- Iteration      1(  15)  ---------------------------------------


    POTLOK:  cpu time    0.7291: real time    0.7338
    SETDIJ:  cpu time    0.0027: real time    0.0027
    TRIAL :  cpu time    6.9304: real time    6.9881
    CORREC:  cpu time    2.2573: real time    2.2744
    CHARGE:  cpu time    0.8054: real time    0.8108
    --------------------------------------------
      LOOP:  cpu time   10.7837: real time   10.8744

 eigenvalue-minimisations  :     0
 total energy-change (2. order) :-0.7259855E-03  (-0.2178692E-03)
 number of electron     216.0000000 magnetization 
 augmentation part       -0.4368218 magnetization 

 Free energy of the ion-electron system (eV)
  ---------------------------------------------------
  alpha Z        PSCENC =        47.94900195
  Ewald energy   TEWEN  =     44407.38298792
  -Hartree energ DENC   =    -51389.19741550
  -exchange      EXHF   =         0.00000000
  -V(xc)+E(xc)   XCENC  =       451.36521565
  PAW double counting   =    112485.39760418  -112224.63337610
  entropy T*S    EENTRO =        -0.00000000
  eigenvalues    EBANDS =     -2632.55937009
  atomic energy  EATOM  =      8369.52358910
  ---------------------------------------------------
  free energy    TOTEN  =      -484.77176287 eV

  energy without entropy =     -484.77176287  energy(sigma->0) =     -484.77176287


--------------------------------------------------------------------------------------------------------




--------------------------------------- Iteration      1(  16)  ---------------------------------------


    POTLOK:  cpu time    0.7299: real time    0.7346
    SETDIJ:  cpu time    0.0026: real time    0.0026
    TRIAL :  cpu time    6.8998: real time    6.9598
    CORREC:  cpu time    2.2436: real time    2.2644
    CHARGE:  cpu time    0.8094: real time    0.8172
    --------------------------------------------
      LOOP:  cpu time   10.7292: real time   10.8236

 eigenvalue-minimisations  :     0
 total energy-change (2. order) :-0.2187034E-03  (-0.7816763E-04)
 number of electron     216.0000000 magnetization 
 augmentation part       -0.4366644 magnetization 

 Free energy of the ion-electron system (eV)
  ---------------------------------------------------
  alpha Z        PSCENC =        47.94900195
  Ewald energy   TEWEN  =     44407.38298792
  -Hartree energ DENC   =    -51389.27095886
  -exchange      EXHF   =         0.00000000
  -V(xc)+E(xc)   XCENC  =       451.36672333
  PAW double counting   =    112475.35839661  -112214.59410530
  entropy T*S    EENTRO =        -0.00000000
  eigenvalues    EBANDS =     -2632.48761633
  atomic energy  EATOM  =      8369.52358910
  ---------------------------------------------------
  free energy    TOTEN  =      -484.77198157 eV

  energy without entropy =     -484.77198157  energy(sigma->0) =     -484.77198157


--------------------------------------------------------------------------------------------------------




--------------------------------------- Iteration      1(  17)  ---------------------------------------


    POTLOK:  cpu time    0.7272: real time    0.7336
    SETDIJ:  cpu time    0.0025: real time    0.0025
    TRIAL :  cpu time    6.8915: real time    6.9610
    CORREC:  cpu time    2.2468: real time    2.2659
    CHARGE:  cpu time    0.8052: real time    0.8109
    --------------------------------------------
      LOOP:  cpu time   10.6953: real time   10.7964

 eigenvalue-minimisations  :     0
 total energy-change (2. order) :-0.7875949E-04  (-0.3035733E-04)
 number of electron     216.0000000 magnetization 
 augmentation part       -0.4366431 magnetization 

 Free energy of the ion-electron system (eV)
  ---------------------------------------------------
  alpha Z        PSCENC =        47.94900195
  Ewald energy   TEWEN  =     44407.38298792
  -Hartree energ DENC   =    -51389.46151982
  -exchange      EXHF   =         0.00000000
  -V(xc)+E(xc)   XCENC  =       451.37271292
  PAW double counting   =    112456.34426220  -112195.58045911
  entropy T*S    EENTRO =        -0.00000000
  eigenvalues    EBANDS =     -2632.30263550
  atomic energy  EATOM  =      8369.52358910
  ---------------------------------------------------
  free energy    TOTEN  =      -484.77206033 eV

  energy without entropy =     -484.77206033  energy(sigma->0) =     -484.77206033


--------------------------------------------------------------------------------------------------------




--------------------------------------- Iteration      1(  18)  ---------------------------------------


    POTLOK:  cpu time    0.7274: real time    0.7320
    SETDIJ:  cpu time    0.0024: real time    0.0024
    TRIAL :  cpu time    6.9069: real time    6.9658
    CORREC:  cpu time    2.2477: real time    2.2643
    CHARGE:  cpu time    0.8062: real time    0.8121
    --------------------------------------------
      LOOP:  cpu time   10.7166: real time   10.8089

 eigenvalue-minimisations  :     0
 total energy-change (2. order) :-0.3071765E-04  (-0.1288988E-04)
 number of electron     216.0000000 magnetization 
 augmentation part       -0.4366597 magnetization 

 Free energy of the ion-electron system (eV)
  ---------------------------------------------------
  alpha Z        PSCENC =        47.94900195
  Ewald energy   TEWEN  =     44407.38298792
  -Hartree energ DENC   =    -51389.48598338
  -exchange      EXHF   =         0.00000000
  -V(xc)+E(xc)   XCENC  =       451.37257525
  PAW double counting   =    112452.89805476  -112192.13377321
  entropy T*S    EENTRO =        -0.00000000
  eigenvalues    EBANDS =     -2632.27854343
  atomic energy  EATOM  =      8369.52358910
  ---------------------------------------------------
  free energy    TOTEN  =      -484.77209105 eV

  energy without entropy =     -484.77209105  energy(sigma->0) =     -484.77209105


--------------------------------------------------------------------------------------------------------




--------------------------------------- Iteration      1(  19)  ---------------------------------------


    POTLOK:  cpu time    0.7265: real time    0.7312
    SETDIJ:  cpu time    0.0025: real time    0.0025
    TRIAL :  cpu time    6.8910: real time    6.9499
    CORREC:  cpu time    2.2532: real time    2.2697
    CHARGE:  cpu time    0.8059: real time    0.8120
    --------------------------------------------
      LOOP:  cpu time   10.7053: real time   10.7951

 eigenvalue-minimisations  :     0
 total energy-change (2. order) :-0.1278456E-04  (-0.5341758E-05)
 number of electron     216.0000000 magnetization 
 augmentation part       -0.4367026 magnetization 

 Free energy of the ion-electron system (eV)
  ---------------------------------------------------
  alpha Z        PSCENC =        47.94900195
  Ewald energy   TEWEN  =     44407.38298792
  -Hartree energ DENC   =    -51389.52364162
  -exchange      EXHF   =         0.00000000
  -V(xc)+E(xc)   XCENC  =       451.37380010
  PAW double counting   =    112459.13366842  -112198.36923825
  entropy T*S    EENTRO =        -0.00000000
  eigenvalues    EBANDS =     -2632.24227146
  atomic energy  EATOM  =      8369.52358910
  ---------------------------------------------------
  free energy    TOTEN  =      -484.77210383 eV

  energy without entropy =     -484.77210383  energy(sigma->0) =     -484.77210383


--------------------------------------------------------------------------------------------------------




--------------------------------------- Iteration      1(  20)  ---------------------------------------


    POTLOK:  cpu time    0.7262: real time    0.7309
    SETDIJ:  cpu time    0.0026: real time    0.0026
    TRIAL :  cpu time    6.8946: real time    6.9560
    CORREC:  cpu time    2.2536: real time    2.2702
    CHARGE:  cpu time    0.8084: real time    0.8151
    --------------------------------------------
      LOOP:  cpu time   10.7390: real time   10.8445

 eigenvalue-minimisations  :     0
 total energy-change (2. order) :-0.4995920E-05  (-0.2090135E-05)
 number of electron     216.0000000 magnetization 
 augmentation part       -0.4367167 magnetization 

 Free energy of the ion-electron system (eV)
  ---------------------------------------------------
  alpha Z        PSCENC =        47.94900195
  Ewald energy   TEWEN  =     44407.38298792
  -Hartree energ DENC   =    -51389.54945291
  -exchange      EXHF   =         0.00000000
  -V(xc)+E(xc)   XCENC  =       451.37423665
  PAW double counting   =    112465.49858295  -112204.73400909
  entropy T*S    EENTRO =        -0.00000000
  eigenvalues    EBANDS =     -2632.21704540
  atomic energy  EATOM  =      8369.52358910
  ---------------------------------------------------
  free energy    TOTEN  =      -484.77210883 eV

  energy without entropy =     -484.77210883  energy(sigma->0) =     -484.77210883


--------------------------------------------------------------------------------------------------------




--------------------------------------- Iteration      1(  21)  ---------------------------------------


    POTLOK:  cpu time    0.7256: real time    0.7305
    SETDIJ:  cpu time    0.0025: real time    0.0025
    TRIAL :  cpu time    6.9189: real time    6.9820
    CORREC:  cpu time    2.2494: real time    2.2678
    CHARGE:  cpu time    0.8073: real time    0.8130
    --------------------------------------------
      LOOP:  cpu time   10.7561: real time   10.8495

 eigenvalue-minimisations  :     0
 total energy-change (2. order) :-0.1864624E-05  (-0.9073920E-06)
 number of electron     216.0000000 magnetization 
 augmentation part       -0.4367148 magnetization 

 Free energy of the ion-electron system (eV)
  ---------------------------------------------------
  alpha Z        PSCENC =        47.94900195
  Ewald energy   TEWEN  =     44407.38298792
  -Hartree energ DENC   =    -51389.54656327
  -exchange      EXHF   =         0.00000000
  -V(xc)+E(xc)   XCENC  =       451.37410891
  PAW double counting   =    112466.77826906  -112206.01371461
  entropy T*S    EENTRO =        -0.00000000
  eigenvalues    EBANDS =     -2632.21978975
  atomic energy  EATOM  =      8369.52358910
  ---------------------------------------------------
  free energy    TOTEN  =      -484.77211069 eV

  energy without entropy =     -484.77211069  energy(sigma->0) =     -484.77211069


--------------------------------------------------------------------------------------------------------




--------------------------------------- Iteration      1(  22)  ---------------------------------------


    POTLOK:  cpu time    0.7267: real time    0.7316
    SETDIJ:  cpu time    0.0024: real time    0.0024
    TRIAL :  cpu time    6.8982: real time    6.9587
    CORREC:  cpu time    2.2402: real time    2.2590
    CHARGE:  cpu time    0.8072: real time    0.8134
    --------------------------------------------
      LOOP:  cpu time   10.7188: real time   10.8427

 eigenvalue-minimisations  :     0
 total energy-change (2. order) :-0.7792405E-06  (-0.4166602E-06)
 number of electron     216.0000000 magnetization 
 augmentation part       -0.4367100 magnetization 

 Free energy of the ion-electron system (eV)
  ---------------------------------------------------
  alpha Z        PSCENC =        47.94900195
  Ewald energy   TEWEN  =     44407.38298792
  -Hartree energ DENC   =    -51389.53491399
  -exchange      EXHF   =         0.00000000
  -V(xc)+E(xc)   XCENC  =       451.37371574
  PAW double counting   =    112464.70413687  -112203.93963744
  entropy T*S    EENTRO =        -0.00000000
  eigenvalues    EBANDS =     -2632.23099162
  atomic energy  EATOM  =      8369.52358910
  ---------------------------------------------------
  free energy    TOTEN  =      -484.77211147 eV

  energy without entropy =     -484.77211147  energy(sigma->0) =     -484.77211147


--------------------------------------------------------------------------------------------------------




--------------------------------------- Iteration      1(  23)  ---------------------------------------


    POTLOK:  cpu time    0.7257: real time    0.7304
    SETDIJ:  cpu time    0.0026: real time    0.0026
    TRIAL :  cpu time    6.9000: real time    6.9599
    CORREC:  cpu time    2.2475: real time    2.2643
    CHARGE:  cpu time    0.8075: real time    0.8131
    --------------------------------------------
      LOOP:  cpu time   10.7449: real time   10.8354

 eigenvalue-minimisations  :     0
 total energy-change (2. order) :-0.3044115E-06  (-0.1575106E-06)
 number of electron     216.0000000 magnetization 
 augmentation part       -0.4367125 magnetization 

 Free energy of the ion-electron system (eV)
  ---------------------------------------------------
  alpha Z        PSCENC =        47.94900195
  Ewald energy   TEWEN  =     44407.38298792
  -Hartree energ DENC   =    -51389.53110685
  -exchange      EXHF   =         0.00000000
  -V(xc)+E(xc)   XCENC  =       451.37375109
  PAW double counting   =    112462.81064091  -112202.04622043
  entropy T*S    EENTRO =        -0.00000000
  eigenvalues    EBANDS =     -2632.23475547
  atomic energy  EATOM  =      8369.52358910
  ---------------------------------------------------
  free energy    TOTEN  =      -484.77211177 eV

  energy without entropy =     -484.77211177  energy(sigma->0) =     -484.77211177


--------------------------------------------------------------------------------------------------------




--------------------------------------- Iteration      1(  24)  ---------------------------------------


    POTLOK:  cpu time    0.7235: real time    0.7310
    SETDIJ:  cpu time    0.0023: real time    0.0023
    TRIAL :  cpu time    6.9068: real time    6.9646
    CORREC:  cpu time    2.2506: real time    2.2676
    CHARGE:  cpu time    0.8056: real time    0.8143
    --------------------------------------------
      LOOP:  cpu time   10.7163: real time   10.8135

 eigenvalue-minimisations  :     0
 total energy-change (2. order) :-0.9783253E-07  (-0.1235714E-06)
 number of electron     216.0000000 magnetization 
 augmentation part       -0.4367156 magnetization 

 Free energy of the ion-electron system (eV)
  ---------------------------------------------------
  alpha Z        PSCENC =        47.94900195
  Ewald energy   TEWEN  =     44407.38298792
  -Hartree energ DENC   =    -51389.52380363
  -exchange      EXHF   =         0.00000000
  -V(xc)+E(xc)   XCENC  =       451.37356355
  PAW double counting   =    112462.26059061  -112201.49615160
  entropy T*S    EENTRO =        -0.00000000
  eigenvalues    EBANDS =     -2632.24188978
  atomic energy  EATOM  =      8369.52358910
  ---------------------------------------------------
  free energy    TOTEN  =      -484.77211187 eV

  energy without entropy =     -484.77211187  energy(sigma->0) =     -484.77211187


--------------------------------------------------------------------------------------------------------




--------------------------------------- Iteration      1(  25)  ---------------------------------------


    POTLOK:  cpu time    0.7248: real time    0.7297
    SETDIJ:  cpu time    0.0025: real time    0.0026
    TRIAL :  cpu time    6.8998: real time    6.9545
    CORREC:  cpu time    2.2466: real time    2.2666
    CHARGE:  cpu time    0.8089: real time    0.8145
    --------------------------------------------
      LOOP:  cpu time   10.7346: real time   10.8208

 eigenvalue-minimisations  :     0
 total energy-change (2. order) : 0.9895302E-09  (-0.1287428E-06)
 number of electron     216.0000000 magnetization 
 augmentation part       -0.4367139 magnetization 

 Free energy of the ion-electron system (eV)
  ---------------------------------------------------
  alpha Z        PSCENC =        47.94900195
  Ewald energy   TEWEN  =     44407.38298792
  -Hartree energ DENC   =    -51389.51974634
  -exchange      EXHF   =         0.00000000
  -V(xc)+E(xc)   XCENC  =       451.37347918
  PAW double counting   =    112462.44164717  -112201.67717383
  entropy T*S    EENTRO =        -0.00000000
  eigenvalues    EBANDS =     -2632.24589703
  atomic energy  EATOM  =      8369.52358910
  ---------------------------------------------------
  free energy    TOTEN  =      -484.77211187 eV

  energy without entropy =     -484.77211187  energy(sigma->0) =     -484.77211187


--------------------------------------------------------------------------------------------------------




--------------------------------------- Iteration      1(  26)  ---------------------------------------


    POTLOK:  cpu time    0.7180: real time    0.7227
    SETDIJ:  cpu time    0.0058: real time    0.0058
    TRIAL :  cpu time    6.9053: real time    6.9622
    CORREC:  cpu time    2.2544: real time    2.2733
    CHARGE:  cpu time    0.8096: real time    0.8160
    --------------------------------------------
      LOOP:  cpu time   10.8317: real time   10.9238

 eigenvalue-minimisations  :     0
 total energy-change (2. order) :-0.6696791E-07  (-0.1321863E-06)
 number of electron     216.0000000 magnetization 
 augmentation part       -0.4367136 magnetization 

 Free energy of the ion-electron system (eV)
  ---------------------------------------------------
  alpha Z        PSCENC =        47.94900195
  Ewald energy   TEWEN  =     44407.38298792
  -Hartree energ DENC   =    -51389.52412478
  -exchange      EXHF   =         0.00000000
  -V(xc)+E(xc)   XCENC  =       451.37361661
  PAW double counting   =    112462.56764711  -112201.80318811
  entropy T*S    EENTRO =        -0.00000000
  eigenvalues    EBANDS =     -2632.24164175
  atomic energy  EATOM  =      8369.52358910
  ---------------------------------------------------
  free energy    TOTEN  =      -484.77211194 eV

  energy without entropy =     -484.77211194  energy(sigma->0) =     -484.77211194


--------------------------------------------------------------------------------------------------------




--------------------------------------- Iteration      1(  27)  ---------------------------------------


    POTLOK:  cpu time    0.7257: real time    0.7302
    SETDIJ:  cpu time    0.0025: real time    0.0025
    TRIAL :  cpu time    6.9073: real time    6.9689
    CORREC:  cpu time    2.2475: real time    2.2644
    CHARGE:  cpu time    0.8048: real time    0.8111
    --------------------------------------------
      LOOP:  cpu time   10.7421: real time   10.8355

 eigenvalue-minimisations  :     0
 total energy-change (2. order) : 0.2716115E-06  (-0.2890349E-06)
 number of electron     216.0000000 magnetization 
 augmentation part       -0.4367135 magnetization 

 Free energy of the ion-electron system (eV)
  ---------------------------------------------------
  alpha Z        PSCENC =        47.94900195
  Ewald energy   TEWEN  =     44407.38298792
  -Hartree energ DENC   =    -51389.52985699
  -exchange      EXHF   =         0.00000000
  -V(xc)+E(xc)   XCENC  =       451.37367927
  PAW double counting   =    112463.26470174  -112202.50022005
  entropy T*S    EENTRO =        -0.00000000
  eigenvalues    EBANDS =     -2632.23599461
  atomic energy  EATOM  =      8369.52358910
  ---------------------------------------------------
  free energy    TOTEN  =      -484.77211167 eV

  energy without entropy =     -484.77211167  energy(sigma->0) =     -484.77211167


--------------------------------------------------------------------------------------------------------




--------------------------------------- Iteration      1(  28)  ---------------------------------------


    POTLOK:  cpu time    0.7217: real time    0.7277
    SETDIJ:  cpu time    0.0025: real time    0.0025
    TRIAL :  cpu time    6.8889: real time    6.9481
    CORREC:  cpu time    8.9798: real time    9.0539
    CHARGE:  cpu time    0.8096: real time    0.8153
    --------------------------------------------
      LOOP:  cpu time   17.4504: real time   17.6371

 eigenvalue-minimisations  :     0
 total energy-change (2. order) :-0.2734741E-06  (-0.6531840E-06)
 number of electron     216.0000000 magnetization 
 augmentation part       -0.4367137 magnetization 

 Free energy of the ion-electron system (eV)
  ---------------------------------------------------
  alpha Z        PSCENC =        47.94900195
  Ewald energy   TEWEN  =     44407.38298792
  -Hartree energ DENC   =    -51389.52885923
  -exchange      EXHF   =         0.00000000
  -V(xc)+E(xc)   XCENC  =       451.37368613
  PAW double counting   =    112463.25457755  -112202.49009894
  entropy T*S    EENTRO =        -0.00000000
  eigenvalues    EBANDS =     -2632.23699643
  atomic energy  EATOM  =      8369.52358910
  ---------------------------------------------------
  free energy    TOTEN  =      -484.77211194 eV

  energy without entropy =     -484.77211194  energy(sigma->0) =     -484.77211194


--------------------------------------------------------------------------------------------------------




--------------------------------------- Iteration      1(  29)  ---------------------------------------


[...]
     30     C        0.00028590
     31     C       -0.00059886
     32     C       -0.00031643
     33     C        0.00018771
     34     C        0.00021066
     35     C        0.00024999
     36     C        0.00019416
     37     C       -0.00001225
     38     C       -0.00000990
     39     C       -0.00014883
     40     C       -0.00007835
     41     C       -0.00009135
     42     C       -0.00023105
     43     C        0.00006889
     44     C       -0.00008826
     45     C        0.00029631
     46     C        0.00030114
     47     C        0.00021808
     48     C        0.00023788
     49     C        0.00002077
     50     C        0.00001833
     51     C        0.29485747
     52     O       -0.14716743
     53     O       -0.14707378

  Atomic reference data used in the T-S method for vdW correction:
            C6at              R0at           ALPHAat      REFSTATE
            (au)              (au)            (au)                
   ---------------------------------------------------------------
   C          46.600          3.590         12.000         0
   O          15.600          3.194          5.400         0
 
 Nth order contribution to Edisp (eV)
 Edisp(N=2):  -4.53992586272813     
 Edisp(N=3):  0.343640910349834     
 Edisp(N=4): -0.525032695720700     
 Edisp(N=5):  0.243997654129307     
 Edisp(N=6): -0.235972739773099     
 Edisp(N=inf):  -4.62259577012640     

  Tkatchenko/Scheffler method for vdW energy calculation
  ---------------------------------------------------------------------------------------------

  Parameters of vdW forcefield:
            C6ts              R0ts          ALPHAts         R0scs        ALPHAscs        RELVOL 
            (au)              (au)           (au)            (au)          (au)                 
   ---------------------------------------------------------------------------------------------
   C          32.913          3.388         10.085          3.266          9.033          0.840
   C          32.935          3.389         10.088          3.266          9.035          0.841
   C          32.961          3.389         10.092          3.267          9.037          0.841
   C          33.026          3.390         10.102          3.267          9.041          0.842
   C          32.902          3.388         10.083          3.266          9.030          0.840
   C          32.900          3.388         10.083          3.266          9.029          0.840
   C          33.008          3.390         10.099          3.268          9.045          0.842
   C          33.018          3.390         10.101          3.268          9.049          0.842
   C          32.964          3.389         10.093          3.267          9.041          0.841
   C          33.027          3.390         10.102          3.268          9.051          0.842
   C          32.884          3.388         10.081          3.266          9.032          0.840
   C          32.883          3.388         10.080          3.266          9.031          0.840
   C          33.039          3.390         10.104          3.268          9.051          0.842
   C          32.961          3.389         10.092          3.267          9.038          0.841
   C          32.897          3.388         10.082          3.265          9.026          0.840
   C          32.915          3.388         10.085          3.266          9.030          0.840
   C          32.891          3.388         10.081          3.266          9.031          0.840
   C          32.896          3.388         10.082          3.266          9.030          0.840
   C          32.930          3.389         10.087          3.266          9.034          0.841
   C          32.898          3.388         10.083          3.266          9.031          0.840
   C          32.934          3.389         10.088          3.266          9.033          0.841
   C          32.902          3.388         10.083          3.265          9.027          0.840
   C          33.067          3.391         10.108          3.268          9.046          0.842
   C          33.057          3.391         10.107          3.268          9.045          0.842
   C          32.882          3.388         10.080          3.266          9.033          0.840
   C          32.886          3.388         10.081          3.266          9.031          0.840
   C          32.980          3.389         10.095          3.267          9.044          0.841
   C          32.965          3.389         10.093          3.267          9.039          0.841
   C          32.910          3.388         10.084          3.266          9.029          0.840
   C          32.886          3.388         10.081          3.266          9.032          0.840
   C          32.991          3.390         10.097          3.267          9.038          0.841
   C          32.939          3.389         10.089          3.266          9.036          0.841
   C          32.886          3.388         10.081          3.266          9.031          0.840
   C          32.886          3.388         10.081          3.266          9.033          0.840
   C          32.891          3.388         10.082          3.266          9.031          0.840
   C          32.892          3.388         10.082          3.266          9.031          0.840
   C          32.912          3.388         10.085          3.266          9.032          0.840
   C          32.902          3.388         10.083          3.266          9.031          0.840
   C          32.909          3.388         10.084          3.266          9.034          0.840
   C          32.901          3.388         10.083          3.266          9.033          0.840
   C          32.903          3.388         10.083          3.266          9.033          0.840
   C          32.921          3.388         10.086          3.266          9.035          0.841
   C          32.901          3.388         10.083          3.266          9.031          0.840
   C          32.943          3.389         10.089          3.266          9.036          0.841
   C          32.886          3.388         10.081          3.266          9.031          0.840
   C          32.908          3.388         10.084          3.266          9.029          0.840
   C          32.886          3.388         10.081          3.266          9.031          0.840
   C          32.883          3.388         10.080          3.266          9.033          0.840
   C          32.896          3.388         10.082          3.266          9.031          0.840
   C          32.894          3.388         10.082          3.266          9.032          0.840
   C          26.443          3.267          9.039          3.201          8.506          0.753
   O          12.423          3.075          4.819          3.033          4.627          0.892
   O          12.413          3.074          4.817          3.033          4.625          0.892

  vdW correction parametrized for the method pbe       

  IVDW = 202
  VDW_RADIUS =    50.000 A
  VDW_SR =     0.830
  VDW_D =     6.000
  SCSRAD =   120.000 A
  LVDWSCS = T
  LSCSGRAD = T
  LSCALER0 = T
  ITIM = -1
  Edisp (eV):   -4.62260
    FORVDW:  cpu time   18.7689: real time   18.9006

 VOLUME and BASIS-vectors are now :
 -----------------------------------------------------------------------------
  energy-cutoff  :     1000.00
  volume of cell :     3288.85
      direct lattice vectors                 reciprocal lattice vectors
    12.325000000  0.000000000  0.000000000     0.081135903  0.046843835  0.000000000
    -6.162500000 10.673763102  0.000000000     0.000000000  0.093687670  0.000000000
     0.000000000  0.000000000 25.000000000     0.000000000  0.000000000  0.040000000

  length of vectors
    12.325000000 12.325000000 25.000000000     0.093687670  0.093687670  0.040000000


 FORCES acting on ions:
    Electron-Ion                     Ewald-Force                    Non-Local-Force
 -----------------------------------------------------------------------------------------------
   0.377E+01 0.327E+01 0.233E+02   -.377E+01 -.327E+01 -.233E+02   0.766E-02 -.111E-02 0.744E-02
   0.548E+01 0.267E+01 0.264E+02   -.549E+01 -.267E+01 -.264E+02   0.834E-02 -.459E-02 -.570E-02
   0.235E+01 0.630E+01 0.285E+02   -.235E+01 -.631E+01 -.286E+02   -.608E-03 0.171E-01 0.497E-02
   0.311E+01 0.450E+01 0.352E+02   -.312E+01 -.451E+01 -.352E+02   0.161E-01 0.291E-02 -.257E-02
   0.402E+01 0.954E+00 0.235E+02   -.402E+01 -.952E+00 -.235E+02   0.206E-02 -.790E-02 0.400E-03
   0.413E+01 -.813E+00 0.238E+02   -.413E+01 0.816E+00 -.238E+02   -.669E-02 0.212E-02 -.733E-02
   0.589E+01 0.215E+01 0.334E+02   -.590E+01 -.215E+01 -.334E+02   0.189E-01 -.227E-01 -.213E-02
   0.571E+01 -.204E+01 0.347E+02   -.572E+01 0.205E+01 -.347E+02   -.179E-03 -.984E-02 -.741E-02
   -.281E+01 0.569E+01 0.287E+02   0.282E+01 -.569E+01 -.287E+02   -.497E-02 -.843E-02 -.692E-02
   -.423E+01 0.356E+01 0.346E+02   0.425E+01 -.357E+01 -.346E+02   -.335E-01 0.202E-01 0.610E-02
   0.105E+01 -.103E+01 0.212E+02   -.104E+01 0.103E+01 -.212E+02   0.216E-02 -.231E-02 -.285E-02
   0.904E+00 -.757E+00 0.205E+02   -.901E+00 0.756E+00 -.205E+02   -.927E-02 0.427E-02 0.372E-02
   0.226E+01 -.485E+01 0.369E+02   -.227E+01 0.486E+01 -.369E+02   0.342E-01 -.131E-01 0.134E-02
   0.128E+01 -.632E+01 0.297E+02   -.129E+01 0.633E+01 -.297E+02   0.861E-02 0.250E-02 -.178E-01
   -.363E+01 0.223E+01 0.229E+02   0.363E+01 -.224E+01 -.229E+02   0.745E-02 -.355E-02 0.260E-02
   -.495E+01 0.147E+01 0.244E+02   0.496E+01 -.147E+01 -.244E+02   -.454E-02 0.767E-02 -.956E-02
   -.644E+00 -.254E+00 0.199E+02   0.650E+00 0.251E+00 -.199E+02   -.291E-02 0.127E-02 0.134E-02
   0.298E+00 0.224E+01 0.205E+02   -.296E+00 -.224E+01 -.205E+02   -.474E-02 0.283E-02 0.915E-02
   -.961E+00 -.593E+01 0.261E+02   0.956E+00 0.593E+01 -.261E+02   0.939E-02 -.450E-02 0.123E-02
   -.509E+00 -.335E+01 0.218E+02   0.503E+00 0.336E+01 -.218E+02   0.244E-02 -.308E-02 -.135E-02
   0.548E+01 -.242E+01 0.276E+02   -.548E+01 0.242E+01 -.275E+02   0.128E-02 -.488E-02 -.229E-01
   0.366E+01 -.304E+01 0.247E+02   -.366E+01 0.304E+01 -.247E+02   -.663E-02 0.545E-02 -.784E-02
   -.109E+01 0.207E+01 0.394E+02   0.109E+01 -.207E+01 -.394E+02   -.134E-01 0.135E-01 0.167E-01
   -.148E+01 -.324E+01 0.388E+02   0.148E+01 0.325E+01 -.388E+02   0.141E-01 -.192E-01 0.406E-02
   0.193E+01 -.765E+00 0.213E+02   -.192E+01 0.763E+00 -.213E+02   0.181E-02 -.187E-02 -.657E-02
   0.437E+00 0.169E+01 0.213E+02   -.434E+00 -.169E+01 -.213E+02   -.756E-02 0.479E-02 0.276E-02
   -.635E+01 0.875E+00 0.301E+02   0.637E+01 -.881E+00 -.301E+02   0.572E-02 0.110E-01 -.345E-02
   -.609E+01 -.242E+01 0.288E+02   0.610E+01 0.242E+01 -.288E+02   -.145E-01 0.112E-01 0.360E-02
   0.217E+01 -.434E+01 0.253E+02   -.217E+01 0.434E+01 -.253E+02   0.770E-02 0.128E-02 -.116E-01
   0.189E+00 -.183E+01 0.221E+02   -.193E+00 0.183E+01 -.221E+02   -.354E-02 0.265E-02 -.570E-02
   -.449E+01 -.469E+01 0.320E+02   0.450E+01 0.470E+01 -.320E+02   -.162E-01 -.107E-01 -.383E-02
   -.305E+01 -.565E+01 0.267E+02   0.306E+01 0.566E+01 -.267E+02   0.700E-03 -.557E-02 0.609E-02
   0.252E+00 0.100E+01 0.204E+02   -.255E+00 -.100E+01 -.204E+02   0.731E-02 -.565E-02 0.537E-02
   0.654E+00 0.983E+00 0.212E+02   -.657E+00 -.981E+00 -.211E+02   -.140E-02 0.378E-02 -.356E-02
   -.254E+01 0.402E+00 0.220E+02   0.254E+01 -.404E+00 -.220E+02   0.389E-02 -.171E-02 0.270E-02
   -.225E+01 -.951E+00 0.217E+02   0.225E+01 0.949E+00 -.217E+02   -.665E-02 0.375E-02 0.147E-02
   -.437E+01 -.227E+01 0.234E+02   0.438E+01 0.227E+01 -.234E+02   -.536E-02 0.163E-02 0.310E-02
   -.277E+01 -.221E+01 0.215E+02   0.277E+01 0.221E+01 -.215E+02   -.644E-02 0.149E-02 0.952E-02
   -.253E+01 -.325E+01 0.223E+02   0.253E+01 0.326E+01 -.223E+02   -.500E-02 -.116E-02 0.642E-02
   -.384E+00 -.838E+00 0.206E+02   0.384E+00 0.838E+00 -.206E+02   0.239E-02 -.226E-03 0.815E-02
   0.949E+00 0.236E+01 0.210E+02   -.949E+00 -.236E+01 -.210E+02   -.446E-02 0.356E-02 0.782E-02
   0.294E+01 0.459E+01 0.238E+02   -.294E+01 -.460E+01 -.238E+02   0.175E-02 0.130E-02 0.103E-01
   0.264E+00 0.399E+01 0.220E+02   -.258E+00 -.400E+01 -.220E+02   -.290E-02 0.352E-02 0.110E-02
   -.733E-01 0.628E+01 0.265E+02   0.793E-01 -.629E+01 -.265E+02   -.120E-01 0.546E-02 0.603E-02
   -.752E+00 0.145E+01 0.219E+02   0.755E+00 -.145E+01 -.219E+02   0.327E-02 -.276E-02 -.224E-02
   -.293E+01 0.362E+01 0.241E+02   0.293E+01 -.362E+01 -.241E+02   -.902E-02 0.184E-02 -.616E-02
   -.647E+00 -.167E+01 0.212E+02   0.644E+00 0.167E+01 -.212E+02   0.866E-02 -.214E-02 0.364E-02
   -.152E+01 0.573E+00 0.205E+02   0.151E+01 -.572E+00 -.205E+02   -.194E-02 0.280E-02 -.567E-02
   0.157E+00 -.105E+01 0.205E+02   -.159E+00 0.105E+01 -.205E+02   0.579E-02 -.379E-02 0.588E-02
   0.165E+01 0.119E+01 0.206E+02   -.166E+01 -.118E+01 -.206E+02   0.249E-02 0.115E-02 0.302E-02
   0.205E-01 0.109E-02 -.316E+03   -.242E-01 0.233E-02 0.316E+03   -.305E-02 0.200E-02 -.401E-02
   -.229E+03 0.156E+03 -.487E+03   0.279E+03 -.190E+03 0.491E+03   -.511E+02 0.348E+02 -.343E+01
   0.229E+03 -.156E+03 -.465E+03   -.279E+03 0.190E+03 0.462E+03   0.511E+02 -.348E+02 0.309E+01
 -----------------------------------------------------------------------------------------------
   -.589E-02 0.129E-01 0.344E+00   0.171E-12 -.142E-12 -.171E-12   0.576E-02 -.129E-01 -.342E+00
 
 
 POSITION                                       TOTAL-FORCE (eV/Angst)
 -----------------------------------------------------------------------------------
     11.98348      0.00342      0.01417         0.002830     -0.001245     -0.001125
     -0.34154      1.42665      0.01100        -0.001323      0.000089     -0.003131
      2.12355      0.00315      0.01249        -0.001498      0.009429     -0.005911
      2.12326      1.42653      0.00641         0.011771      0.000845     -0.006545
     10.75099      2.13819      0.01213         0.000128     -0.005352      0.000019
     -1.57382      3.56123      0.01110        -0.008175      0.005203     -0.001400
      0.89078      2.13854      0.00548         0.008144     -0.017703      0.003398
      0.89099      3.56147      0.00181        -0.012922     -0.001589      0.012973
      4.58864      0.00346      0.01135         0.004317     -0.016372     -0.003164
      4.58894      1.42623      0.00646        -0.021644      0.012074      0.015183
      9.51854      4.27281      0.01369         0.006851     -0.003430      0.000140
     -2.80632      5.69591      0.01434        -0.006207      0.003276      0.000769
      2.12300      4.27302      0.00000         0.022962     -0.003992      0.022072
      2.12335      5.69594      0.00581        -0.001225      0.009629     -0.002074
      7.05344      0.00333      0.01399         0.009078     -0.005068     -0.000365
      7.05353      1.42635      0.01368        -0.001535      0.004777     -0.003783
      8.28610      6.40752      0.01601         0.003284     -0.001590     -0.000904
     -4.03885      7.83070      0.01636        -0.001909      0.000837     -0.000234
      3.35586      6.40753      0.01007         0.004505      0.000645     -0.001163
      3.35599      7.83072      0.01320        -0.003435      0.000231     -0.000626
     -0.34146      4.27290      0.00723        -0.001923     -0.001290     -0.004125
     -0.34138      5.69591      0.00946        -0.008962      0.005925     -0.000920
      3.35624      2.13791      0.00222        -0.012236      0.010938      0.018798
      3.35573      3.56155      0.00139         0.012539     -0.014454      0.010996
     -1.57395      6.40758      0.01311         0.006032     -0.004125     -0.000657
     -1.57385      7.83068      0.01438        -0.004594      0.003554      0.000022
      5.82093      2.13784      0.01033         0.016862      0.004599     -0.002422
      5.82114      3.56097      0.01156        -0.005316      0.007659     -0.003377
      0.89092      6.40755      0.00907         0.004313      0.002213     -0.002042
      0.89106      7.83068      0.01235        -0.007067      0.003281      0.000316
      4.58871      4.27293      0.00850        -0.011549     -0.005949     -0.009736
      4.58852      5.69606      0.01149         0.001871     -0.000139     -0.003679
      9.51845      0.00337      0.01490         0.004518     -0.004567      0.000148
      9.51855      1.42644      0.01438        -0.004976      0.005808     -0.000426
      8.28593      2.13803      0.01453         0.006258     -0.003731      0.000529
      8.28613      3.56115      0.01464        -0.003978      0.002092     -0.000095
      7.05356      4.27269      0.01457         0.003156     -0.001149     -0.000629
      7.05362      5.69588      0.01553        -0.002222      0.001344     -0.000206
      5.82112      6.40755      0.01489        -0.002652      0.001784     -0.000133
      5.82102      7.83073      0.01579         0.002660      0.000411     -0.000394
      7.05363      8.54227      0.01631        -0.004621      0.000986      0.000936
     -5.27149      9.96549      0.01495        -0.000313     -0.002351     -0.002151
     -2.80638      8.54234      0.01558         0.003458     -0.001631     -0.001273
     -2.80627      9.96553      0.01362        -0.005704     -0.000423     -0.003754
     -0.34149      8.54239      0.01378         0.005943     -0.004446      0.000166
     -0.34138      9.96550      0.01354        -0.005777     -0.000127     -0.001262
      2.12343      8.54232      0.01336         0.005619     -0.001464      0.000803
      2.12354      9.96544      0.01469        -0.005604      0.003943     -0.001992
      4.58846      8.54235      0.01505         0.003464     -0.002779      0.000874
      4.58853      9.96550      0.01517        -0.003108      0.003386      0.000096
      3.04930      2.68154      5.29732        -0.006414      0.005255      0.025441
      4.02070      2.02068      5.36174        -0.529066      0.359541     -0.055557
      2.07767      3.34267      5.23786         0.535389     -0.364786      0.011572
 -----------------------------------------------------------------------------------
    total drift:                               -0.000139      0.000003      0.001274


--------------------------------------------------------------------------------------------------------



  FREE ENERGIE OF THE ION-ELECTRON SYSTEM (eV)
  ---------------------------------------------------
  free  energy   TOTEN  =      -489.39470775 eV

  energy  without entropy=     -489.39470775  energy(sigma->0) =     -489.39470775
 


--------------------------------------------------------------------------------------------------------


    POTLOK:  cpu time    0.7275: real time    0.7341


--------------------------------------------------------------------------------------------------------


     LOOP+:  cpu time  488.9488: real time  493.5011
    4ORBIT:  cpu time    0.0000: real time    0.0000

 total amount of memory used by VASP MPI-rank0   551512. kBytes
=======================================================================

   base      :      30000. kBytes
   nonl-proj :     230539. kBytes
   fftplans  :      40716. kBytes
   grid      :     216018. kBytes
   one-center:        162. kBytes
   wavefun   :      34077. kBytes
 
  
  
 General timing and accounting informations for this job:
 ========================================================
  
                  Total CPU time used (sec):      535.832
                            User time (sec):      506.298
                          System time (sec):       29.535
                         Elapsed time (sec):      541.752
  
                   Maximum memory used (kb):     1049168.
                   Average memory used (kb):          N/A
  
                          Minor page faults:       144709
                          Major page faults:           69
                 Voluntary context switches:         3703
