 vasp.6.2.1 16May21 (build Nov 06 2021 14:46:37) complex                        
  
 executed on             LinuxIFC date 2025.04.16  19:15:36
 running on  112 total cores
 distrk:  each k-point on   56 cores,    2 groups
 distr:  one band on NCORE=   1 cores,   56 groups


--------------------------------------------------------------------------------------------------------


 INCAR:
   ALGO = Conjugate
   KPAR = 2
   NCORE = 32
   PREC = Accurate
   EDIFF = 1E-7
   ENCUT = 1000
   ISMEAR = 0
   SIGMA = 0.01
   ISIF = 0
   GGA = PE
   IVDW = 202
   LVDWEXPANSION = .TRUE.
   LWAVE = .FALSE.
   LCHARGE = .FALSE.
   SYMPREC = 1E-7

 POTCAR:    PAW_PBE C_h 06Feb2004                 
 POTCAR:    PAW_PBE O_h 06Feb2004                 
 -----------------------------------------------------------------------------
|                                                                             |
|           W    W    AA    RRRRR   N    N  II  N    N   GGGG   !!!           |
|           W    W   A  A   R    R  NN   N  II  NN   N  G    G  !!!           |
|           W    W  A    A  R    R  N N  N  II  N N  N  G       !!!           |
|           W WW W  AAAAAA  RRRRR   N  N N  II  N  N N  G  GGG   !            |
|           WW  WW  A    A  R   R   N   NN  II  N   NN  G    G                |
|           W    W  A    A  R    R  N    N  II  N    N   GGGG   !!!           |
|                                                                             |
|     The value NCORE = 32 specified in the INCAR file was overwritten,       |
|     because it was not compatible with the 56 processes available:          |
|     NCORE = 1                                                               |
|     was used instead, please check that this makes sense for your           |
|     machine.                                                                |
|                                                                             |
 -----------------------------------------------------------------------------

 -----------------------------------------------------------------------------
|                                                                             |
|           W    W    AA    RRRRR   N    N  II  N    N   GGGG   !!!           |
|           W    W   A  A   R    R  NN   N  II  NN   N  G    G  !!!           |
|           W    W  A    A  R    R  N N  N  II  N N  N  G       !!!           |
|           W WW W  AAAAAA  RRRRR   N  N N  II  N  N N  G  GGG   !            |
|           WW  WW  A    A  R   R   N   NN  II  N   NN  G    G                |
|           W    W  A    A  R    R  N    N  II  N    N   GGGG   !!!           |
|                                                                             |
|     For optimal performance we recommend to set                             |
|       NCORE = 2 up to number-of-cores-per-socket                            |
|     NCORE specifies how many cores store one orbital (NPAR=cpu/NCORE).      |
|     This setting can greatly improve the performance of VASP for DFT.       |
|     The default, NCORE=1 might be grossly inefficient on modern             |
|     multi-core architectures or massively parallel machines. Do your        |
|     own testing! More info at https://www.vasp.at/wiki/index.php/NCORE      |
|     Unfortunately you need to use the default for GW and RPA                |
|     calculations (for HF NCORE is supported but not extensively tested      |
|     yet).                                                                   |
|                                                                             |
 -----------------------------------------------------------------------------

 POTCAR:    PAW_PBE C_h 06Feb2004                 
   VRHFIN =C: s2p2                                                                                  
   LEXCH  = PE                                                                                      
   EATOM  =   147.1560 eV,   10.8157 Ry                                                             
                                                                                                    
   TITEL  = PAW_PBE C_h 06Feb2004                                                                   
   LULTRA =        F    use ultrasoft PP ?                                                          
   IUNSCR =        1    unscreen: 0-lin 1-nonlin 2-no                                               
   RPACOR =    0.800    partial core radius                                                         
   POMASS =   12.011; ZVAL   =    4.000    mass and valenz                                          
   RCORE  =    1.100    outmost cutoff radius                                                       
   RWIGS  =    1.630; RWIGS  =    0.863    wigner-seitz radius (au A)                               
   ENMAX  =  700.000; ENMIN  =  500.000 eV                                                          
   ICORE  =        2    local potential                                                             
   LCOR   =        T    correct aug charges                                                         
   LPAW   =        T    paw PP                                                                      
   EAUG   =  946.768                                                                                
   DEXC   =    0.000                                                                                
   RMAX   =    1.128    core radius for proj-oper                                                   
   RAUG   =    1.300    factor for augmentation sphere                                              
   RDEP   =    1.162    radius for radial grids                                                     
   RDEPT  =    1.088    core radius for aug-charge                                                  
                                                                                                    
   Atomic configuration                                                                             
    4 entries                                                                                       
     n  l   j            E        occ.                                                              
     1  0  0.50      -273.3789   2.0000                                                             
     2  0  0.50       -13.7508   2.0000                                                             
     2  1  0.50        -5.2854   2.0000                                                             
     3  2  1.50        -5.4423   0.0000                                                             
   Description                                                                                      
     l       E           TYP  RCUT    TYP  RCUT                                                     
     0    -13.7508458     23  1.100                                                                 
     0     -8.2022199     23  1.100                                                                 
     1     -5.2854383     23  1.100                                                                 
     1      1.1560700     23  1.100                                                                 
     2     -5.4423304      7  1.100                                                                 
  local pseudopotential read in
  partial core-charges read in
  partial kinetic energy density read in
  atomic valenz-charges read in
  non local Contribution for L=           0  read in
    real space projection operators read in
  non local Contribution for L=           0  read in
    real space projection operators read in
  non local Contribution for L=           1  read in
    real space projection operators read in
  non local Contribution for L=           1  read in
    real space projection operators read in
    PAW grid and wavefunctions read in
 
   number of l-projection  operators is LMAX  =           4
   number of lm-projection operators is LMMAX =           8
 
 POTCAR:    PAW_PBE O_h 06Feb2004                 
   VRHFIN =O: s2p4                                                                                  
   LEXCH  = PE                                                                                      
   EATOM  =   432.3788 eV,   31.7789 Ry                                                             
                                                                                                    
   TITEL  = PAW_PBE O_h 06Feb2004                                                                   
   LULTRA =        F    use ultrasoft PP ?                                                          
   IUNSCR =        1    unscreen: 0-lin 1-nonlin 2-no                                               
   RPACOR =    0.800    partial core radius                                                         
   POMASS =   16.000; ZVAL   =    6.000    mass and valenz                                          
   RCORE  =    1.100    outmost cutoff radius                                                       
   RWIGS  =    1.400; RWIGS  =    0.741    wigner-seitz radius (au A)                               
   ENMAX  =  700.000; ENMIN  =  500.000 eV                                                          
   ICORE  =        2    local potential                                                             
   LCOR   =        T    correct aug charges                                                         
   LPAW   =        T    paw PP                                                                      
   EAUG   =  888.804                                                                                
   DEXC   =    0.000                                                                                
   RMAX   =    1.128    core radius for proj-oper                                                   
   RAUG   =    1.300    factor for augmentation sphere                                              
   RDEP   =    1.125    radius for radial grids                                                     
   RDEPT  =    1.088    core radius for aug-charge                                                  
                                                                                                    
   Atomic configuration                                                                             
    4 entries                                                                                       
     n  l   j            E        occ.                                                              
     1  0  0.50      -514.6923   2.0000                                                             
     2  0  0.50       -23.9615   2.0000                                                             
     2  1  0.50        -9.0305   4.0000                                                             
     3  2  1.50        -9.5241   0.0000                                                             
   Description                                                                                      
     l       E           TYP  RCUT    TYP  RCUT                                                     
     0    -23.9615319     23  1.100                                                                 
     0    -25.3221145     23  1.100                                                                 
     1     -9.0304911     23  1.100                                                                 
     1     -5.4802209     23  1.100                                                                 
     2     -9.5240782      7  1.100                                                                 
  local pseudopotential read in
  partial core-charges read in
  partial kinetic energy density read in
  atomic valenz-charges read in
  non local Contribution for L=           0  read in
    real space projection operators read in
  non local Contribution for L=           0  read in
    real space projection operators read in
  non local Contribution for L=           1  read in
    real space projection operators read in
  non local Contribution for L=           1  read in
    real space projection operators read in
    PAW grid and wavefunctions read in
 
   number of l-projection  operators is LMAX  =           4
   number of lm-projection operators is LMMAX =           8
 
 -----------------------------------------------------------------------------
|                                                                             |
|               ----> ADVICE to this user running VASP <----                  |
|                                                                             |
|     You have a (more or less) 'large supercell' and for larger cells it     |
|     might be more efficient to use real-space projection operators.         |
|     Therefore, try LREAL= Auto in the INCAR file.                           |
|     Mind: For very accurate calculation, you might also keep the            |
|     reciprocal projection scheme (i.e. LREAL=.FALSE.).                      |
|                                                                             |
 -----------------------------------------------------------------------------

  PAW_PBE C_h 06Feb2004                 :
 energy of atom  1       EATOM= -147.1560
 kinetic energy error for atom=    0.0031 (will be added to EATOM!!)
  PAW_PBE O_h 06Feb2004                 :
 energy of atom  2       EATOM= -432.3788
 kinetic energy error for atom=    0.0171 (will be added to EATOM!!)
 
 
 POSCAR:  C  O
  positions in cartesian coordinates
  No initial velocities read in
 exchange correlation table for  LEXCH =        8
   RHO(1)=    0.500       N(1)  =     2000
   RHO(2)=  100.500       N(2)  =     4000
 


--------------------------------------------------------------------------------------------------------


 ion  position               nearest neighbor table
   1  0.972  0.000  0.001-  50 1.42   2 1.42  42 1.42
   2  0.039  0.134  0.000-   5 1.42   7 1.42   1 1.42
   3  0.172  0.000  0.000-  42 1.42  44 1.42   4 1.42
   4  0.239  0.134  0.000-   7 1.42   3 1.42  23 1.42
   5  0.972  0.200  0.000-   6 1.42   2 1.42  34 1.42
   6  0.039  0.334  0.000-   5 1.42  21 1.42  11 1.42
   7  0.172  0.200  0.000-   8 1.42   2 1.42   4 1.42
   8  0.239  0.334  0.000-  13 1.42   7 1.42  21 1.42
   9  0.372  0.000  0.000-  10 1.42  44 1.42  46 1.42
  10  0.439  0.134  0.000-  27 1.42   9 1.42  23 1.42
  11  0.972  0.400  0.001-  12 1.42  36 1.42   6 1.42
  12  0.039  0.534  0.001-  25 1.42  11 1.42  17 1.42
  13  0.372  0.400  0.000-   8 1.42  14 1.42  24 1.42
  14  0.439  0.534  0.000-  13 1.42  29 1.42  19 1.42
  15  0.572  0.000  0.001-  46 1.42  16 1.42  48 1.42
  16  0.639  0.134  0.001-  15 1.42  35 1.42  27 1.42
  17  0.972  0.600  0.001-  38 1.42  18 1.42  12 1.42
  18  0.039  0.734  0.001-  43 1.42  41 1.42  17 1.42
  19  0.572  0.600  0.000-  14 1.42  20 1.42  32 1.42
  20  0.639  0.734  0.001-  49 1.42  19 1.42  47 1.42
  21  0.172  0.400  0.000-  22 1.42   8 1.42   6 1.42
  22  0.239  0.534  0.000-  21 1.42  29 1.42  25 1.42
  23  0.372  0.200  0.000-  10 1.42   4 1.42  24 1.42
  24  0.439  0.334  0.000-  13 1.42  31 1.42  23 1.42
  25  0.172  0.600  0.001-  26 1.42  12 1.42  22 1.42
  26  0.239  0.734  0.001-  25 1.42  45 1.42  43 1.42
  27  0.572  0.200  0.000-  10 1.42  28 1.42  16 1.42
  28  0.639  0.334  0.000-  27 1.42  37 1.42  31 1.42
  29  0.372  0.600  0.000-  22 1.42  14 1.42  30 1.42
  30  0.439  0.734  0.000-  47 1.42  29 1.42  45 1.42
  31  0.572  0.400  0.000-  32 1.42  28 1.42  24 1.42
  32  0.639  0.534  0.000-  31 1.42  39 1.42  19 1.42
  33  0.772  0.000  0.001-  34 1.42  48 1.42  50 1.42
  34  0.839  0.134  0.001-  33 1.42   5 1.42  35 1.42
  35  0.772  0.200  0.001-  36 1.42  16 1.42  34 1.42
  36  0.839  0.334  0.001-  35 1.42  11 1.42  37 1.42
  37  0.772  0.400  0.001-  28 1.42  38 1.42  36 1.42
  38  0.839  0.534  0.001-  17 1.42  37 1.42  39 1.42
  39  0.772  0.600  0.001-  40 1.42  38 1.42  32 1.42
  40  0.839  0.734  0.001-  39 1.42  49 1.42  41 1.42
  41  0.972  0.800  0.001-  18 1.42  42 1.42  40 1.42
  42  0.039  0.934  0.001-   3 1.42  41 1.42   1 1.42
  43  0.172  0.800  0.001-  18 1.42  44 1.42  26 1.42
  44  0.239  0.934  0.001-   9 1.42  43 1.42   3 1.42
  45  0.372  0.800  0.001-  26 1.42  46 1.42  30 1.42
  46  0.439  0.934  0.001-  15 1.42  45 1.42   9 1.42
  47  0.572  0.800  0.001-  30 1.42  48 1.42  20 1.42
  48  0.639  0.934  0.001-  47 1.42  33 1.42  15 1.42
  49  0.772  0.800  0.001-  50 1.42  20 1.42  40 1.42
  50  0.839  0.934  0.001-  49 1.42   1 1.42  33 1.42
  51  0.373  0.251  0.300-  52 1.18  53 1.18
  52  0.421  0.189  0.302-  51 1.18
  53  0.325  0.313  0.297-  51 1.18
 
  LATTYP: Found a hexagonal cell.
 ALAT       =    12.3250000000
 C/A-ratio  =     2.0283975659
  
  Lattice vectors:
  
 A1 = (  12.3250000000,   0.0000000000,   0.0000000000)
 A2 = (  -6.1625000000,  10.6737631016,   0.0000000000)
 A3 = (   0.0000000000,   0.0000000000,  25.0000000000)


Analysis of symmetry for initial positions (statically):
=====================================================================
 Subroutine PRICEL returns:
 Original cell was already a primitive cell.
 

 Routine SETGRP: Setting up the symmetry group for a 
 hexagonal supercell.


 Subroutine GETGRP returns: Found  1 space group operations
 (whereof  1 operations were pure point group operations)
 out of a pool of 24 trial point group operations.


The static configuration has the point symmetry C_1 .


Analysis of symmetry for dynamics (positions and initial velocities):
=====================================================================
 Subroutine PRICEL returns:
 Original cell was already a primitive cell.
 

 Routine SETGRP: Setting up the symmetry group for a 
 hexagonal supercell.


 Subroutine GETGRP returns: Found  1 space group operations
 (whereof  1 operations were pure point group operations)
 out of a pool of 24 trial point group operations.


The dynamic configuration has the point symmetry C_1 .


 Subroutine INISYM returns: Found  1 space group operations
 (whereof  1 operations are pure point group operations),
 and found     1 'primitive' translations


----------------------------------------------------------------------------------------

                                     Primitive cell                                     

  volume of cell :    3288.8533

  direct lattice vectors                    reciprocal lattice vectors
    12.325000000  0.000000000  0.000000000     0.081135903  0.046843835  0.000000000
    -6.162500000 10.673763102  0.000000000     0.000000000  0.093687670  0.000000000
     0.000000000  0.000000000 25.000000000     0.000000000  0.000000000  0.040000000

  length of vectors
    12.325000000 12.325000000 25.000000000     0.093687670  0.093687670  0.040000000

  position of ions in fractional coordinates (direct lattice)
     0.972450841  0.000320818  0.000566711
     0.039118382  0.133659505  0.000440173
     0.172443627  0.000295449  0.000499628
     0.239096278  0.133647917  0.000256468
     0.972452058  0.200322012  0.000485219
     0.039128360  0.333643771  0.000444150
     0.172451764  0.200354552  0.000219167
     0.239124359  0.333665720  0.000072260
     0.372465565  0.000324403  0.000453913
     0.439137473  0.133619939  0.000258338
     0.972449824  0.400309362  0.000547611
     0.039124981  0.533636789  0.000573410
     0.372416176  0.400329481  0.000000000
     0.439099602  0.533638981  0.000232414
     0.572443676  0.000312125  0.000559580
     0.639110207  0.133631751  0.000547275
     0.972452703  0.600305653  0.000640289
     0.039124495  0.733640359  0.000654513
     0.572433471  0.600306242  0.000402895
     0.639111888  0.733641879  0.000527905
     0.172454630  0.400318228  0.000289045
     0.239120185  0.533636548  0.000378509
     0.372459750  0.200295993  0.000088997
     0.439107096  0.333673419  0.000055762
     0.172452155  0.600311506  0.000524340
     0.239123371  0.733638574  0.000575129
     0.572431082  0.200289171  0.000413296
     0.639112773  0.333618630  0.000462376
     0.372439808  0.600308022  0.000362844
     0.439116090  0.733637858  0.000494190
     0.572469358  0.400320504  0.000339918
     0.639119408  0.533650873  0.000459610
     0.772445723  0.000315427  0.000596161
     0.839116277  0.133640203  0.000575306
     0.772440513  0.200307432  0.000581033
     0.839120241  0.333635728  0.000585467
     0.772446320  0.400298367  0.000582978
     0.839118980  0.533633964  0.000621100
     0.772456143  0.600308173  0.000595712
     0.839115033  0.733643180  0.000631512
     0.972455313  0.800305582  0.000652233
     0.039114714  0.933643289  0.000598051
     0.172457971  0.800312211  0.000623372
     0.239134551  0.933647193  0.000544850
     0.372451396  0.800316674  0.000551399
     0.439124489  0.933644769  0.000541430
     0.572441101  0.800310054  0.000534535
     0.639115067  0.933638985  0.000587644
     0.772445098  0.800313187  0.000602062
     0.839116614  0.933644338  0.000606830
     0.373021009  0.251226878  0.299661415
     0.420879805  0.189313152  0.302238290
     0.325156981  0.313167186  0.297283220

  ion indices of the primitive-cell ions
   primitive index   ion index
                 1           1
                 2           2
                 3           3
                 4           4
                 5           5
                 6           6
                 7           7
                 8           8
                 9           9
                10          10
                11          11
                12          12
                13          13
                14          14
                15          15
                16          16
                17          17
                18          18
                19          19
                20          20
                21          21
                22          22
                23          23
                24          24
                25          25
                26          26
                27          27
                28          28
                29          29
                30          30
                31          31
                32          32
                33          33
                34          34
                35          35
                36          36
                37          37
                38          38
                39          39
                40          40
                41          41
                42          42
                43          43
                44          44
                45          45
                46          46
                47          47
                48          48
                49          49
                50          50
                51          51
                52          52
                53          53

----------------------------------------------------------------------------------------

 
 
 KPOINTS: auto                                    

Automatic generation of k-mesh.
 Grid dimensions read from file:
 generate k-points for:    1    1    1

 Generating k-lattice:

  Cartesian coordinates                     Fractional coordinates (reciprocal lattice)
     0.081135903  0.046843835  0.000000000     1.000000000 -0.000000000  0.000000000
     0.000000000  0.093687670  0.000000000     0.000000000  1.000000000  0.000000000
     0.000000000  0.000000000  0.040000000     0.000000000  0.000000000  1.000000000

  Length of vectors
     0.093687670  0.093687670  0.040000000

  Shift w.r.t. Gamma in fractional coordinates (k-lattice)
     0.000000000  0.000000000  0.000000000

 
 Subroutine IBZKPT returns following result:
 ===========================================
 
 Found      1 irreducible k-points:
 
 Following reciprocal coordinates:
            Coordinates               Weight
  0.000000  0.000000  0.000000      1.000000
 
 Following cartesian coordinates:
            Coordinates               Weight
  0.000000  0.000000  0.000000      1.000000
 


--------------------------------------------------------------------------------------------------------




 Dimension of arrays:
   k-points           NKPTS =      1   k-points in BZ     NKDIM =      1   number of bands    NBANDS=    168
   number of dos      NEDOS =    301   number of ions     NIONS =     53
   non local maximal  LDIM  =      4   non local SUM 2l+1 LMDIM =      8
   total plane-waves  NPLWV = ******
   max r-space proj   IRMAX =      1   max aug-charges    IRDMAX=  10008
   dimension x,y,z NGX =   128 NGY =  128 NGZ =  270
   dimension x,y,z NGXF=   256 NGYF=  256 NGZF=  540
   support grid    NGXF=   256 NGYF=  256 NGZF=  540
   ions per type =              51   2
   NGX,Y,Z   is equivalent  to a cutoff of  17.27, 17.27, 17.95 a.u.
   NGXF,Y,Z  is equivalent  to a cutoff of  34.53, 34.53, 35.91 a.u.

 SYSTEM =  unknown system                          
 POSCAR =   C  O                                   

 Startparameter for this run:
   NWRITE =      2    write-flag & timer
   PREC   = accura    normal or accurate (medium, high low for compatibility)
   ISTART =      0    job   : 0-new  1-cont  2-samecut
   ICHARG =      2    charge: 1-file 2-atom 10-const
   ISPIN  =      1    spin polarized calculation?
   LNONCOLLINEAR =      F non collinear calculations
   LSORBIT =      F    spin-orbit coupling
   INIWAV =      1    electr: 0-lowe 1-rand  2-diag
   LASPH  =      F    aspherical Exc in radial PAW
 Electronic Relaxation 1
   ENCUT  = 1000.0 eV  73.50 Ry    8.57 a.u.  31.78 31.78 64.46*2*pi/ulx,y,z
   ENINI  = 1000.0     initial cutoff
   ENAUG  =  946.8 eV  augmentation charge cutoff
   NELM   =     60;   NELMIN=  2; NELMDL= -5     # of ELM steps 
   EDIFF  = 0.1E-06   stopping-criterion for ELM
   LREAL  =      F    real-space projection
   NLSPLINE    = F    spline interpolate recip. space projectors
   LCOMPAT=      F    compatible to vasp.4.4
   GGA_COMPAT  = T    GGA compatible to vasp.4.4-vasp.4.6
   LMAXPAW     = -100 max onsite density
   LMAXMIX     =    2 max onsite mixed and CHGCAR
   VOSKOWN=      0    Vosko Wilk Nusair interpolation
   ROPT   =    0.00000   0.00000
 Ionic relaxation
   EDIFFG = 0.1E-05   stopping-criterion for IOM
   NSW    =      0    number of steps for IOM
   NBLOCK =      1;   KBLOCK =      1    inner block; outer block 
   IBRION =     -1    ionic relax: 0-MD 1-quasi-New 2-CG
   NFREE  =      0    steps in history (QN), initial steepest desc. (CG)
   ISIF   =      0    stress and relaxation
   IWAVPR =     10    prediction:  0-non 1-charg 2-wave 3-comb
   ISYM   =      2    0-nonsym 1-usesym 2-fastsym
   LCORR  =      T    Harris-Foulkes like correction to forces

   POTIM  = 0.5000    time-step for ionic-motion
   TEIN   =    0.0    initial temperature
   TEBEG  =    0.0;   TEEND  =   0.0 temperature during run
   SMASS  =  -3.00    Nose mass-parameter (am)
   estimated Nose-frequenzy (Omega)   =  0.10E-29 period in steps = 0.13E+47 mass=  -0.347E-26a.u.
   SCALEE = 1.0000    scale energy and forces
   NPACO  =    256;   APACO  = 16.0  distance and # of slots for P.C.
   PSTRESS=    0.0 pullay stress

  Mass of Ions in am
   POMASS =  12.01 16.00
  Ionic Valenz
   ZVAL   =   4.00  6.00
  Atomic Wigner-Seitz radii
   RWIGS  =  -1.00 -1.00
  virtual crystal weights 
   VCA    =   1.00  1.00
   NELECT =     216.0000    total number of electrons
   NUPDOWN=      -1.0000    fix difference up-down

 DOS related values:
   EMIN   =  10.00;   EMAX   =-10.00  energy-range for DOS
   EFERMI =   0.00
   ISMEAR =     0;   SIGMA  =   0.01  broadening in eV -4-tet -1-fermi 0-gaus

 Electronic relaxation 2 (details)
   IALGO  =     58    algorithm
   LDIAG  =      T    sub-space diagonalisation (order eigenvalues)
   LSUBROT=      F    optimize rotation matrix (better conditioning)
   TURBO    =      0    0=normal 1=particle mesh
   IRESTART =      0    0=no restart 2=restart with 2 vectors
   NREBOOT  =      0    no. of reboots
   NMIN     =      0    reboot dimension
   EREF     =   0.00    reference energy to select bands
   IMIX   =      4    mixing-type and parameters
     AMIX     =   0.40;   BMIX     =  1.00
     AMIX_MAG =   1.60;   BMIX_MAG =  1.00
     AMIN     =   0.10
     WC   =   100.;   INIMIX=   1;  MIXPRE=   1;  MAXMIX= -45

 Intra band minimization:
   WEIMIN = 0.0000     energy-eigenvalue tresh-hold
   EBREAK =  0.15E-09  absolut break condition
   DEPER  =   0.30     relativ break condition  

   TIME   =   0.40     timestep for ELM

  volume/ion in A,a.u.               =      62.05       418.76
  Fermi-wavevector in a.u.,A,eV,Ry     =   0.660508  1.248179  5.935820  0.436270
  Thomas-Fermi vector in A             =   1.732977
 
 Write flags
   LWAVE        =      F    write WAVECAR
   LDOWNSAMPLE  =      F    k-point downsampling of WAVECAR
   LCHARG       =      T    write CHGCAR
   LVTOT        =      F    write LOCPOT, total local potential
   LVHAR        =      F    write LOCPOT, Hartree potential only
   LELF         =      F    write electronic localiz. function (ELF)
   LORBIT       =      0    0 simple, 1 ext, 2 COOP (PROOUT), +10 PAW based schemes


 Dipole corrections
   LMONO  =      F    monopole corrections only (constant potential shift)
   LDIPOL =      F    correct potential (dipole corrections)
   IDIPOL =      0    1-x, 2-y, 3-z, 4-all directions 
   EPSILON=  1.0000000 bulk dielectric constant

 Exchange correlation treatment:
   GGA     =    PE    GGA type
   LEXCH   =     8    internal setting for exchange type
   VOSKOWN=      0    Vosko Wilk Nusair interpolation
   LHFCALC =     F    Hartree Fock is set to
   LHFONE  =     F    Hartree Fock one center treatment
   AEXX    =    0.0000 exact exchange contribution

 Linear response parameters
   LEPSILON=     F    determine dielectric tensor
   LRPA    =     F    only Hartree local field effects (RPA)
   LNABLA  =     F    use nabla operator in PAW spheres
   LVEL    =     F    velocity operator in full k-point grid
   LINTERFAST=   F  fast interpolation
   KINTER  =     0    interpolate to denser k-point grid
   CSHIFT  =0.1000    complex shift for real part using Kramers Kronig
   OMEGAMAX=  -1.0    maximum frequency
   DEG_THRESHOLD= 0.2000000E-02 threshold for treating states as degnerate
   RTIME   =   -0.100 relaxation time in fs
  (WPLASMAI=    0.000 imaginary part of plasma frequency in eV, 0.658/RTIME)
   DFIELD  = 0.0000000 0.0000000 0.0000000 field for delta impulse in time
 
 Orbital magnetization related:
   ORBITALMAG=     F  switch on orbital magnetization
   LCHIMAG   =     F  perturbation theory with respect to B field
   DQ        =  0.001000  dq finite difference perturbation B field
   LLRAUG    =     F  two centre corrections for induced B field



--------------------------------------------------------------------------------------------------------


 Static calculation
 charge density and potential will be updated during run
 non-spin polarized calculation
 Conjugate gradient for all bands (Freysoldt, et al. PRB 79, 241103 (2009))
 preconditioned conjugated gradient                                        
 perform sub-space diagonalisation
    before iterative eigenvector-optimisation
 modified Broyden-mixing scheme, WC =      100.0
 initial mixing is a Kerker type mixing with AMIX =  0.4000 and BMIX =      1.0000
 Hartree-type preconditioning will be used
 using additional bands           60
 reciprocal scheme for non local part
 use partial core corrections
 no Harris-corrections to forces 
 use gradient corrections 
 use of overlap-Matrix (Vanderbilt PP)
 Gauss-broadening in eV      SIGMA  =   0.01


--------------------------------------------------------------------------------------------------------


  energy-cutoff  :     1000.00
  volume of cell :     3288.85
      direct lattice vectors                 reciprocal lattice vectors
    12.325000000  0.000000000  0.000000000     0.081135903  0.046843835  0.000000000
    -6.162500000 10.673763102  0.000000000     0.000000000  0.093687670  0.000000000
     0.000000000  0.000000000 25.000000000     0.000000000  0.000000000  0.040000000

  length of vectors
    12.325000000 12.325000000 25.000000000     0.093687670  0.093687670  0.040000000


 
 k-points in units of 2pi/SCALE and weight: auto                                    
   0.00000000  0.00000000  0.00000000       1.000
 
 k-points in reciprocal lattice and weights: auto                                    
   0.00000000  0.00000000  0.00000000       1.000
 
 position of ions in fractional coordinates (direct lattice) 
   0.97245084  0.00032082  0.00056671
   0.03911838  0.13365950  0.00044017
   0.17244363  0.00029545  0.00049963
   0.23909628  0.13364792  0.00025647
   0.97245206  0.20032201  0.00048522
   0.03912836  0.33364377  0.00044415
   0.17245176  0.20035455  0.00021917
   0.23912436  0.33366572  0.00007226
   0.37246557  0.00032440  0.00045391
   0.43913747  0.13361994  0.00025834
   0.97244982  0.40030936  0.00054761
   0.03912498  0.53363679  0.00057341
   0.37241618  0.40032948  0.00000000
   0.43909960  0.53363898  0.00023241
   0.57244368  0.00031213  0.00055958
   0.63911021  0.13363175  0.00054727
   0.97245270  0.60030565  0.00064029
   0.03912449  0.73364036  0.00065451
   0.57243347  0.60030624  0.00040289
   0.63911189  0.73364188  0.00052791
   0.17245463  0.40031823  0.00028904
   0.23912018  0.53363655  0.00037851
   0.37245975  0.20029599  0.00008900
   0.43910710  0.33367342  0.00005576
   0.17245216  0.60031151  0.00052434
   0.23912337  0.73363857  0.00057513
   0.57243108  0.20028917  0.00041330
   0.63911277  0.33361863  0.00046238
   0.37243981  0.60030802  0.00036284
   0.43911609  0.73363786  0.00049419
   0.57246936  0.40032050  0.00033992
   0.63911941  0.53365087  0.00045961
   0.77244572  0.00031543  0.00059616
   0.83911628  0.13364020  0.00057531
   0.77244051  0.20030743  0.00058103
   0.83912024  0.33363573  0.00058547
   0.77244632  0.40029837  0.00058298
   0.83911898  0.53363396  0.00062110
   0.77245614  0.60030817  0.00059571
   0.83911503  0.73364318  0.00063151
   0.97245531  0.80030558  0.00065223
   0.03911471  0.93364329  0.00059805
   0.17245797  0.80031221  0.00062337
   0.23913455  0.93364719  0.00054485
   0.37245140  0.80031667  0.00055140
   0.43912449  0.93364477  0.00054143
   0.57244110  0.80031005  0.00053453
   0.63911507  0.93363899  0.00058764
   0.77244510  0.80031319  0.00060206
   0.83911661  0.93364434  0.00060683
   0.37302101  0.25122688  0.29966142
   0.42087980  0.18931315  0.30223829
   0.32515698  0.31316719  0.29728322
 
 position of ions in cartesian coordinates  (Angst):
  11.98347958  0.00342433  0.01416777
  -0.34154264  1.42664989  0.01100432
   2.12354700  0.00315355  0.01249070
   2.12325634  1.42652621  0.00641170
  10.75098721  2.13818970  0.01213047
  -1.57382270  3.56123457  0.01110375
   0.89078307  2.13853702  0.00547917
   0.89099273  3.56146885  0.00180651
   4.58863896  0.00346260  0.01134782
   4.58893648  1.42622757  0.00645846
   9.51853763  4.27280730  0.01369027
  -2.80632132  5.69591267  0.01433526
   2.12299894  4.27302204  0.00000000
   2.12335237  5.69593607  0.00581036
   7.05344483  0.00333155  0.01398950
   7.05352764  1.42635365  0.01368187
   8.28609598  6.40752033  0.01600723
  -4.03884931  7.83070339  0.01636283
   3.35585531  6.40752662  0.01007237
   3.35598594  7.83071962  0.01319763
  -0.34145776  4.27290193  0.00722612
  -0.34137895  5.69591010  0.00946273
   3.35624236  2.13791198  0.00222492
   3.35573251  3.56155103  0.00139405
  -1.57394684  6.40758280  0.01310850
  -1.57385216  7.83068434  0.01437823
   5.82093107  2.13783916  0.01033241
   5.82114012  3.56096622  0.01155939
   0.89092245  6.40754561  0.00907111
   0.89106251  7.83067670  0.01235474
   4.58870974  4.27292622  0.00849795
   4.58852320  5.69606300  0.01149026
   9.51844972  0.00336679  0.01490402
   9.51855036  1.42644387  0.01438264
   8.28593477  2.13803408  0.01452582
   8.28612680  3.56114872  0.01463668
   7.05356221  4.27268994  0.01457444
   7.05362213  5.69588251  0.01552751
   5.82112285  6.40754723  0.01489279
   5.82101669  7.83073350  0.01578780
   7.05362858  8.54227219  0.01630582
  -5.27148792  9.96548729  0.01495127
  -2.80637951  8.54234295  0.01558431
  -2.80626749  9.96552896  0.01362126
  -0.34148805  8.54239058  0.01378498
  -0.34137657  9.96550309  0.01353576
   2.12342586  8.54231992  0.01336337
   2.12354296  9.96544135  0.01469111
   4.58845581  8.54235337  0.01505154
   4.58852904  9.96549848  0.01517076
   3.04929830  2.68153618  7.49153538
   4.02070129  2.02068374  7.55595724
   2.07766701  3.34267235  7.43208051
 


--------------------------------------------------------------------------------------------------------


 k-point   1 :   0.0000 0.0000 0.0000  plane waves:  236157

 maximum and minimum number of plane-waves per node :    236157   236157

 maximum number of plane-waves:    236157
 maximum index in each direction: 
   IXMAX=   31   IYMAX=   31   IZMAX=   64
   IXMIN=  -31   IYMIN=  -31   IZMIN=  -64


 serial   3D FFT for wavefunctions
 parallel 3D FFT for charge:
    minimum data exchange during FFTs selected (reduces bandwidth)


 total amount of memory used by VASP MPI-rank0   551512. kBytes
=======================================================================

   base      :      30000. kBytes
   nonl-proj :     230539. kBytes
   fftplans  :      40716. kBytes
   grid      :     216018. kBytes
   one-center:        162. kBytes
   wavefun   :      34077. kBytes
 
     INWAV:  cpu time    0.0000: real time    0.0000
 Broyden mixing: mesh for mixing (old mesh)
   NGX = 63   NGY = 63   NGZ =129
  (NGX  =256   NGY  =256   NGZ  =540)
  gives a total of 512001 points

 initial charge density was supplied:
 charge density of overlapping atoms calculated
 number of electron     216.0000000 magnetization 
 keeping initial charge density in first step


--------------------------------------------------------------------------------------------------------


 Maximum index for augmentation-charges          471 (set IRDMAX)


--------------------------------------------------------------------------------------------------------


 First call to EWALD:  gamma=   0.119
 Maximum number of real-space cells 4x 4x 2
 Maximum number of reciprocal cells 2x 2x 4

    FEWALD:  cpu time    0.0024: real time    0.0024


--------------------------------------- Iteration      1(   1)  ---------------------------------------


    POTLOK:  cpu time    0.7834: real time    0.7895
    SETDIJ:  cpu time    0.0028: real time    0.0028
    TRIAL :  cpu time   15.4207: real time   15.5405
    CORREC:  cpu time    0.0004: real time    0.0006
    --------------------------------------------
      LOOP:  cpu time   16.2183: real time   16.3665

 eigenvalue-minimisations  :   336
 total energy-change (2. order) : 0.2587281E+04  (-0.1073323E+05)
 number of electron     216.0000000 magnetization 
 augmentation part      216.0000000 magnetization 

 Free energy of the ion-electron system (eV)
  ---------------------------------------------------
  alpha Z        PSCENC =        47.94900195
  Ewald energy   TEWEN  =     42045.44139955
  -Hartree energ DENC   =    -48114.65086350
  -exchange      EXHF   =         0.00000000
  -V(xc)+E(xc)   XCENC  =       420.79772515
  PAW double counting   =      6525.96553977    -6260.36035765
  entropy T*S    EENTRO =        -0.00000000
  eigenvalues    EBANDS =      -447.38551274
  atomic energy  EATOM  =      8369.52358910
  ---------------------------------------------------
  free energy    TOTEN  =      2587.28052163 eV

  energy without entropy =     2587.28052163  energy(sigma->0) =     2587.28052163


--------------------------------------------------------------------------------------------------------




--------------------------------------- Iteration      1(   2)  ---------------------------------------


    TRIAL :  cpu time   23.1730: real time   23.3506
    CORREC:  cpu time    0.0001: real time    0.0001
    --------------------------------------------
      LOOP:  cpu time   23.2085: real time   23.3887

 eigenvalue-minimisations  :   560
 total energy-change (2. order) :-0.2419964E+04  (-0.2259772E+04)
 number of electron     216.0000000 magnetization 
 augmentation part      216.0000000 magnetization 

 Free energy of the ion-electron system (eV)
  ---------------------------------------------------
  alpha Z        PSCENC =        47.94900195
  Ewald energy   TEWEN  =     42045.44139955
  -Hartree energ DENC   =    -48114.65086350
  -exchange      EXHF   =         0.00000000
  -V(xc)+E(xc)   XCENC  =       420.79772515
  PAW double counting   =      6525.96553977    -6260.36035765
  entropy T*S    EENTRO =        -0.00000000
  eigenvalues    EBANDS =     -2867.34913022
  atomic energy  EATOM  =      8369.52358910
  ---------------------------------------------------
  free energy    TOTEN  =       167.31690415 eV

  energy without entropy =      167.31690415  energy(sigma->0) =      167.31690415


--------------------------------------------------------------------------------------------------------




--------------------------------------- Iteration      1(   3)  ---------------------------------------


    TRIAL :  cpu time   19.2449: real time   19.4088
    CORREC:  cpu time    0.0001: real time    0.0001
    --------------------------------------------
      LOOP:  cpu time   19.3132: real time   19.5045

 eigenvalue-minimisations  :   448
 total energy-change (2. order) :-0.6605679E+03  (-0.6580890E+03)
 number of electron     216.0000000 magnetization 
 augmentation part      216.0000000 magnetization 

 Free energy of the ion-electron system (eV)
  ---------------------------------------------------
  alpha Z        PSCENC =        47.94900195
  Ewald energy   TEWEN  =     42045.44139955
  -Hartree energ DENC   =    -48114.65086350
  -exchange      EXHF   =         0.00000000
  -V(xc)+E(xc)   XCENC  =       420.79772515
  PAW double counting   =      6525.96553977    -6260.36035765
  entropy T*S    EENTRO =        -0.00000000
  eigenvalues    EBANDS =     -3527.91701267
  atomic energy  EATOM  =      8369.52358910
  ---------------------------------------------------
  free energy    TOTEN  =      -493.25097830 eV

  energy without entropy =     -493.25097830  energy(sigma->0) =     -493.25097830


--------------------------------------------------------------------------------------------------------




--------------------------------------- Iteration      1(   4)  ---------------------------------------


    TRIAL :  cpu time   19.2572: real time   19.4132
    CORREC:  cpu time    0.0001: real time    0.0001
    --------------------------------------------
      LOOP:  cpu time   19.2848: real time   19.4425

 eigenvalue-minimisations  :   448
 total energy-change (2. order) :-0.2396286E+02  (-0.2383849E+02)
 number of electron     216.0000000 magnetization 
 augmentation part      216.0000000 magnetization 

 Free energy of the ion-electron system (eV)
  ---------------------------------------------------
  alpha Z        PSCENC =        47.94900195
  Ewald energy   TEWEN  =     42045.44139955
  -Hartree energ DENC   =    -48114.65086350
  -exchange      EXHF   =         0.00000000
  -V(xc)+E(xc)   XCENC  =       420.79772515
  PAW double counting   =      6525.96553977    -6260.36035765
  entropy T*S    EENTRO =        -0.00000000
  eigenvalues    EBANDS =     -3551.87987734
  atomic energy  EATOM  =      8369.52358910
  ---------------------------------------------------
  free energy    TOTEN  =      -517.21384296 eV

  energy without entropy =     -517.21384296  energy(sigma->0) =     -517.21384296


--------------------------------------------------------------------------------------------------------




--------------------------------------- Iteration      1(   5)  ---------------------------------------


    TRIAL :  cpu time   17.2985: real time   17.4436
    CORREC:  cpu time    0.0001: real time    0.0001
    CHARGE:  cpu time    0.8155: real time    0.8219
    --------------------------------------------
      LOOP:  cpu time   18.1942: real time   18.3474

 eigenvalue-minimisations  :   392
 total energy-change (2. order) :-0.8069543E+00  (-0.8057938E+00)
 number of electron     216.0000000 magnetization 
 augmentation part       -0.2746322 magnetization 

 Free energy of the ion-electron system (eV)
  ---------------------------------------------------
  alpha Z        PSCENC =        47.94900195
  Ewald energy   TEWEN  =     42045.44139955
  -Hartree energ DENC   =    -48114.65086350
  -exchange      EXHF   =         0.00000000
  -V(xc)+E(xc)   XCENC  =       420.79772515
  PAW double counting   =      6525.96553977    -6260.36035765
  entropy T*S    EENTRO =        -0.00000000
  eigenvalues    EBANDS =     -3552.68683169
  atomic energy  EATOM  =      8369.52358910
  ---------------------------------------------------
  free energy    TOTEN  =      -518.02079731 eV

  energy without entropy =     -518.02079731  energy(sigma->0) =     -518.02079731


--------------------------------------------------------------------------------------------------------




--------------------------------------- Iteration      1(   6)  ---------------------------------------


    POTLOK:  cpu time    0.7425: real time    0.7475
    SETDIJ:  cpu time    0.0020: real time    0.0020
    TRIAL :  cpu time    6.9289: real time    6.9847
    CORREC:  cpu time    2.2609: real time    2.2813
    CHARGE:  cpu time    0.8072: real time    0.8138
    --------------------------------------------
      LOOP:  cpu time   10.7614: real time   10.8674

 eigenvalue-minimisations  :     0
 total energy-change (2. order) : 0.5127928E+02  (-0.1527487E+02)
 number of electron     216.0000000 magnetization 
 augmentation part       -0.3758029 magnetization 

 Free energy of the ion-electron system (eV)
  ---------------------------------------------------
  alpha Z        PSCENC =        47.94900195
  Ewald energy   TEWEN  =     42045.44139955
  -Hartree energ DENC   =    -49553.29059164
  -exchange      EXHF   =         0.00000000
  -V(xc)+E(xc)   XCENC  =       469.00047529
  PAW double counting   =     90221.70287817   -89964.36881336
  entropy T*S    EENTRO =        -0.00000000
  eigenvalues    EBANDS =     -2102.69945351
  atomic energy  EATOM  =      8369.52358910
  ---------------------------------------------------
  free energy    TOTEN  =      -466.74151446 eV

  energy without entropy =     -466.74151446  energy(sigma->0) =     -466.74151446


--------------------------------------------------------------------------------------------------------




--------------------------------------- Iteration      1(   7)  ---------------------------------------


    POTLOK:  cpu time    0.7415: real time    0.7468
    SETDIJ:  cpu time    0.0019: real time    0.0019
    TRIAL :  cpu time    6.9179: real time    6.9794
    CORREC:  cpu time    2.2736: real time    2.2914
    CHARGE:  cpu time    0.8089: real time    0.8146
    --------------------------------------------
      LOOP:  cpu time   10.7646: real time   10.8598

 eigenvalue-minimisations  :     0
 total energy-change (2. order) :-0.1530615E+02  (-0.1841275E+01)
 number of electron     216.0000000 magnetization 
 augmentation part       -0.4221227 magnetization 

 Free energy of the ion-electron system (eV)
  ---------------------------------------------------
  alpha Z        PSCENC =        47.94900195
  Ewald energy   TEWEN  =     42045.44139955
  -Hartree energ DENC   =    -49059.68067598
  -exchange      EXHF   =         0.00000000
  -V(xc)+E(xc)   XCENC  =       452.45555531
  PAW double counting   =    106250.26439294  -105990.12866316
  entropy T*S    EENTRO =        -0.00000000
  eigenvalues    EBANDS =     -2597.87226479
  atomic energy  EATOM  =      8369.52358910
  ---------------------------------------------------
  free energy    TOTEN  =      -482.04766509 eV

  energy without entropy =     -482.04766509  energy(sigma->0) =     -482.04766509


--------------------------------------------------------------------------------------------------------




--------------------------------------- Iteration      1(   8)  ---------------------------------------


    POTLOK:  cpu time    0.7432: real time    0.7480
    SETDIJ:  cpu time    0.0019: real time    0.0019
    TRIAL :  cpu time    6.9178: real time    6.9767
    CORREC:  cpu time    2.2609: real time    2.2790
    CHARGE:  cpu time    0.8074: real time    0.8130
    --------------------------------------------
      LOOP:  cpu time   10.7672: real time   10.8690

 eigenvalue-minimisations  :     0
 total energy-change (2. order) :-0.1841032E+01  (-0.5399573E+00)
 number of electron     216.0000000 magnetization 
 augmentation part       -0.4357339 magnetization 

 Free energy of the ion-electron system (eV)
  ---------------------------------------------------
  alpha Z        PSCENC =        47.94900195
  Ewald energy   TEWEN  =     42045.44139955
  -Hartree energ DENC   =    -49030.22744293
  -exchange      EXHF   =         0.00000000
  -V(xc)+E(xc)   XCENC  =       451.74792728
  PAW double counting   =    110642.84272370  -110382.27701313
  entropy T*S    EENTRO =        -0.00000000
  eigenvalues    EBANDS =     -2628.88888241
  atomic energy  EATOM  =      8369.52358910
  ---------------------------------------------------
  free energy    TOTEN  =      -483.88869689 eV

  energy without entropy =     -483.88869689  energy(sigma->0) =     -483.88869689


--------------------------------------------------------------------------------------------------------




--------------------------------------- Iteration      1(   9)  ---------------------------------------


    POTLOK:  cpu time    0.7422: real time    0.7469
    SETDIJ:  cpu time    0.0020: real time    0.0020
    TRIAL :  cpu time    6.9097: real time    6.9701
    CORREC:  cpu time    2.2603: real time    2.2779
    CHARGE:  cpu time    0.8068: real time    0.8126
    --------------------------------------------
      LOOP:  cpu time   10.8026: real time   10.8953

 eigenvalue-minimisations  :     0
 total energy-change (2. order) :-0.5398304E+00  (-0.2052648E+00)
 number of electron     216.0000000 magnetization 
 augmentation part       -0.4409939 magnetization 

 Free energy of the ion-electron system (eV)
  ---------------------------------------------------
  alpha Z        PSCENC =        47.94900195
  Ewald energy   TEWEN  =     42045.44139955
  -Hartree energ DENC   =    -49042.27134232
  -exchange      EXHF   =         0.00000000
  -V(xc)+E(xc)   XCENC  =       451.78658138
  PAW double counting   =    113539.06397632  -113278.33389986
  entropy T*S    EENTRO =        -0.00000000
  eigenvalues    EBANDS =     -2617.58783343
  atomic energy  EATOM  =      8369.52358910
  ---------------------------------------------------
  free energy    TOTEN  =      -484.42852732 eV

  energy without entropy =     -484.42852732  energy(sigma->0) =     -484.42852732


--------------------------------------------------------------------------------------------------------




--------------------------------------- Iteration      1(  10)  ---------------------------------------


    POTLOK:  cpu time    0.7416: real time    0.7464
    SETDIJ:  cpu time    0.0018: real time    0.0018
    TRIAL :  cpu time    6.9508: real time    7.0152
    CORREC:  cpu time    2.2720: real time    2.2893
    CHARGE:  cpu time    0.8100: real time    0.8155
    --------------------------------------------
      LOOP:  cpu time   10.8325: real time   10.9262

 eigenvalue-minimisations  :     0
 total energy-change (2. order) :-0.2046684E+00  (-0.8956238E-01)
 number of electron     216.0000000 magnetization 
 augmentation part       -0.4396146 magnetization 

 Free energy of the ion-electron system (eV)
  ---------------------------------------------------
  alpha Z        PSCENC =        47.94900195
  Ewald energy   TEWEN  =     42045.44139955
  -Hartree energ DENC   =    -49040.28202666
  -exchange      EXHF   =         0.00000000
  -V(xc)+E(xc)   XCENC  =       451.61971245
  PAW double counting   =    113869.96161806  -113609.14267989
  entropy T*S    EENTRO =        -0.00000000
  eigenvalues    EBANDS =     -2619.70381033
  atomic energy  EATOM  =      8369.52358910
  ---------------------------------------------------
  free energy    TOTEN  =      -484.63319577 eV

  energy without entropy =     -484.63319577  energy(sigma->0) =     -484.63319577


--------------------------------------------------------------------------------------------------------




--------------------------------------- Iteration      1(  11)  ---------------------------------------


    POTLOK:  cpu time    0.7412: real time    0.7462
    SETDIJ:  cpu time    0.0019: real time    0.0019
    TRIAL :  cpu time    6.9009: real time    6.9750
    CORREC:  cpu time    2.2682: real time    2.2868
    CHARGE:  cpu time    0.8075: real time    0.8132
    --------------------------------------------
      LOOP:  cpu time   10.7631: real time   10.8685

 eigenvalue-minimisations  :     0
 total energy-change (2. order) :-0.8909832E-01  (-0.3324443E-01)
 number of electron     216.0000000 magnetization 
 augmentation part       -0.4377276 magnetization 

 Free energy of the ion-electron system (eV)
  ---------------------------------------------------
  alpha Z        PSCENC =        47.94900195
  Ewald energy   TEWEN  =     42045.44139955
  -Hartree energ DENC   =    -49032.50559725
  -exchange      EXHF   =         0.00000000
  -V(xc)+E(xc)   XCENC  =       451.48163984
  PAW double counting   =    113087.86913565  -112827.06105494
  entropy T*S    EENTRO =        -0.00000000
  eigenvalues    EBANDS =     -2627.42040800
  atomic energy  EATOM  =      8369.52358910
  ---------------------------------------------------
  free energy    TOTEN  =      -484.72229409 eV

  energy without entropy =     -484.72229409  energy(sigma->0) =     -484.72229409


--------------------------------------------------------------------------------------------------------




--------------------------------------- Iteration      1(  12)  ---------------------------------------


    POTLOK:  cpu time    0.7399: real time    0.7447
    SETDIJ:  cpu time    0.0018: real time    0.0018
    TRIAL :  cpu time    6.9261: real time    6.9796
    CORREC:  cpu time    2.2566: real time    2.2734
    CHARGE:  cpu time    0.8355: real time    0.8427
    --------------------------------------------
      LOOP:  cpu time   10.7796: real time   10.8624

 eigenvalue-minimisations  :     0
 total energy-change (2. order) :-0.3315826E-01  (-0.1030300E-01)
 number of electron     216.0000000 magnetization 
 augmentation part       -0.4374144 magnetization 

 Free energy of the ion-electron system (eV)
  ---------------------------------------------------
  alpha Z        PSCENC =        47.94900195
  Ewald energy   TEWEN  =     42045.44139955
  -Hartree energ DENC   =    -49028.50309034
  -exchange      EXHF   =         0.00000000
  -V(xc)+E(xc)   XCENC  =       451.40600471
  PAW double counting   =    112584.03424986  -112323.25676612
  entropy T*S    EENTRO =        -0.00000000
  eigenvalues    EBANDS =     -2631.34984106
  atomic energy  EATOM  =      8369.52358910
  ---------------------------------------------------
  free energy    TOTEN  =      -484.75545235 eV

  energy without entropy =     -484.75545235  energy(sigma->0) =     -484.75545235


--------------------------------------------------------------------------------------------------------




--------------------------------------- Iteration      1(  13)  ---------------------------------------


    POTLOK:  cpu time    0.7358: real time    0.7406
    SETDIJ:  cpu time    0.0022: real time    0.0022
    TRIAL :  cpu time    6.9138: real time    6.9695
    CORREC:  cpu time    2.2535: real time    2.2723
    CHARGE:  cpu time    0.8061: real time    0.8123
    --------------------------------------------
      LOOP:  cpu time   10.7402: real time   10.8595

 eigenvalue-minimisations  :     0
 total energy-change (2. order) :-0.1029270E-01  (-0.2714601E-02)
 number of electron     216.0000000 magnetization 
 augmentation part       -0.4371864 magnetization 

 Free energy of the ion-electron system (eV)
  ---------------------------------------------------
  alpha Z        PSCENC =        47.94900195
  Ewald energy   TEWEN  =     42045.44139955
  -Hartree energ DENC   =    -49027.69333894
  -exchange      EXHF   =         0.00000000
  -V(xc)+E(xc)   XCENC  =       451.37957487
  PAW double counting   =    112428.97493826  -112168.20908967
  entropy T*S    EENTRO =        -0.00000000
  eigenvalues    EBANDS =     -2632.13182017
  atomic energy  EATOM  =      8369.52358910
  ---------------------------------------------------
  free energy    TOTEN  =      -484.76574505 eV

  energy without entropy =     -484.76574505  energy(sigma->0) =     -484.76574505


--------------------------------------------------------------------------------------------------------




--------------------------------------- Iteration      1(  14)  ---------------------------------------


    POTLOK:  cpu time    0.7345: real time    0.7395
    SETDIJ:  cpu time    0.0018: real time    0.0018
    TRIAL :  cpu time    6.9200: real time    6.9745
    CORREC:  cpu time    2.2490: real time    2.2660
    CHARGE:  cpu time    0.8081: real time    0.8138
    --------------------------------------------
      LOOP:  cpu time   10.7439: real time   10.8524

 eigenvalue-minimisations  :     0
 total energy-change (2. order) :-0.2714353E-02  (-0.7249513E-03)
 number of electron     216.0000000 magnetization 
 augmentation part       -0.4369670 magnetization 

 Free energy of the ion-electron system (eV)
  ---------------------------------------------------
  alpha Z        PSCENC =        47.94900195
  Ewald energy   TEWEN  =     42045.44139955
  -Hartree energ DENC   =    -49027.51951178
  -exchange      EXHF   =         0.00000000
  -V(xc)+E(xc)   XCENC  =       451.37373983
  PAW double counting   =    112452.85101626  -112192.08747253
  entropy T*S    EENTRO =        -0.00000000
  eigenvalues    EBANDS =     -2632.30022179
  atomic energy  EATOM  =      8369.52358910
  ---------------------------------------------------
  free energy    TOTEN  =      -484.76845941 eV

  energy without entropy =     -484.76845941  energy(sigma->0) =     -484.76845941


--------------------------------------------------------------------------------------------------------




--------------------------------------- Iteration      1(  15)  ---------------------------------------


    POTLOK:  cpu time    0.7317: real time    0.7365
    SETDIJ:  cpu time    0.0019: real time    0.0020
    TRIAL :  cpu time    6.9254: real time    6.9795
    CORREC:  cpu time    2.2530: real time    2.2698
    CHARGE:  cpu time    0.8071: real time    0.8128
    --------------------------------------------
      LOOP:  cpu time   10.7894: real time   10.8753

 eigenvalue-minimisations  :     0
 total energy-change (2. order) :-0.7258812E-03  (-0.2175746E-03)
 number of electron     216.0000000 magnetization 
 augmentation part       -0.4367864 magnetization 

 Free energy of the ion-electron system (eV)
  ---------------------------------------------------
  alpha Z        PSCENC =        47.94900195
  Ewald energy   TEWEN  =     42045.44139955
  -Hartree energ DENC   =    -49027.29759320
  -exchange      EXHF   =         0.00000000
  -V(xc)+E(xc)   XCENC  =       451.36715469
  PAW double counting   =    112485.67752971  -112224.91340632
  entropy T*S    EENTRO =        -0.00000000
  eigenvalues    EBANDS =     -2632.51686077
  atomic energy  EATOM  =      8369.52358910
  ---------------------------------------------------
  free energy    TOTEN  =      -484.76918529 eV

  energy without entropy =     -484.76918529  energy(sigma->0) =     -484.76918529


--------------------------------------------------------------------------------------------------------




--------------------------------------- Iteration      1(  16)  ---------------------------------------


    POTLOK:  cpu time    0.7272: real time    0.7321
    SETDIJ:  cpu time    0.0019: real time    0.0019
    TRIAL :  cpu time    6.9179: real time    6.9728
    CORREC:  cpu time    2.2450: real time    2.2624
    CHARGE:  cpu time    0.8056: real time    0.8121
    --------------------------------------------
      LOOP:  cpu time   10.7270: real time   10.8758

 eigenvalue-minimisations  :     0
 total energy-change (2. order) :-0.2184301E-03  (-0.7631374E-04)
 number of electron     216.0000000 magnetization 
 augmentation part       -0.4366460 magnetization 

 Free energy of the ion-electron system (eV)
  ---------------------------------------------------
  alpha Z        PSCENC =        47.94900195
  Ewald energy   TEWEN  =     42045.44139955
  -Hartree energ DENC   =    -49027.37129450
  -exchange      EXHF   =         0.00000000
  -V(xc)+E(xc)   XCENC  =       451.36856952
  PAW double counting   =    112475.81883248  -112215.05462428
  entropy T*S    EENTRO =        -0.00000000
  eigenvalues    EBANDS =     -2632.44487754
  atomic energy  EATOM  =      8369.52358910
  ---------------------------------------------------
  free energy    TOTEN  =      -484.76940372 eV

  energy without entropy =     -484.76940372  energy(sigma->0) =     -484.76940372


--------------------------------------------------------------------------------------------------------




--------------------------------------- Iteration      1(  17)  ---------------------------------------


    POTLOK:  cpu time    0.7268: real time    0.7316
    SETDIJ:  cpu time    0.0019: real time    0.0020
    TRIAL :  cpu time    6.9133: real time    6.9699
    CORREC:  cpu time    2.2511: real time    2.2692
    CHARGE:  cpu time    0.8067: real time    0.8123
    --------------------------------------------
      LOOP:  cpu time   10.7831: real time   10.8716

 eigenvalue-minimisations  :     0
 total energy-change (2. order) :-0.7683411E-04  (-0.2992429E-04)
 number of electron     216.0000000 magnetization 
 augmentation part       -0.4366280 magnetization 

 Free energy of the ion-electron system (eV)
  ---------------------------------------------------
  alpha Z        PSCENC =        47.94900195
  Ewald energy   TEWEN  =     42045.44139955
  -Hartree energ DENC   =    -49027.55760920
  -exchange      EXHF   =         0.00000000
  -V(xc)+E(xc)   XCENC  =       451.37435662
  PAW double counting   =    112457.20761332  -112196.44386394
  entropy T*S    EENTRO =        -0.00000000
  eigenvalues    EBANDS =     -2632.26396796
  atomic energy  EATOM  =      8369.52358910
  ---------------------------------------------------
  free energy    TOTEN  =      -484.76948055 eV

  energy without entropy =     -484.76948055  energy(sigma->0) =     -484.76948055


--------------------------------------------------------------------------------------------------------




--------------------------------------- Iteration      1(  18)  ---------------------------------------


    POTLOK:  cpu time    0.7290: real time    0.7337
    SETDIJ:  cpu time    0.0020: real time    0.0020
    TRIAL :  cpu time    6.9164: real time    6.9760
    CORREC:  cpu time    2.2558: real time    2.2732
    CHARGE:  cpu time    0.8059: real time    0.8115
    --------------------------------------------
      LOOP:  cpu time   10.7500: real time   10.8675

 eigenvalue-minimisations  :     0
 total energy-change (2. order) :-0.3025148E-04  (-0.1248042E-04)
 number of electron     216.0000000 magnetization 
 augmentation part       -0.4366533 magnetization 

 Free energy of the ion-electron system (eV)
  ---------------------------------------------------
  alpha Z        PSCENC =        47.94900195
  Ewald energy   TEWEN  =     42045.44139955
  -Hartree energ DENC   =    -49027.58534406
  -exchange      EXHF   =         0.00000000
  -V(xc)+E(xc)   XCENC  =       451.37449657
  PAW double counting   =    112453.64279974  -112192.87862606
  entropy T*S    EENTRO =        -0.00000000
  eigenvalues    EBANDS =     -2632.23682759
  atomic energy  EATOM  =      8369.52358910
  ---------------------------------------------------
  free energy    TOTEN  =      -484.76951080 eV

  energy without entropy =     -484.76951080  energy(sigma->0) =     -484.76951080


--------------------------------------------------------------------------------------------------------




--------------------------------------- Iteration      1(  19)  ---------------------------------------


    POTLOK:  cpu time    0.7322: real time    0.7372
    SETDIJ:  cpu time    0.0018: real time    0.0018
    TRIAL :  cpu time    6.9193: real time    6.9749
    CORREC:  cpu time    2.2450: real time    2.2640
    CHARGE:  cpu time    0.8073: real time    0.8130
    --------------------------------------------
      LOOP:  cpu time   10.7262: real time   10.8396

 eigenvalue-minimisations  :     0
 total energy-change (2. order) :-0.1235878E-04  (-0.5227739E-05)
 number of electron     216.0000000 magnetization 
 augmentation part       -0.4366957 magnetization 

 Free energy of the ion-electron system (eV)
  ---------------------------------------------------
  alpha Z        PSCENC =        47.94900195
  Ewald energy   TEWEN  =     42045.44139955
  -Hartree energ DENC   =    -49027.61708673
  -exchange      EXHF   =         0.00000000
  -V(xc)+E(xc)   XCENC  =       451.37548473
  PAW double counting   =    112460.11915537  -112199.35478061
  entropy T*S    EENTRO =        -0.00000000
  eigenvalues    EBANDS =     -2632.20628652
  atomic energy  EATOM  =      8369.52358910
  ---------------------------------------------------
  free energy    TOTEN  =      -484.76952316 eV

  energy without entropy =     -484.76952316  energy(sigma->0) =     -484.76952316


--------------------------------------------------------------------------------------------------------




--------------------------------------- Iteration      1(  20)  ---------------------------------------


    POTLOK:  cpu time    0.7241: real time    0.7290
    SETDIJ:  cpu time    0.0018: real time    0.0018
    TRIAL :  cpu time    6.9087: real time    6.9759
    CORREC:  cpu time    2.2515: real time    2.2683
    CHARGE:  cpu time    0.8083: real time    0.8141
    --------------------------------------------
      LOOP:  cpu time   10.8174: real time   10.9176

 eigenvalue-minimisations  :     0
 total energy-change (2. order) :-0.4883070E-05  (-0.2110363E-05)
 number of electron     216.0000000 magnetization 
 augmentation part       -0.4367120 magnetization 

 Free energy of the ion-electron system (eV)
  ---------------------------------------------------
  alpha Z        PSCENC =        47.94900195
  Ewald energy   TEWEN  =     42045.44139955
  -Hartree energ DENC   =    -49027.64601666
  -exchange      EXHF   =         0.00000000
  -V(xc)+E(xc)   XCENC  =       451.37610777
  PAW double counting   =    112466.69182618  -112205.92733076
  entropy T*S    EENTRO =        -0.00000000
  eigenvalues    EBANDS =     -2632.17810518
  atomic energy  EATOM  =      8369.52358910
  ---------------------------------------------------
  free energy    TOTEN  =      -484.76952805 eV

  energy without entropy =     -484.76952805  energy(sigma->0) =     -484.76952805


--------------------------------------------------------------------------------------------------------




--------------------------------------- Iteration      1(  21)  ---------------------------------------


    POTLOK:  cpu time    0.7269: real time    0.7317
    SETDIJ:  cpu time    0.0018: real time    0.0019
    TRIAL :  cpu time    6.9243: real time    6.9806
    CORREC:  cpu time    2.2489: real time    2.2663
    CHARGE:  cpu time    0.8061: real time    0.8119
    --------------------------------------------
      LOOP:  cpu time   10.7246: real time   10.8523

 eigenvalue-minimisations  :     0
 total energy-change (2. order) :-0.1897584E-05  (-0.8864740E-06)
 number of electron     216.0000000 magnetization 
 augmentation part       -0.4367061 magnetization 

 Free energy of the ion-electron system (eV)
  ---------------------------------------------------
  alpha Z        PSCENC =        47.94900195
  Ewald energy   TEWEN  =     42045.44139955
  -Hartree energ DENC   =    -49027.64047781
  -exchange      EXHF   =         0.00000000
  -V(xc)+E(xc)   XCENC  =       451.37583298
  PAW double counting   =    112468.32241348  -112207.55790384
  entropy T*S    EENTRO =        -0.00000000
  eigenvalues    EBANDS =     -2632.18338535
  atomic energy  EATOM  =      8369.52358910
  ---------------------------------------------------
  free energy    TOTEN  =      -484.76952994 eV

  energy without entropy =     -484.76952994  energy(sigma->0) =     -484.76952994


--------------------------------------------------------------------------------------------------------




--------------------------------------- Iteration      1(  22)  ---------------------------------------


    POTLOK:  cpu time    0.7303: real time    0.7353
    SETDIJ:  cpu time    0.0019: real time    0.0019
    TRIAL :  cpu time    6.9201: real time    6.9740
    CORREC:  cpu time    2.2470: real time    2.2634
    CHARGE:  cpu time    0.8060: real time    0.8117
    --------------------------------------------
      LOOP:  cpu time   10.7569: real time   10.8424

 eigenvalue-minimisations  :     0
 total energy-change (2. order) :-0.7772323E-06  (-0.3898207E-06)
 number of electron     216.0000000 magnetization 
 augmentation part       -0.4367026 magnetization 

 Free energy of the ion-electron system (eV)
  ---------------------------------------------------
  alpha Z        PSCENC =        47.94900195
  Ewald energy   TEWEN  =     42045.44139955
  -Hartree energ DENC   =    -49027.63275997
  -exchange      EXHF   =         0.00000000
  -V(xc)+E(xc)   XCENC  =       451.37562695
  PAW double counting   =    112466.36158491  -112205.59716044
  entropy T*S    EENTRO =        -0.00000000
  eigenvalues    EBANDS =     -2632.19081277
  atomic energy  EATOM  =      8369.52358910
  ---------------------------------------------------
  free energy    TOTEN  =      -484.76953072 eV

  energy without entropy =     -484.76953072  energy(sigma->0) =     -484.76953072


--------------------------------------------------------------------------------------------------------




--------------------------------------- Iteration      1(  23)  ---------------------------------------


    POTLOK:  cpu time    0.7288: real time    0.7336
    SETDIJ:  cpu time    0.0035: real time    0.0036
    TRIAL :  cpu time    6.9187: real time    6.9720
    CORREC:  cpu time    2.2500: real time    2.2698
    CHARGE:  cpu time    0.8082: real time    0.8146
    --------------------------------------------
      LOOP:  cpu time   10.8217: real time   10.9142

 eigenvalue-minimisations  :     0
 total energy-change (2. order) :-0.3011810E-06  (-0.1629536E-06)
 number of electron     216.0000000 magnetization 
 augmentation part       -0.4367024 magnetization 

 Free energy of the ion-electron system (eV)
  ---------------------------------------------------
  alpha Z        PSCENC =        47.94900195
  Ewald energy   TEWEN  =     42045.44139955
  -Hartree energ DENC   =    -49027.62571415
  -exchange      EXHF   =         0.00000000
  -V(xc)+E(xc)   XCENC  =       451.37546562
  PAW double counting   =    112464.45715095  -112203.69276972
  entropy T*S    EENTRO =        -0.00000000
  eigenvalues    EBANDS =     -2632.19765431
  atomic energy  EATOM  =      8369.52358910
  ---------------------------------------------------
  free energy    TOTEN  =      -484.76953102 eV

  energy without entropy =     -484.76953102  energy(sigma->0) =     -484.76953102


--------------------------------------------------------------------------------------------------------




--------------------------------------- Iteration      1(  24)  ---------------------------------------


    POTLOK:  cpu time    0.7406: real time    0.7456
    SETDIJ:  cpu time    0.0019: real time    0.0019
    TRIAL :  cpu time    6.9194: real time    6.9736
    CORREC:  cpu time    2.2478: real time    2.2651
    EDDIAG:  cpu time    1.1089: real time    1.1179
    CHARGE:  cpu time    0.8094: real time    0.8150
    --------------------------------------------
      LOOP:  cpu time   11.8654: real time   11.9977

 eigenvalue-minimisations  :     0
 total energy-change (2. order) :-0.8085044E-07  (-0.7583527E-07)
 number of electron     216.0000000 magnetization 
 augmentation part       -0.4367045 magnetization 

 Free energy of the ion-electron system (eV)
  ---------------------------------------------------
  alpha Z        PSCENC =        47.94900195
  Ewald energy   TEWEN  =     42045.44139955
  -Hartree energ DENC   =    -49027.62040154
  -exchange      EXHF   =         0.00000000
  -V(xc)+E(xc)   XCENC  =       451.37541024
  PAW double counting   =    112463.73069524  -112202.96632325
  entropy T*S    EENTRO =        -0.00000000
  eigenvalues    EBANDS =     -2632.20290239
  atomic energy  EATOM  =      8369.52358910
  ---------------------------------------------------
  free energy    TOTEN  =      -484.76953110 eV

  energy without entropy =     -484.76953110  energy(sigma->0) =     -484.76953110


--------------------------------------------------------------------------------------------------------


  average scaling for gradient   0.9451


 average (electrostatic) potential at core
  the test charge radii are     0.5770  0.5955
  (the norm of the test charge is              1.0000)
       1 -85.6356       2 -85.6351       3 -85.6357       4 -85.6364       5 -85.6344
       6 -85.6343       7 -85.6356       8 -85.6344       9 -85.6348      10 -85.6351
      11 -85.6343      12 -85.6343      13 -85.6350      14 -85.6347      15 -85.6342
      16 -85.6344      17 -85.6348      18 -85.6352      19 -85.6355      20 -85.6349
      21 -85.6341      22 -85.6341      23 -85.6368      24 -85.6367      25 -85.6341
      26 -85.6343      27 -85.6348      28 -85.6358      29 -85.6341      30 -85.6342
      31 -85.6360      32 -85.6354      33 -85.6345      34 -85.6344      35 -85.6344
      36 -85.6345      37 -85.6351      38 -85.6353      39 -85.6352      40 -85.6352
      41 -85.6352      42 -85.6353      43 -85.6349      44 -85.6355      45 -85.6342
      46 -85.6343      47 -85.6343      48 -85.6343      49 -85.6353      50 -85.6350
      51 -89.5731      52-120.3522      53-120.3516
 
 
 
 E-fermi :  -4.2518     XC(G=0):  -1.9455     alpha+bet : -1.6890

 Fermi energy:        -4.2518414720

 k-point     1 :       0.0000    0.0000    0.0000
  band No.  band energies     occupation 
      1     -27.6741      2.00000
      2     -26.6688      2.00000
      3     -22.3848      2.00000
      4     -21.4455      2.00000
      5     -21.4442      2.00000
      6     -21.4439      2.00000
      7     -21.4438      2.00000
      8     -21.4436      2.00000
      9     -21.4432      2.00000
     10     -19.6005      2.00000
     11     -19.6004      2.00000
     12     -19.6001      2.00000
     13     -19.5995      2.00000
     14     -19.5990      2.00000
     15     -19.5988      2.00000
     16     -18.7025      2.00000
     17     -18.7023      2.00000
     18     -18.7019      2.00000
     19     -18.7017      2.00000
     20     -18.7010      2.00000
     21     -18.7007      2.00000
     22     -16.5345      2.00000
     23     -16.5342      2.00000
     24     -16.5335      2.00000
     25     -16.5333      2.00000
     26     -16.5328      2.00000
     27     -16.5327      2.00000
     28     -15.5487      2.00000
     29     -15.5487      2.00000
     30     -15.5477      2.00000
     31     -15.5475      2.00000
     32     -15.5471      2.00000
     33     -15.5470      2.00000
     34     -14.1951      2.00000
     35     -14.1949      2.00000
     36     -14.1943      2.00000
     37     -14.1942      2.00000
     38     -14.1941      2.00000
     39     -14.1939      2.00000
     40     -12.4774      2.00000
     41     -11.8061      2.00000
     42     -11.8058      2.00000
     43     -11.8054      2.00000
     44     -11.8053      2.00000
     45     -11.8042      2.00000
     46     -11.8040      2.00000
     47     -11.7091      2.00000
     48     -11.7090      2.00000
     49     -11.7084      2.00000
     50     -11.7083      2.00000
     51     -11.7082      2.00000
     52     -11.7080      2.00000
     53     -11.2879      2.00000
     54     -11.2233      2.00000
     55     -11.2232      2.00000
     56     -10.4767      2.00000
     57     -10.3321      2.00000
     58     -10.3319      2.00000
     59     -10.3304      2.00000
     60     -10.3300      2.00000
     61     -10.3298      2.00000
     62     -10.3297      2.00000
     63      -9.3608      2.00000
     64      -9.3599      2.00000
     65      -9.3598      2.00000
     66      -9.3592      2.00000
     67      -9.3591      2.00000
     68      -9.3590      2.00000
     69      -9.0522      2.00000
     70      -9.0513      2.00000
     71      -9.0508      2.00000
     72      -9.0508      2.00000
     73      -9.0505      2.00000
     74      -9.0502      2.00000
     75      -9.0035      2.00000
     76      -9.0032      2.00000
     77      -9.0025      2.00000
     78      -9.0024      2.00000
     79      -9.0023      2.00000
     80      -9.0014      2.00000
     81      -7.6766      2.00000
     82      -7.6765      2.00000
     83      -7.3960      2.00000
     84      -7.3943      2.00000
     85      -7.3941      2.00000
     86      -7.3938      2.00000
     87      -7.3929      2.00000
     88      -7.3928      2.00000
     89      -7.2310      2.00000
     90      -7.2307      2.00000
     91      -7.2305      2.00000
     92      -7.2301      2.00000
     93      -7.2298      2.00000
     94      -7.2296      2.00000
     95      -6.3344      2.00000
     96      -6.3343      2.00000
     97      -6.3339      2.00000
     98      -6.3338      2.00000
     99      -6.3332      2.00000
    100      -6.3330      2.00000
    101      -5.9064      2.00000
    102      -5.9043      2.00000
    103      -4.3514      2.00000
    104      -4.3510      2.00000
    105      -4.3505      2.00000
    106      -4.3505      2.00000
    107      -4.3499      2.00000
    108      -4.3498      2.00000
    109      -1.5485      0.00000
    110      -1.5482      0.00000
    111      -1.5479      0.00000
    112      -1.5477      0.00000
    113      -1.5471      0.00000
    114      -1.5468      0.00000
    115       0.2584      0.00000
    116       0.3157      0.00000
    117       0.3160      0.00000
    118       0.3165      0.00000
    119       0.3165      0.00000
    120       0.3167      0.00000
    121       0.3181      0.00000
    122       0.4973      0.00000
    123       0.8042      0.00000
    124       0.8051      0.00000
    125       1.2141      0.00000
    126       1.5563      0.00000
    127       1.6476      0.00000
    128       1.6534      0.00000
    129       1.6765      0.00000
    130       1.6800      0.00000
    131       1.6835      0.00000
    132       1.6904      0.00000
    133       2.0128      0.00000
    134       2.0565      0.00000
    135       2.0567      0.00000
    136       2.0570      0.00000
    137       2.0575      0.00000
    138       2.0583      0.00000
    139       2.0601      0.00000
    140       2.2067      0.00000
[...]
     30     C        0.00011237
     31     C       -0.00012958
     32     C       -0.00008858
     33     C        0.00006802
     34     C        0.00008772
     35     C        0.00009294
     36     C        0.00006575
     37     C        0.00000804
     38     C        0.00000350
     39     C       -0.00004448
     40     C       -0.00001901
     41     C       -0.00002577
     42     C       -0.00006942
     43     C        0.00003666
     44     C       -0.00001500
     45     C        0.00011210
     46     C        0.00009234
     47     C        0.00007648
     48     C        0.00010187
     49     C        0.00001364
     50     C        0.00002430
     51     C        0.29455560
     52     O       -0.14764451
     53     O       -0.14768505

  Atomic reference data used in the T-S method for vdW correction:
            C6at              R0at           ALPHAat      REFSTATE
            (au)              (au)            (au)                
   ---------------------------------------------------------------
   C          46.600          3.590         12.000         0
   O          15.600          3.194          5.400         0
 
 Nth order contribution to Edisp (eV)
 Edisp(N=2):  -4.52584030627596     
 Edisp(N=3):  0.341243899358345     
 Edisp(N=4): -0.523968975861361     
 Edisp(N=5):  0.243521376268775     
 Edisp(N=6): -0.235565518500965     
 Edisp(N=inf):  -4.61007437952382     

  Tkatchenko/Scheffler method for vdW energy calculation
  ---------------------------------------------------------------------------------------------

  Parameters of vdW forcefield:
            C6ts              R0ts          ALPHAts         R0scs        ALPHAscs        RELVOL 
            (au)              (au)           (au)            (au)          (au)                 
   ---------------------------------------------------------------------------------------------
   C          32.896          3.388         10.082          3.266          9.032          0.840
   C          32.897          3.388         10.082          3.266          9.031          0.840
   C          32.903          3.388         10.083          3.266          9.033          0.840
   C          32.910          3.388         10.084          3.266          9.030          0.840
   C          32.891          3.388         10.081          3.266          9.030          0.840
   C          32.889          3.388         10.081          3.266          9.029          0.840
   C          32.904          3.388         10.083          3.266          9.034          0.840
   C          32.899          3.388         10.083          3.266          9.035          0.840
   C          32.897          3.388         10.082          3.266          9.033          0.840
   C          32.904          3.388         10.083          3.266          9.036          0.840
   C          32.888          3.388         10.081          3.266          9.032          0.840
   C          32.888          3.388         10.081          3.266          9.031          0.840
   C          32.904          3.388         10.083          3.266          9.035          0.840
   C          32.896          3.388         10.082          3.266          9.031          0.840
   C          32.888          3.388         10.081          3.265          9.027          0.840
   C          32.891          3.388         10.082          3.266          9.028          0.840
   C          32.891          3.388         10.082          3.266          9.031          0.840
   C          32.893          3.388         10.082          3.266          9.030          0.840
   C          32.897          3.388         10.082          3.266          9.032          0.840
   C          32.893          3.388         10.082          3.266          9.030          0.840
   C          32.891          3.388         10.081          3.266          9.029          0.840
   C          32.888          3.388         10.081          3.266          9.028          0.840
   C          32.913          3.388         10.085          3.266          9.030          0.840
   C          32.912          3.388         10.085          3.266          9.030          0.840
   C          32.887          3.388         10.081          3.266          9.032          0.840
   C          32.888          3.388         10.081          3.266          9.032          0.840
   C          32.898          3.388         10.083          3.266          9.035          0.840
   C          32.901          3.388         10.083          3.266          9.034          0.840
   C          32.889          3.388         10.081          3.266          9.028          0.840
   C          32.887          3.388         10.081          3.266          9.032          0.840
   C          32.907          3.388         10.084          3.266          9.031          0.840
   C          32.901          3.388         10.083          3.266          9.033          0.840
   C          32.889          3.388         10.081          3.266          9.031          0.840
   C          32.889          3.388         10.081          3.266          9.032          0.840
   C          32.889          3.388         10.081          3.266          9.031          0.840
   C          32.890          3.388         10.081          3.266          9.031          0.840
   C          32.895          3.388         10.082          3.266          9.030          0.840
   C          32.894          3.388         10.082          3.266          9.031          0.840
   C          32.897          3.388         10.082          3.266          9.033          0.840
   C          32.896          3.388         10.082          3.266          9.032          0.840
   C          32.896          3.388         10.082          3.266          9.032          0.840
   C          32.899          3.388         10.083          3.266          9.033          0.840
   C          32.893          3.388         10.082          3.266          9.030          0.840
   C          32.898          3.388         10.083          3.266          9.032          0.840
   C          32.887          3.388         10.081          3.266          9.031          0.840
   C          32.890          3.388         10.081          3.266          9.028          0.840
   C          32.889          3.388         10.081          3.266          9.031          0.840
   C          32.888          3.388         10.081          3.266          9.032          0.840
   C          32.893          3.388         10.082          3.266          9.031          0.840
   C          32.893          3.388         10.082          3.266          9.031          0.840
   C          26.354          3.265          9.024          3.199          8.490          0.752
   O          12.456          3.076          4.825          3.036          4.638          0.894
   O          12.457          3.076          4.825          3.036          4.638          0.894

  vdW correction parametrized for the method pbe       

  IVDW = 202
  VDW_RADIUS =    50.000 A
  VDW_SR =     0.830
  VDW_D =     6.000
  SCSRAD =   120.000 A
  LVDWSCS = T
  LSCSGRAD = T
  LSCALER0 = T
  ITIM = -1
  Edisp (eV):   -4.61007
    FORVDW:  cpu time   18.9340: real time   19.0788

 VOLUME and BASIS-vectors are now :
 -----------------------------------------------------------------------------
  energy-cutoff  :     1000.00
  volume of cell :     3288.85
      direct lattice vectors                 reciprocal lattice vectors
    12.325000000  0.000000000  0.000000000     0.081135903  0.046843835  0.000000000
    -6.162500000 10.673763102  0.000000000     0.000000000  0.093687670  0.000000000
     0.000000000  0.000000000 25.000000000     0.000000000  0.000000000  0.040000000

  length of vectors
    12.325000000 12.325000000 25.000000000     0.093687670  0.093687670  0.040000000


 FORCES acting on ions:
    Electron-Ion                     Ewald-Force                    Non-Local-Force
 -----------------------------------------------------------------------------------------------
   0.108E+01 0.949E+00 0.167E+02   -.108E+01 -.950E+00 -.167E+02   0.473E-02 -.685E-03 0.605E-02
   0.150E+01 0.782E+00 0.180E+02   -.150E+01 -.779E+00 -.180E+02   0.342E-02 -.319E-02 -.564E-02
   0.603E+00 0.165E+01 0.183E+02   -.605E+00 -.165E+01 -.183E+02   -.841E-04 0.118E-01 -.941E-03
   0.759E+00 0.111E+01 0.211E+02   -.758E+00 -.110E+01 -.210E+02   0.118E-01 0.870E-03 -.146E-01
   0.118E+01 0.299E+00 0.171E+02   -.118E+01 -.299E+00 -.171E+02   -.356E-03 -.548E-02 0.338E-02
   0.121E+01 -.263E+00 0.173E+02   -.121E+01 0.265E+00 -.173E+02   -.633E-02 0.337E-02 -.276E-02
   0.146E+01 0.592E+00 0.209E+02   -.147E+01 -.592E+00 -.209E+02   0.121E-01 -.192E-01 -.615E-02
   0.147E+01 -.490E+00 0.221E+02   -.147E+01 0.493E+00 -.220E+02   -.674E-02 -.553E-02 -.547E-02
   -.730E+00 0.156E+01 0.187E+02   0.734E+00 -.156E+01 -.187E+02   -.268E-03 -.127E-01 -.485E-02
   -.980E+00 0.843E+00 0.212E+02   0.982E+00 -.845E+00 -.212E+02   -.261E-01 0.150E-01 0.250E-02
   0.313E+00 -.324E+00 0.162E+02   -.310E+00 0.324E+00 -.162E+02   0.371E-02 -.277E-02 0.109E-03
   0.298E+00 -.249E+00 0.159E+02   -.298E+00 0.249E+00 -.159E+02   -.683E-02 0.339E-02 0.607E-02
   0.483E+00 -.117E+01 0.231E+02   -.484E+00 0.118E+01 -.230E+02   0.268E-01 -.783E-02 -.201E-02
   0.301E+00 -.172E+01 0.198E+02   -.305E+00 0.173E+01 -.198E+02   0.394E-02 0.650E-02 -.158E-01
   -.110E+01 0.661E+00 0.167E+02   0.110E+01 -.663E+00 -.167E+02   0.736E-02 -.389E-02 0.738E-02
   -.141E+01 0.403E+00 0.170E+02   0.141E+01 -.403E+00 -.170E+02   -.189E-02 0.536E-02 -.483E-02
   -.200E+00 -.813E-01 0.154E+02   0.204E+00 0.794E-01 -.154E+02   -.290E-03 0.366E-03 0.199E-02
   0.904E-01 0.689E+00 0.156E+02   -.897E-01 -.689E+00 -.156E+02   -.294E-02 0.160E-02 0.919E-02
   -.285E+00 -.166E+01 0.181E+02   0.284E+00 0.166E+01 -.181E+02   0.610E-02 -.180E-02 0.361E-03
   -.167E+00 -.101E+01 0.164E+02   0.164E+00 0.101E+01 -.164E+02   0.396E-04 -.107E-02 -.696E-03
   0.154E+01 -.664E+00 0.190E+02   -.154E+01 0.665E+00 -.190E+02   -.150E-02 -.238E-02 -.163E-01
   0.109E+01 -.880E+00 0.178E+02   -.109E+01 0.881E+00 -.178E+02   -.679E-02 0.529E-02 -.203E-02
   -.267E+00 0.473E+00 0.232E+02   0.263E+00 -.472E+00 -.232E+02   -.103E-01 0.105E-01 0.112E-02
   -.373E+00 -.746E+00 0.231E+02   0.375E+00 0.744E+00 -.231E+02   0.121E-01 -.149E-01 -.103E-01
   0.595E+00 -.220E+00 0.163E+02   -.593E+00 0.218E+00 -.163E+02   0.362E-02 -.261E-02 -.309E-02
   0.166E+00 0.509E+00 0.161E+02   -.166E+00 -.509E+00 -.161E+02   -.518E-02 0.346E-02 0.563E-02
   -.170E+01 0.191E+00 0.192E+02   0.170E+01 -.194E+00 -.192E+02   0.116E-01 0.790E-02 -.221E-02
   -.160E+01 -.648E+00 0.185E+02   0.160E+01 0.648E+00 -.185E+02   -.878E-02 0.904E-02 0.718E-03
   0.608E+00 -.125E+01 0.180E+02   -.608E+00 0.125E+01 -.180E+02   0.449E-02 0.213E-02 -.663E-02
   0.550E-01 -.552E+00 0.166E+02   -.572E-01 0.553E+00 -.166E+02   -.478E-02 0.237E-02 -.214E-02
   -.114E+01 -.115E+01 0.198E+02   0.114E+01 0.115E+01 -.198E+02   -.119E-01 -.815E-02 -.127E-01
   -.834E+00 -.157E+01 0.180E+02   0.835E+00 0.157E+01 -.180E+02   0.599E-03 -.116E-02 0.197E-02
   0.693E-01 0.336E+00 0.158E+02   -.695E-01 -.336E+00 -.158E+02   0.508E-02 -.468E-02 0.716E-02
   0.198E+00 0.305E+00 0.160E+02   -.201E+00 -.304E+00 -.160E+02   -.230E-02 0.462E-02 -.101E-02
   -.745E+00 0.137E+00 0.163E+02   0.747E+00 -.138E+00 -.163E+02   0.405E-02 -.243E-02 0.605E-02
   -.659E+00 -.302E+00 0.162E+02   0.659E+00 0.302E+00 -.162E+02   -.403E-02 0.235E-02 0.386E-02
   -.125E+01 -.672E+00 0.166E+02   0.125E+01 0.670E+00 -.166E+02   -.108E-02 0.955E-03 0.332E-02
   -.829E+00 -.664E+00 0.160E+02   0.831E+00 0.665E+00 -.160E+02   -.392E-02 0.123E-02 0.892E-02
   -.755E+00 -.956E+00 0.163E+02   0.755E+00 0.957E+00 -.163E+02   -.293E-02 0.166E-03 0.465E-02
   -.113E+00 -.265E+00 0.157E+02   0.114E+00 0.265E+00 -.157E+02   0.186E-02 0.617E-03 0.726E-02
   0.286E+00 0.716E+00 0.157E+02   -.287E+00 -.716E+00 -.158E+02   -.393E-02 0.170E-02 0.677E-02
   0.861E+00 0.131E+01 0.167E+02   -.861E+00 -.131E+01 -.167E+02   -.648E-03 -.838E-03 0.749E-02
   0.951E-01 0.118E+01 0.161E+02   -.917E-01 -.118E+01 -.161E+02   -.232E-03 0.836E-03 0.219E-02
   -.800E-02 0.171E+01 0.176E+02   0.908E-02 -.172E+01 -.177E+02   -.805E-02 0.188E-02 0.510E-02
   -.227E+00 0.421E+00 0.164E+02   0.229E+00 -.423E+00 -.164E+02   0.408E-02 -.295E-02 0.152E-02
   -.822E+00 0.103E+01 0.170E+02   0.823E+00 -.103E+01 -.170E+02   -.621E-02 0.329E-03 -.130E-02
   -.231E+00 -.522E+00 0.162E+02   0.230E+00 0.522E+00 -.163E+02   0.621E-02 -.132E-02 0.600E-02
   -.470E+00 0.165E+00 0.158E+02   0.468E+00 -.164E+00 -.158E+02   -.361E-02 0.325E-02 -.288E-02
   0.457E-01 -.319E+00 0.158E+02   -.462E-01 0.320E+00 -.158E+02   0.424E-02 -.311E-02 0.567E-02
   0.510E+00 0.364E+00 0.158E+02   -.512E+00 -.362E+00 -.158E+02   -.229E-03 0.168E-02 0.321E-02
   0.461E-03 0.242E-01 -.220E+03   -.450E-02 -.206E-01 0.220E+03   -.291E-02 0.190E-02 -.279E-02
   -.229E+03 0.156E+03 -.343E+03   0.279E+03 -.190E+03 0.346E+03   -.511E+02 0.348E+02 -.343E+01
   0.229E+03 -.156E+03 -.321E+03   -.279E+03 0.190E+03 0.318E+03   0.511E+02 -.348E+02 0.309E+01
 -----------------------------------------------------------------------------------------------
   -.673E-02 0.135E-01 0.343E+00   0.171E-12 -.114E-12 -.568E-13   0.703E-02 -.138E-01 -.343E+00
 
 
 POSITION                                       TOTAL-FORCE (eV/Angst)
 -----------------------------------------------------------------------------------
     11.98348      0.00342      0.01417         0.003180     -0.001633     -0.001128
     -0.34154      1.42665      0.01100        -0.000651     -0.000081     -0.003461
      2.12355      0.00315      0.01249        -0.001703      0.010777     -0.006513
      2.12326      1.42653      0.00641         0.013337      0.001306     -0.008223
     10.75099      2.13819      0.01213         0.000300     -0.005693     -0.000094
     -1.57382      3.56123      0.01110        -0.008946      0.004798     -0.001436
      0.89078      2.13854      0.00548         0.009591     -0.019033      0.002548
      0.89099      3.56147      0.00181        -0.011843     -0.002476      0.012110
      4.58864      0.00346      0.01135         0.003608     -0.015874     -0.003526
      4.58894      1.42623      0.00646        -0.023648      0.013360      0.014001
      9.51854      4.27281      0.01369         0.006573     -0.003105      0.000094
     -2.80632      5.69591      0.01434        -0.006505      0.003379      0.000684
      2.12300      4.27302      0.00000         0.025096     -0.005086      0.020781
      2.12335      5.69594      0.00581        -0.000502      0.009172     -0.002518
      7.05344      0.00333      0.01399         0.009401     -0.005302     -0.000415
      7.05353      1.42635      0.01368        -0.001659      0.005018     -0.003939
      8.28610      6.40752      0.01601         0.002957     -0.001488     -0.000988
     -4.03885      7.83070      0.01636        -0.002199      0.000851     -0.000245
      3.35586      6.40753      0.01007         0.005450      0.000513     -0.001224
      3.35599      7.83072      0.01320        -0.003218      0.000029     -0.000761
     -0.34146      4.27290      0.00723        -0.001889     -0.001479     -0.004407
     -0.34138      5.69591      0.00946        -0.009233      0.006527     -0.000998
      3.35624      2.13791      0.00222        -0.013542      0.011983      0.016253
      3.35573      3.56155      0.00139         0.013540     -0.015943      0.008743
     -1.57395      6.40758      0.01311         0.005416     -0.003947     -0.000691
     -1.57385      7.83068      0.01438        -0.004810      0.003726     -0.000055
      5.82093      2.13784      0.01033         0.016032      0.005227     -0.002873
      5.82114      3.56097      0.01156        -0.006378      0.008495     -0.003715
      0.89092      6.40755      0.00907         0.004558      0.002376     -0.002203
      0.89106      7.83068      0.01235        -0.006860      0.003868      0.000287
      4.58871      4.27293      0.00850        -0.012940     -0.006557     -0.010796
      4.58852      5.69606      0.01149         0.001929     -0.001105     -0.004017
      9.51845      0.00337      0.01490         0.004710     -0.004653      0.000072
      9.51855      1.42644      0.01438        -0.005114      0.005462     -0.000457
      8.28593      2.13803      0.01453         0.006719     -0.003406      0.000507
      8.28613      3.56115      0.01464        -0.004276      0.002213     -0.000163
      7.05356      4.27269      0.01457         0.002626     -0.001108     -0.000808
      7.05362      5.69588      0.01553        -0.002468      0.001563     -0.000207
      5.82112      6.40755      0.01489        -0.002955      0.001598     -0.000219
      5.82102      7.83073      0.01579         0.002715      0.000288     -0.000431
      7.05363      8.54227      0.01631        -0.004684      0.001273      0.000871
     -5.27149      9.96549      0.01495         0.000103     -0.002026     -0.002305
     -2.80638      8.54234      0.01558         0.003181     -0.001362     -0.001401
     -2.80627      9.96553      0.01362        -0.006747     -0.000084     -0.003893
     -0.34149      8.54239      0.01378         0.005810     -0.004888      0.000121
     -0.34138      9.96550      0.01354        -0.005931     -0.000135     -0.001379
      2.12343      8.54232      0.01336         0.005826     -0.001501      0.000723
      2.12354      9.96544      0.01469        -0.005166      0.003810     -0.002024
      4.58846      8.54235      0.01505         0.003679     -0.002773      0.000859
      4.58853      9.96550      0.01517        -0.002802      0.003359     -0.000022
      3.04930      2.68154      7.49154        -0.006791      0.005505      0.033936
      4.02070      2.02068      7.55596        -0.530721      0.360669     -0.051646
      2.07767      3.34267      7.43208         0.537846     -0.366407      0.016590
 -----------------------------------------------------------------------------------
    total drift:                                0.000306     -0.000268      0.000282


--------------------------------------------------------------------------------------------------------



  FREE ENERGIE OF THE ION-ELECTRON SYSTEM (eV)
  ---------------------------------------------------
  free  energy   TOTEN  =      -489.37960548 eV

  energy  without entropy=     -489.37960548  energy(sigma->0) =     -489.37960548
 


--------------------------------------------------------------------------------------------------------


    POTLOK:  cpu time    0.7363: real time    0.7413


--------------------------------------------------------------------------------------------------------


     LOOP+:  cpu time  354.5060: real time  357.8811
    4ORBIT:  cpu time    0.0000: real time    0.0000

 total amount of memory used by VASP MPI-rank0   551512. kBytes
=======================================================================

   base      :      30000. kBytes
   nonl-proj :     230539. kBytes
   fftplans  :      40716. kBytes
   grid      :     216018. kBytes
   one-center:        162. kBytes
   wavefun   :      34077. kBytes
 
  
  
 General timing and accounting informations for this job:
 ========================================================
  
                  Total CPU time used (sec):      401.260
                            User time (sec):      378.213
                          System time (sec):       23.047
                         Elapsed time (sec):      406.075
  
                   Maximum memory used (kb):      997432.
                   Average memory used (kb):          N/A
  
                          Minor page faults:       135021
                          Major page faults:          108
                 Voluntary context switches:         3419
