 vasp.6.2.1 16May21 (build Nov 06 2021 14:46:37) complex                        
  
 executed on             LinuxIFC date 2025.03.03  17:17:06
 running on  112 total cores
 distrk:  each k-point on   56 cores,    2 groups
 distr:  one band on NCORE=   1 cores,   56 groups


--------------------------------------------------------------------------------------------------------


 INCAR:
   ALGO = Conjugate
   KPAR = 2
   NCORE = 32
   PREC = Accurate
   EDIFF = 1E-7
   ENCUT = 1000
   ISMEAR = 0
   SIGMA = 0.01
   ISIF = 0
   GGA = PE
   IVDW = 202
   LVDWEXPANSION = .TRUE.
   LWAVE = .FALSE.
   LCHARGE = .FALSE.
   SYMPREC = 1E-7

 POTCAR:    PAW_PBE C_h 06Feb2004                 
 POTCAR:    PAW_PBE O_h 06Feb2004                 
 -----------------------------------------------------------------------------
|                                                                             |
|           W    W    AA    RRRRR   N    N  II  N    N   GGGG   !!!           |
|           W    W   A  A   R    R  NN   N  II  NN   N  G    G  !!!           |
|           W    W  A    A  R    R  N N  N  II  N N  N  G       !!!           |
|           W WW W  AAAAAA  RRRRR   N  N N  II  N  N N  G  GGG   !            |
|           WW  WW  A    A  R   R   N   NN  II  N   NN  G    G                |
|           W    W  A    A  R    R  N    N  II  N    N   GGGG   !!!           |
|                                                                             |
|     The value NCORE = 32 specified in the INCAR file was overwritten,       |
|     because it was not compatible with the 56 processes available:          |
|     NCORE = 1                                                               |
|     was used instead, please check that this makes sense for your           |
|     machine.                                                                |
|                                                                             |
 -----------------------------------------------------------------------------

 -----------------------------------------------------------------------------
|                                                                             |
|           W    W    AA    RRRRR   N    N  II  N    N   GGGG   !!!           |
|           W    W   A  A   R    R  NN   N  II  NN   N  G    G  !!!           |
|           W    W  A    A  R    R  N N  N  II  N N  N  G       !!!           |
|           W WW W  AAAAAA  RRRRR   N  N N  II  N  N N  G  GGG   !            |
|           WW  WW  A    A  R   R   N   NN  II  N   NN  G    G                |
|           W    W  A    A  R    R  N    N  II  N    N   GGGG   !!!           |
|                                                                             |
|     For optimal performance we recommend to set                             |
|       NCORE = 2 up to number-of-cores-per-socket                            |
|     NCORE specifies how many cores store one orbital (NPAR=cpu/NCORE).      |
|     This setting can greatly improve the performance of VASP for DFT.       |
|     The default, NCORE=1 might be grossly inefficient on modern             |
|     multi-core architectures or massively parallel machines. Do your        |
|     own testing! More info at https://www.vasp.at/wiki/index.php/NCORE      |
|     Unfortunately you need to use the default for GW and RPA                |
|     calculations (for HF NCORE is supported but not extensively tested      |
|     yet).                                                                   |
|                                                                             |
 -----------------------------------------------------------------------------

 POTCAR:    PAW_PBE C_h 06Feb2004                 
   VRHFIN =C: s2p2                                                                                  
   LEXCH  = PE                                                                                      
   EATOM  =   147.1560 eV,   10.8157 Ry                                                             
                                                                                                    
   TITEL  = PAW_PBE C_h 06Feb2004                                                                   
   LULTRA =        F    use ultrasoft PP ?                                                          
   IUNSCR =        1    unscreen: 0-lin 1-nonlin 2-no                                               
   RPACOR =    0.800    partial core radius                                                         
   POMASS =   12.011; ZVAL   =    4.000    mass and valenz                                          
   RCORE  =    1.100    outmost cutoff radius                                                       
   RWIGS  =    1.630; RWIGS  =    0.863    wigner-seitz radius (au A)                               
   ENMAX  =  700.000; ENMIN  =  500.000 eV                                                          
   ICORE  =        2    local potential                                                             
   LCOR   =        T    correct aug charges                                                         
   LPAW   =        T    paw PP                                                                      
   EAUG   =  946.768                                                                                
   DEXC   =    0.000                                                                                
   RMAX   =    1.128    core radius for proj-oper                                                   
   RAUG   =    1.300    factor for augmentation sphere                                              
   RDEP   =    1.162    radius for radial grids                                                     
   RDEPT  =    1.088    core radius for aug-charge                                                  
                                                                                                    
   Atomic configuration                                                                             
    4 entries                                                                                       
     n  l   j            E        occ.                                                              
     1  0  0.50      -273.3789   2.0000                                                             
     2  0  0.50       -13.7508   2.0000                                                             
     2  1  0.50        -5.2854   2.0000                                                             
     3  2  1.50        -5.4423   0.0000                                                             
   Description                                                                                      
     l       E           TYP  RCUT    TYP  RCUT                                                     
     0    -13.7508458     23  1.100                                                                 
     0     -8.2022199     23  1.100                                                                 
     1     -5.2854383     23  1.100                                                                 
     1      1.1560700     23  1.100                                                                 
     2     -5.4423304      7  1.100                                                                 
  local pseudopotential read in
  partial core-charges read in
  partial kinetic energy density read in
  atomic valenz-charges read in
  non local Contribution for L=           0  read in
    real space projection operators read in
  non local Contribution for L=           0  read in
    real space projection operators read in
  non local Contribution for L=           1  read in
    real space projection operators read in
  non local Contribution for L=           1  read in
    real space projection operators read in
    PAW grid and wavefunctions read in
 
   number of l-projection  operators is LMAX  =           4
   number of lm-projection operators is LMMAX =           8
 
 POTCAR:    PAW_PBE O_h 06Feb2004                 
   VRHFIN =O: s2p4                                                                                  
   LEXCH  = PE                                                                                      
   EATOM  =   432.3788 eV,   31.7789 Ry                                                             
                                                                                                    
   TITEL  = PAW_PBE O_h 06Feb2004                                                                   
   LULTRA =        F    use ultrasoft PP ?                                                          
   IUNSCR =        1    unscreen: 0-lin 1-nonlin 2-no                                               
   RPACOR =    0.800    partial core radius                                                         
   POMASS =   16.000; ZVAL   =    6.000    mass and valenz                                          
   RCORE  =    1.100    outmost cutoff radius                                                       
   RWIGS  =    1.400; RWIGS  =    0.741    wigner-seitz radius (au A)                               
   ENMAX  =  700.000; ENMIN  =  500.000 eV                                                          
   ICORE  =        2    local potential                                                             
   LCOR   =        T    correct aug charges                                                         
   LPAW   =        T    paw PP                                                                      
   EAUG   =  888.804                                                                                
   DEXC   =    0.000                                                                                
   RMAX   =    1.128    core radius for proj-oper                                                   
   RAUG   =    1.300    factor for augmentation sphere                                              
   RDEP   =    1.125    radius for radial grids                                                     
   RDEPT  =    1.088    core radius for aug-charge                                                  
                                                                                                    
   Atomic configuration                                                                             
    4 entries                                                                                       
     n  l   j            E        occ.                                                              
     1  0  0.50      -514.6923   2.0000                                                             
     2  0  0.50       -23.9615   2.0000                                                             
     2  1  0.50        -9.0305   4.0000                                                             
     3  2  1.50        -9.5241   0.0000                                                             
   Description                                                                                      
     l       E           TYP  RCUT    TYP  RCUT                                                     
     0    -23.9615319     23  1.100                                                                 
     0    -25.3221145     23  1.100                                                                 
     1     -9.0304911     23  1.100                                                                 
     1     -5.4802209     23  1.100                                                                 
     2     -9.5240782      7  1.100                                                                 
  local pseudopotential read in
  partial core-charges read in
  partial kinetic energy density read in
  atomic valenz-charges read in
  non local Contribution for L=           0  read in
    real space projection operators read in
  non local Contribution for L=           0  read in
    real space projection operators read in
  non local Contribution for L=           1  read in
    real space projection operators read in
  non local Contribution for L=           1  read in
    real space projection operators read in
    PAW grid and wavefunctions read in
 
   number of l-projection  operators is LMAX  =           4
   number of lm-projection operators is LMMAX =           8
 
 -----------------------------------------------------------------------------
|                                                                             |
|               ----> ADVICE to this user running VASP <----                  |
|                                                                             |
|     You have a (more or less) 'large supercell' and for larger cells it     |
|     might be more efficient to use real-space projection operators.         |
|     Therefore, try LREAL= Auto in the INCAR file.                           |
|     Mind: For very accurate calculation, you might also keep the            |
|     reciprocal projection scheme (i.e. LREAL=.FALSE.).                      |
|                                                                             |
 -----------------------------------------------------------------------------

  PAW_PBE C_h 06Feb2004                 :
 energy of atom  1       EATOM= -147.1560
 kinetic energy error for atom=    0.0031 (will be added to EATOM!!)
  PAW_PBE O_h 06Feb2004                 :
 energy of atom  2       EATOM= -432.3788
 kinetic energy error for atom=    0.0171 (will be added to EATOM!!)
 
 
 POSCAR:  C  O
  positions in cartesian coordinates
  No initial velocities read in
 exchange correlation table for  LEXCH =        8
   RHO(1)=    0.500       N(1)  =     2000
   RHO(2)=  100.500       N(2)  =     4000
 


--------------------------------------------------------------------------------------------------------


 ion  position               nearest neighbor table
   1  0.972  0.000  0.001-  50 1.42   2 1.42  42 1.42
   2  0.039  0.134  0.001-   5 1.42   7 1.42   1 1.42
   3  0.172  0.000  0.001-  42 1.42  44 1.42   4 1.42
   4  0.239  0.134  0.000-   7 1.42   3 1.42  23 1.42
   5  0.972  0.200  0.001-   6 1.42   2 1.42  34 1.42
   6  0.039  0.334  0.001-   5 1.42  21 1.42  11 1.42
   7  0.172  0.200  0.000-   8 1.42   2 1.42   4 1.42
   8  0.239  0.334  0.000-  13 1.42   7 1.42  21 1.42
   9  0.372  0.000  0.001-  10 1.42  44 1.42  46 1.42
  10  0.439  0.134  0.000-  27 1.42   9 1.42  23 1.42
  11  0.972  0.400  0.001-  12 1.42  36 1.42   6 1.42
  12  0.039  0.534  0.001-  25 1.42  11 1.42  17 1.42
  13  0.372  0.400  0.000-   8 1.42  14 1.42  24 1.42
  14  0.439  0.534  0.000-  13 1.42  29 1.42  19 1.42
  15  0.572  0.000  0.001-  46 1.42  16 1.42  48 1.42
  16  0.639  0.134  0.001-  15 1.42  35 1.42  27 1.42
  17  0.972  0.600  0.001-  38 1.42  18 1.42  12 1.42
  18  0.039  0.734  0.001-  43 1.42  41 1.42  17 1.42
  19  0.572  0.600  0.001-  14 1.42  20 1.42  32 1.42
  20  0.639  0.734  0.001-  49 1.42  19 1.42  47 1.42
  21  0.172  0.400  0.000-  22 1.42   8 1.42   6 1.42
  22  0.239  0.534  0.000-  21 1.42  29 1.42  25 1.42
  23  0.372  0.200  0.000-  10 1.42   4 1.42  24 1.42
  24  0.439  0.334  0.000-  13 1.42  31 1.42  23 1.42
  25  0.172  0.600  0.001-  26 1.42  12 1.42  22 1.42
  26  0.239  0.734  0.001-  25 1.42  45 1.42  43 1.42
  27  0.572  0.200  0.001-  10 1.42  28 1.42  16 1.42
  28  0.639  0.334  0.001-  27 1.42  37 1.42  31 1.42
  29  0.372  0.600  0.000-  22 1.42  14 1.42  30 1.42
  30  0.439  0.734  0.001-  47 1.42  29 1.42  45 1.42
  31  0.572  0.400  0.000-  32 1.42  28 1.42  24 1.42
  32  0.639  0.534  0.001-  31 1.42  39 1.42  19 1.42
  33  0.772  0.000  0.001-  34 1.42  48 1.42  50 1.42
  34  0.839  0.134  0.001-  33 1.42   5 1.42  35 1.42
  35  0.772  0.200  0.001-  36 1.42  16 1.42  34 1.42
  36  0.839  0.334  0.001-  35 1.42  11 1.42  37 1.42
  37  0.772  0.400  0.001-  28 1.42  38 1.42  36 1.42
  38  0.839  0.534  0.001-  17 1.42  37 1.42  39 1.42
  39  0.772  0.600  0.001-  40 1.42  38 1.42  32 1.42
  40  0.839  0.734  0.001-  39 1.42  49 1.42  41 1.42
  41  0.972  0.800  0.001-  18 1.42  42 1.42  40 1.42
  42  0.039  0.934  0.001-   3 1.42  41 1.42   1 1.42
  43  0.172  0.800  0.001-  18 1.42  44 1.42  26 1.42
  44  0.239  0.934  0.001-   9 1.42  43 1.42   3 1.42
  45  0.372  0.800  0.001-  26 1.42  46 1.42  30 1.42
  46  0.439  0.934  0.001-  15 1.42  45 1.42   9 1.42
  47  0.572  0.800  0.001-  30 1.42  48 1.42  20 1.42
  48  0.639  0.934  0.001-  47 1.42  33 1.42  15 1.42
  49  0.772  0.800  0.001-  50 1.42  20 1.42  40 1.42
  50  0.839  0.934  0.001-  49 1.42   1 1.42  33 1.42
  51  0.373  0.251  0.149-  52 1.18  53 1.18
  52  0.421  0.189  0.152-  51 1.18
  53  0.325  0.313  0.146-  51 1.18
 
  LATTYP: Found a hexagonal cell.
 ALAT       =    12.3250000000
 C/A-ratio  =     1.6227180527
  
  Lattice vectors:
  
 A1 = (  12.3250000000,   0.0000000000,   0.0000000000)
 A2 = (  -6.1625000000,  10.6737631016,   0.0000000000)
 A3 = (   0.0000000000,   0.0000000000,  20.0000000000)


Analysis of symmetry for initial positions (statically):
=====================================================================
 Subroutine PRICEL returns:
 Original cell was already a primitive cell.
 

 Routine SETGRP: Setting up the symmetry group for a 
 hexagonal supercell.


 Subroutine GETGRP returns: Found  1 space group operations
 (whereof  1 operations were pure point group operations)
 out of a pool of 24 trial point group operations.


The static configuration has the point symmetry C_1 .


Analysis of symmetry for dynamics (positions and initial velocities):
=====================================================================
 Subroutine PRICEL returns:
 Original cell was already a primitive cell.
 

 Routine SETGRP: Setting up the symmetry group for a 
 hexagonal supercell.


 Subroutine GETGRP returns: Found  1 space group operations
 (whereof  1 operations were pure point group operations)
 out of a pool of 24 trial point group operations.


The dynamic configuration has the point symmetry C_1 .


 Subroutine INISYM returns: Found  1 space group operations
 (whereof  1 operations are pure point group operations),
 and found     1 'primitive' translations


----------------------------------------------------------------------------------------

                                     Primitive cell                                     

  volume of cell :    2631.0826

  direct lattice vectors                    reciprocal lattice vectors
    12.325000000  0.000000000  0.000000000     0.081135903  0.046843835  0.000000000
    -6.162500000 10.673763102  0.000000000     0.000000000  0.093687670  0.000000000
     0.000000000  0.000000000 20.000000000     0.000000000  0.000000000  0.050000000

  length of vectors
    12.325000000 12.325000000 20.000000000     0.093687670  0.093687670  0.050000000

  position of ions in fractional coordinates (direct lattice)
     0.972450841  0.000320818  0.000708389
     0.039118382  0.133659505  0.000550216
     0.172443627  0.000295449  0.000624535
     0.239096278  0.133647917  0.000320585
     0.972452058  0.200322012  0.000606523
     0.039128360  0.333643771  0.000555187
     0.172451764  0.200354552  0.000273959
     0.239124359  0.333665720  0.000090325
     0.372465565  0.000324403  0.000567391
     0.439137473  0.133619939  0.000322923
     0.972449824  0.400309362  0.000684513
     0.039124981  0.533636789  0.000716763
     0.372416176  0.400329481  0.000000000
     0.439099602  0.533638981  0.000290518
     0.572443676  0.000312125  0.000699475
     0.639110207  0.133631751  0.000684093
     0.972452703  0.600305653  0.000800361
     0.039124495  0.733640359  0.000818141
     0.572433471  0.600306242  0.000503618
     0.639111888  0.733641879  0.000659881
     0.172454630  0.400318228  0.000361306
     0.239120185  0.533636548  0.000473136
     0.372459750  0.200295993  0.000111246
     0.439107096  0.333673419  0.000069702
     0.172452155  0.600311506  0.000655425
     0.239123371  0.733638574  0.000718912
     0.572431082  0.200289171  0.000516621
     0.639112773  0.333618630  0.000577970
     0.372439808  0.600308022  0.000453556
     0.439116090  0.733637858  0.000617737
     0.572469358  0.400320504  0.000424897
     0.639119408  0.533650873  0.000574513
     0.772445723  0.000315427  0.000745201
     0.839116277  0.133640203  0.000719132
     0.772440513  0.200307432  0.000726291
     0.839120241  0.333635728  0.000731834
     0.772446320  0.400298367  0.000728722
     0.839118980  0.533633964  0.000776376
     0.772456143  0.600308173  0.000744639
     0.839115033  0.733643180  0.000789390
     0.972455313  0.800305582  0.000815291
     0.039114714  0.933643289  0.000747563
     0.172457971  0.800312211  0.000779216
     0.239134551  0.933647193  0.000681063
     0.372451396  0.800316674  0.000689249
     0.439124489  0.933644769  0.000676788
     0.572441101  0.800310054  0.000668168
     0.639115067  0.933638985  0.000734556
     0.772445098  0.800313187  0.000752577
     0.839116614  0.933644338  0.000758538
     0.373021009  0.251226878  0.148650889
     0.420879805  0.189313152  0.151871982
     0.325156981  0.313167186  0.145678146

  ion indices of the primitive-cell ions
   primitive index   ion index
                 1           1
                 2           2
                 3           3
                 4           4
                 5           5
                 6           6
                 7           7
                 8           8
                 9           9
                10          10
                11          11
                12          12
                13          13
                14          14
                15          15
                16          16
                17          17
                18          18
                19          19
                20          20
                21          21
                22          22
                23          23
                24          24
                25          25
                26          26
                27          27
                28          28
                29          29
                30          30
                31          31
                32          32
                33          33
                34          34
                35          35
                36          36
                37          37
                38          38
                39          39
                40          40
                41          41
                42          42
                43          43
                44          44
                45          45
                46          46
                47          47
                48          48
                49          49
                50          50
                51          51
                52          52
                53          53

----------------------------------------------------------------------------------------

 
 
 KPOINTS: auto                                    

Automatic generation of k-mesh.
 Grid dimensions read from file:
 generate k-points for:    1    1    1

 Generating k-lattice:

  Cartesian coordinates                     Fractional coordinates (reciprocal lattice)
     0.081135903  0.046843835  0.000000000     1.000000000 -0.000000000  0.000000000
     0.000000000  0.093687670  0.000000000     0.000000000  1.000000000  0.000000000
     0.000000000  0.000000000  0.050000000     0.000000000  0.000000000  1.000000000

  Length of vectors
     0.093687670  0.093687670  0.050000000

  Shift w.r.t. Gamma in fractional coordinates (k-lattice)
     0.000000000  0.000000000  0.000000000

 
 Subroutine IBZKPT returns following result:
 ===========================================
 
 Found      1 irreducible k-points:
 
 Following reciprocal coordinates:
            Coordinates               Weight
  0.000000  0.000000  0.000000      1.000000
 
 Following cartesian coordinates:
            Coordinates               Weight
  0.000000  0.000000  0.000000      1.000000
 


--------------------------------------------------------------------------------------------------------




 Dimension of arrays:
   k-points           NKPTS =      1   k-points in BZ     NKDIM =      1   number of bands    NBANDS=    168
   number of dos      NEDOS =    301   number of ions     NIONS =     53
   non local maximal  LDIM  =      4   non local SUM 2l+1 LMDIM =      8
   total plane-waves  NPLWV = ******
   max r-space proj   IRMAX =      1   max aug-charges    IRDMAX=   9736
   dimension x,y,z NGX =   128 NGY =  128 NGZ =  210
   dimension x,y,z NGXF=   256 NGYF=  256 NGZF=  420
   support grid    NGXF=   256 NGYF=  256 NGZF=  420
   ions per type =              51   2
   NGX,Y,Z   is equivalent  to a cutoff of  17.27, 17.27, 17.46 a.u.
   NGXF,Y,Z  is equivalent  to a cutoff of  34.53, 34.53, 34.91 a.u.

 SYSTEM =  unknown system                          
 POSCAR =   C  O                                   

 Startparameter for this run:
   NWRITE =      2    write-flag & timer
   PREC   = accura    normal or accurate (medium, high low for compatibility)
   ISTART =      0    job   : 0-new  1-cont  2-samecut
   ICHARG =      2    charge: 1-file 2-atom 10-const
   ISPIN  =      1    spin polarized calculation?
   LNONCOLLINEAR =      F non collinear calculations
   LSORBIT =      F    spin-orbit coupling
   INIWAV =      1    electr: 0-lowe 1-rand  2-diag
   LASPH  =      F    aspherical Exc in radial PAW
 Electronic Relaxation 1
   ENCUT  = 1000.0 eV  73.50 Ry    8.57 a.u.  31.78 31.78 51.57*2*pi/ulx,y,z
   ENINI  = 1000.0     initial cutoff
   ENAUG  =  946.8 eV  augmentation charge cutoff
   NELM   =     60;   NELMIN=  2; NELMDL= -5     # of ELM steps 
   EDIFF  = 0.1E-06   stopping-criterion for ELM
   LREAL  =      F    real-space projection
   NLSPLINE    = F    spline interpolate recip. space projectors
   LCOMPAT=      F    compatible to vasp.4.4
   GGA_COMPAT  = T    GGA compatible to vasp.4.4-vasp.4.6
   LMAXPAW     = -100 max onsite density
   LMAXMIX     =    2 max onsite mixed and CHGCAR
   VOSKOWN=      0    Vosko Wilk Nusair interpolation
   ROPT   =    0.00000   0.00000
 Ionic relaxation
   EDIFFG = 0.1E-05   stopping-criterion for IOM
   NSW    =      0    number of steps for IOM
   NBLOCK =      1;   KBLOCK =      1    inner block; outer block 
   IBRION =     -1    ionic relax: 0-MD 1-quasi-New 2-CG
   NFREE  =      0    steps in history (QN), initial steepest desc. (CG)
   ISIF   =      0    stress and relaxation
   IWAVPR =     10    prediction:  0-non 1-charg 2-wave 3-comb
   ISYM   =      2    0-nonsym 1-usesym 2-fastsym
   LCORR  =      T    Harris-Foulkes like correction to forces

   POTIM  = 0.5000    time-step for ionic-motion
   TEIN   =    0.0    initial temperature
   TEBEG  =    0.0;   TEEND  =   0.0 temperature during run
   SMASS  =  -3.00    Nose mass-parameter (am)
   estimated Nose-frequenzy (Omega)   =  0.10E-29 period in steps = 0.13E+47 mass=  -0.347E-26a.u.
   SCALEE = 1.0000    scale energy and forces
   NPACO  =    256;   APACO  = 16.0  distance and # of slots for P.C.
   PSTRESS=    0.0 pullay stress

  Mass of Ions in am
   POMASS =  12.01 16.00
  Ionic Valenz
   ZVAL   =   4.00  6.00
  Atomic Wigner-Seitz radii
   RWIGS  =  -1.00 -1.00
  virtual crystal weights 
   VCA    =   1.00  1.00
   NELECT =     216.0000    total number of electrons
   NUPDOWN=      -1.0000    fix difference up-down

 DOS related values:
   EMIN   =  10.00;   EMAX   =-10.00  energy-range for DOS
   EFERMI =   0.00
   ISMEAR =     0;   SIGMA  =   0.01  broadening in eV -4-tet -1-fermi 0-gaus

 Electronic relaxation 2 (details)
   IALGO  =     58    algorithm
   LDIAG  =      T    sub-space diagonalisation (order eigenvalues)
   LSUBROT=      F    optimize rotation matrix (better conditioning)
   TURBO    =      0    0=normal 1=particle mesh
   IRESTART =      0    0=no restart 2=restart with 2 vectors
   NREBOOT  =      0    no. of reboots
   NMIN     =      0    reboot dimension
   EREF     =   0.00    reference energy to select bands
   IMIX   =      4    mixing-type and parameters
     AMIX     =   0.40;   BMIX     =  1.00
     AMIX_MAG =   1.60;   BMIX_MAG =  1.00
     AMIN     =   0.10
     WC   =   100.;   INIMIX=   1;  MIXPRE=   1;  MAXMIX= -45

 Intra band minimization:
   WEIMIN = 0.0000     energy-eigenvalue tresh-hold
   EBREAK =  0.15E-09  absolut break condition
   DEPER  =   0.30     relativ break condition  

   TIME   =   0.40     timestep for ELM

  volume/ion in A,a.u.               =      49.64       335.01
  Fermi-wavevector in a.u.,A,eV,Ry     =   0.711510  1.344560  6.887909  0.506247
  Thomas-Fermi vector in A             =   1.798641
 
 Write flags
   LWAVE        =      F    write WAVECAR
   LDOWNSAMPLE  =      F    k-point downsampling of WAVECAR
   LCHARG       =      T    write CHGCAR
   LVTOT        =      F    write LOCPOT, total local potential
   LVHAR        =      F    write LOCPOT, Hartree potential only
   LELF         =      F    write electronic localiz. function (ELF)
   LORBIT       =      0    0 simple, 1 ext, 2 COOP (PROOUT), +10 PAW based schemes


 Dipole corrections
   LMONO  =      F    monopole corrections only (constant potential shift)
   LDIPOL =      F    correct potential (dipole corrections)
   IDIPOL =      0    1-x, 2-y, 3-z, 4-all directions 
   EPSILON=  1.0000000 bulk dielectric constant

 Exchange correlation treatment:
   GGA     =    PE    GGA type
   LEXCH   =     8    internal setting for exchange type
   VOSKOWN=      0    Vosko Wilk Nusair interpolation
   LHFCALC =     F    Hartree Fock is set to
   LHFONE  =     F    Hartree Fock one center treatment
   AEXX    =    0.0000 exact exchange contribution

 Linear response parameters
   LEPSILON=     F    determine dielectric tensor
   LRPA    =     F    only Hartree local field effects (RPA)
   LNABLA  =     F    use nabla operator in PAW spheres
   LVEL    =     F    velocity operator in full k-point grid
   LINTERFAST=   F  fast interpolation
   KINTER  =     0    interpolate to denser k-point grid
   CSHIFT  =0.1000    complex shift for real part using Kramers Kronig
   OMEGAMAX=  -1.0    maximum frequency
   DEG_THRESHOLD= 0.2000000E-02 threshold for treating states as degnerate
   RTIME   =   -0.100 relaxation time in fs
  (WPLASMAI=    0.000 imaginary part of plasma frequency in eV, 0.658/RTIME)
   DFIELD  = 0.0000000 0.0000000 0.0000000 field for delta impulse in time
 
 Orbital magnetization related:
   ORBITALMAG=     F  switch on orbital magnetization
   LCHIMAG   =     F  perturbation theory with respect to B field
   DQ        =  0.001000  dq finite difference perturbation B field
   LLRAUG    =     F  two centre corrections for induced B field



--------------------------------------------------------------------------------------------------------


 Static calculation
 charge density and potential will be updated during run
 non-spin polarized calculation
 Conjugate gradient for all bands (Freysoldt, et al. PRB 79, 241103 (2009))
 preconditioned conjugated gradient                                        
 perform sub-space diagonalisation
    before iterative eigenvector-optimisation
 modified Broyden-mixing scheme, WC =      100.0
 initial mixing is a Kerker type mixing with AMIX =  0.4000 and BMIX =      1.0000
 Hartree-type preconditioning will be used
 using additional bands           60
 reciprocal scheme for non local part
 use partial core corrections
 no Harris-corrections to forces 
 use gradient corrections 
 use of overlap-Matrix (Vanderbilt PP)
 Gauss-broadening in eV      SIGMA  =   0.01


--------------------------------------------------------------------------------------------------------


  energy-cutoff  :     1000.00
  volume of cell :     2631.08
      direct lattice vectors                 reciprocal lattice vectors
    12.325000000  0.000000000  0.000000000     0.081135903  0.046843835  0.000000000
    -6.162500000 10.673763102  0.000000000     0.000000000  0.093687670  0.000000000
     0.000000000  0.000000000 20.000000000     0.000000000  0.000000000  0.050000000

  length of vectors
    12.325000000 12.325000000 20.000000000     0.093687670  0.093687670  0.050000000


 
 k-points in units of 2pi/SCALE and weight: auto                                    
   0.00000000  0.00000000  0.00000000       1.000
 
 k-points in reciprocal lattice and weights: auto                                    
   0.00000000  0.00000000  0.00000000       1.000
 
 position of ions in fractional coordinates (direct lattice) 
   0.97245084  0.00032082  0.00070839
   0.03911838  0.13365950  0.00055022
   0.17244363  0.00029545  0.00062454
   0.23909628  0.13364792  0.00032058
   0.97245206  0.20032201  0.00060652
   0.03912836  0.33364377  0.00055519
   0.17245176  0.20035455  0.00027396
   0.23912436  0.33366572  0.00009033
   0.37246557  0.00032440  0.00056739
   0.43913747  0.13361994  0.00032292
   0.97244982  0.40030936  0.00068451
   0.03912498  0.53363679  0.00071676
   0.37241618  0.40032948  0.00000000
   0.43909960  0.53363898  0.00029052
   0.57244368  0.00031213  0.00069947
   0.63911021  0.13363175  0.00068409
   0.97245270  0.60030565  0.00080036
   0.03912449  0.73364036  0.00081814
   0.57243347  0.60030624  0.00050362
   0.63911189  0.73364188  0.00065988
   0.17245463  0.40031823  0.00036131
   0.23912018  0.53363655  0.00047314
   0.37245975  0.20029599  0.00011125
   0.43910710  0.33367342  0.00006970
   0.17245216  0.60031151  0.00065542
   0.23912337  0.73363857  0.00071891
   0.57243108  0.20028917  0.00051662
   0.63911277  0.33361863  0.00057797
   0.37243981  0.60030802  0.00045356
   0.43911609  0.73363786  0.00061774
   0.57246936  0.40032050  0.00042490
   0.63911941  0.53365087  0.00057451
   0.77244572  0.00031543  0.00074520
   0.83911628  0.13364020  0.00071913
   0.77244051  0.20030743  0.00072629
   0.83912024  0.33363573  0.00073183
   0.77244632  0.40029837  0.00072872
   0.83911898  0.53363396  0.00077638
   0.77245614  0.60030817  0.00074464
   0.83911503  0.73364318  0.00078939
   0.97245531  0.80030558  0.00081529
   0.03911471  0.93364329  0.00074756
   0.17245797  0.80031221  0.00077922
   0.23913455  0.93364719  0.00068106
   0.37245140  0.80031667  0.00068925
   0.43912449  0.93364477  0.00067679
   0.57244110  0.80031005  0.00066817
   0.63911507  0.93363899  0.00073456
   0.77244510  0.80031319  0.00075258
   0.83911661  0.93364434  0.00075854
   0.37302101  0.25122688  0.14865089
   0.42087980  0.18931315  0.15187198
   0.32515698  0.31316719  0.14567815
 
 position of ions in cartesian coordinates  (Angst):
  11.98347958  0.00342433  0.01416777
  -0.34154264  1.42664989  0.01100432
   2.12354700  0.00315355  0.01249070
   2.12325634  1.42652621  0.00641170
  10.75098721  2.13818970  0.01213047
  -1.57382270  3.56123457  0.01110375
   0.89078307  2.13853702  0.00547917
   0.89099273  3.56146885  0.00180651
   4.58863896  0.00346260  0.01134782
   4.58893648  1.42622757  0.00645846
   9.51853763  4.27280730  0.01369027
  -2.80632132  5.69591267  0.01433526
   2.12299894  4.27302204  0.00000000
   2.12335237  5.69593607  0.00581036
   7.05344483  0.00333155  0.01398950
   7.05352764  1.42635365  0.01368187
   8.28609598  6.40752033  0.01600723
  -4.03884931  7.83070339  0.01636283
   3.35585531  6.40752662  0.01007237
   3.35598594  7.83071962  0.01319763
  -0.34145776  4.27290193  0.00722612
  -0.34137895  5.69591010  0.00946273
   3.35624236  2.13791198  0.00222492
   3.35573251  3.56155103  0.00139405
  -1.57394684  6.40758280  0.01310850
  -1.57385216  7.83068434  0.01437823
   5.82093107  2.13783916  0.01033241
   5.82114012  3.56096622  0.01155939
   0.89092245  6.40754561  0.00907111
   0.89106251  7.83067670  0.01235474
   4.58870974  4.27292622  0.00849795
   4.58852320  5.69606300  0.01149026
   9.51844972  0.00336679  0.01490402
   9.51855036  1.42644387  0.01438264
   8.28593477  2.13803408  0.01452582
   8.28612680  3.56114872  0.01463668
   7.05356221  4.27268994  0.01457444
   7.05362213  5.69588251  0.01552751
   5.82112285  6.40754723  0.01489279
   5.82101669  7.83073350  0.01578780
   7.05362858  8.54227219  0.01630582
  -5.27148792  9.96548729  0.01495127
  -2.80637951  8.54234295  0.01558431
  -2.80626749  9.96552896  0.01362126
  -0.34148805  8.54239058  0.01378498
  -0.34137657  9.96550309  0.01353576
   2.12342586  8.54231992  0.01336337
   2.12354296  9.96544135  0.01469111
   4.58845581  8.54235337  0.01505154
   4.58852904  9.96549848  0.01517076
   3.04929830  2.68153618  2.97301779
   4.02070129  2.02068374  3.03743965
   2.07766701  3.34267235  2.91356292
 


--------------------------------------------------------------------------------------------------------


 k-point   1 :   0.0000 0.0000 0.0000  plane waves:  189031

 maximum and minimum number of plane-waves per node :    189031   189031

 maximum number of plane-waves:    189031
 maximum index in each direction: 
   IXMAX=   31   IYMAX=   31   IZMAX=   51
   IXMIN=  -31   IYMIN=  -31   IZMIN=  -51


 serial   3D FFT for wavefunctions
 parallel 3D FFT for charge:
    minimum data exchange during FFTs selected (reduces bandwidth)


 total amount of memory used by VASP MPI-rank0   441788. kBytes
=======================================================================

   base      :      30000. kBytes
   nonl-proj :     184518. kBytes
   fftplans  :      31725. kBytes
   grid      :     168095. kBytes
   one-center:        162. kBytes
   wavefun   :      27288. kBytes
 
     INWAV:  cpu time    0.0000: real time    0.0000
 Broyden mixing: mesh for mixing (old mesh)
   NGX = 63   NGY = 63   NGZ =103
  (NGX  =256   NGY  =256   NGZ  =420)
  gives a total of 408807 points

 initial charge density was supplied:
 charge density of overlapping atoms calculated
 number of electron     216.0000000 magnetization 
 keeping initial charge density in first step


--------------------------------------------------------------------------------------------------------


 Maximum index for augmentation-charges          459 (set IRDMAX)


--------------------------------------------------------------------------------------------------------


 First call to EWALD:  gamma=   0.128
 Maximum number of real-space cells 3x 3x 2
 Maximum number of reciprocal cells 3x 3x 4

    FEWALD:  cpu time    0.0025: real time    0.0025


--------------------------------------- Iteration      1(   1)  ---------------------------------------


    POTLOK:  cpu time    0.5630: real time    0.5733
    SETDIJ:  cpu time    0.0110: real time    0.0113
    TRIAL :  cpu time   12.0105: real time   12.1483
    CORREC:  cpu time    0.0004: real time    0.0004
    --------------------------------------------
      LOOP:  cpu time   12.5944: real time   12.7547

 eigenvalue-minimisations  :   336
 total energy-change (2. order) : 0.2485476E+04  (-0.1173097E+05)
 number of electron     216.0000000 magnetization 
 augmentation part      216.0000000 magnetization 

 Free energy of the ion-electron system (eV)
  ---------------------------------------------------
  alpha Z        PSCENC =        59.93625244
  Ewald energy   TEWEN  =     34655.38404633
  -Hartree energ DENC   =    -40829.90294674
  -exchange      EXHF   =         0.00000000
  -V(xc)+E(xc)   XCENC  =       421.14100131
  PAW double counting   =      6525.96553977    -6260.36035765
  entropy T*S    EENTRO =        -0.00000000
  eigenvalues    EBANDS =      -456.21092514
  atomic energy  EATOM  =      8369.52358910
  ---------------------------------------------------
  free energy    TOTEN  =      2485.47619942 eV

  energy without entropy =     2485.47619942  energy(sigma->0) =     2485.47619942


--------------------------------------------------------------------------------------------------------




--------------------------------------- Iteration      1(   2)  ---------------------------------------


    TRIAL :  cpu time   18.0512: real time   18.2126
    CORREC:  cpu time    0.0001: real time    0.0001
    --------------------------------------------
      LOOP:  cpu time   18.0761: real time   18.2387

 eigenvalue-minimisations  :   560
 total energy-change (2. order) :-0.2399128E+04  (-0.2261993E+04)
 number of electron     216.0000000 magnetization 
 augmentation part      216.0000000 magnetization 

 Free energy of the ion-electron system (eV)
  ---------------------------------------------------
  alpha Z        PSCENC =        59.93625244
  Ewald energy   TEWEN  =     34655.38404633
  -Hartree energ DENC   =    -40829.90294674
  -exchange      EXHF   =         0.00000000
  -V(xc)+E(xc)   XCENC  =       421.14100131
  PAW double counting   =      6525.96553977    -6260.36035765
  entropy T*S    EENTRO =        -0.00000000
  eigenvalues    EBANDS =     -2855.33878348
  atomic energy  EATOM  =      8369.52358910
  ---------------------------------------------------
  free energy    TOTEN  =        86.34834109 eV

  energy without entropy =       86.34834109  energy(sigma->0) =       86.34834109


--------------------------------------------------------------------------------------------------------




--------------------------------------- Iteration      1(   3)  ---------------------------------------


    TRIAL :  cpu time   14.9811: real time   15.1302
    CORREC:  cpu time    0.0001: real time    0.0001
    --------------------------------------------
      LOOP:  cpu time   15.0182: real time   15.1848

 eigenvalue-minimisations  :   448
 total energy-change (2. order) :-0.5853518E+03  (-0.5829439E+03)
 number of electron     216.0000000 magnetization 
 augmentation part      216.0000000 magnetization 

 Free energy of the ion-electron system (eV)
  ---------------------------------------------------
  alpha Z        PSCENC =        59.93625244
  Ewald energy   TEWEN  =     34655.38404633
  -Hartree energ DENC   =    -40829.90294674
  -exchange      EXHF   =         0.00000000
  -V(xc)+E(xc)   XCENC  =       421.14100131
  PAW double counting   =      6525.96553977    -6260.36035765
  entropy T*S    EENTRO =        -0.00000000
  eigenvalues    EBANDS =     -3440.69054779
  atomic energy  EATOM  =      8369.52358910
  ---------------------------------------------------
  free energy    TOTEN  =      -499.00342323 eV

  energy without entropy =     -499.00342323  energy(sigma->0) =     -499.00342323


--------------------------------------------------------------------------------------------------------




--------------------------------------- Iteration      1(   4)  ---------------------------------------


    TRIAL :  cpu time   15.0419: real time   15.1816
    CORREC:  cpu time    0.0001: real time    0.0001
    --------------------------------------------
      LOOP:  cpu time   15.1285: real time   15.2712

 eigenvalue-minimisations  :   448
 total energy-change (2. order) :-0.1814051E+02  (-0.1805700E+02)
 number of electron     216.0000000 magnetization 
 augmentation part      216.0000000 magnetization 

 Free energy of the ion-electron system (eV)
  ---------------------------------------------------
  alpha Z        PSCENC =        59.93625244
  Ewald energy   TEWEN  =     34655.38404633
  -Hartree energ DENC   =    -40829.90294674
  -exchange      EXHF   =         0.00000000
  -V(xc)+E(xc)   XCENC  =       421.14100131
  PAW double counting   =      6525.96553977    -6260.36035765
  entropy T*S    EENTRO =        -0.00000000
  eigenvalues    EBANDS =     -3458.83105657
  atomic energy  EATOM  =      8369.52358910
  ---------------------------------------------------
  free energy    TOTEN  =      -517.14393200 eV

  energy without entropy =     -517.14393200  energy(sigma->0) =     -517.14393200


--------------------------------------------------------------------------------------------------------




--------------------------------------- Iteration      1(   5)  ---------------------------------------


    TRIAL :  cpu time   14.9773: real time   15.1288
    CORREC:  cpu time    0.0001: real time    0.0001
    CHARGE:  cpu time    0.6199: real time    0.6247
    --------------------------------------------
      LOOP:  cpu time   15.6287: real time   15.8133

 eigenvalue-minimisations  :   448
 total energy-change (2. order) :-0.6283351E+00  (-0.6266749E+00)
 number of electron     216.0000000 magnetization 
 augmentation part       -0.2726255 magnetization 

 Free energy of the ion-electron system (eV)
  ---------------------------------------------------
  alpha Z        PSCENC =        59.93625244
  Ewald energy   TEWEN  =     34655.38404633
  -Hartree energ DENC   =    -40829.90294674
  -exchange      EXHF   =         0.00000000
  -V(xc)+E(xc)   XCENC  =       421.14100131
  PAW double counting   =      6525.96553977    -6260.36035765
  entropy T*S    EENTRO =        -0.00000000
  eigenvalues    EBANDS =     -3459.45939166
  atomic energy  EATOM  =      8369.52358910
  ---------------------------------------------------
  free energy    TOTEN  =      -517.77226710 eV

  energy without entropy =     -517.77226710  energy(sigma->0) =     -517.77226710


--------------------------------------------------------------------------------------------------------




--------------------------------------- Iteration      1(   6)  ---------------------------------------


    POTLOK:  cpu time    0.5441: real time    0.5477
    SETDIJ:  cpu time    0.0097: real time    0.0097
    TRIAL :  cpu time    5.4002: real time    5.4436
    CORREC:  cpu time    1.7219: real time    1.7380
    CHARGE:  cpu time    0.6105: real time    0.6158
    --------------------------------------------
      LOOP:  cpu time    8.3440: real time    8.4170

 eigenvalue-minimisations  :     0
 total energy-change (2. order) : 0.5099343E+02  (-0.1526591E+02)
 number of electron     216.0000000 magnetization 
 augmentation part       -0.3738844 magnetization 

 Free energy of the ion-electron system (eV)
  ---------------------------------------------------
  alpha Z        PSCENC =        59.93625244
  Ewald energy   TEWEN  =     34655.38404633
  -Hartree energ DENC   =    -42240.23262820
  -exchange      EXHF   =         0.00000000
  -V(xc)+E(xc)   XCENC  =       468.96920758
  PAW double counting   =     90083.69639083   -89826.35388445
  entropy T*S    EENTRO =        -0.00000000
  eigenvalues    EBANDS =     -2037.70181016
  atomic energy  EATOM  =      8369.52358910
  ---------------------------------------------------
  free energy    TOTEN  =      -466.77883652 eV

  energy without entropy =     -466.77883652  energy(sigma->0) =     -466.77883652


--------------------------------------------------------------------------------------------------------




--------------------------------------- Iteration      1(   7)  ---------------------------------------


    POTLOK:  cpu time    0.5434: real time    0.5472
    SETDIJ:  cpu time    0.0105: real time    0.0106
    TRIAL :  cpu time    5.3982: real time    5.4409
    CORREC:  cpu time    1.7214: real time    1.7351
    CHARGE:  cpu time    0.6107: real time    0.6149
    --------------------------------------------
      LOOP:  cpu time    8.3346: real time    8.4128

 eigenvalue-minimisations  :     0
 total energy-change (2. order) :-0.1528926E+02  (-0.1784003E+01)
 number of electron     216.0000000 magnetization 
 augmentation part       -0.4213487 magnetization 

 Free energy of the ion-electron system (eV)
  ---------------------------------------------------
  alpha Z        PSCENC =        59.93625244
  Ewald energy   TEWEN  =     34655.38404633
  -Hartree energ DENC   =    -41749.91502389
  -exchange      EXHF   =         0.00000000
  -V(xc)+E(xc)   XCENC  =       452.48748639
  PAW double counting   =    106342.51523819  -106082.36334058
  entropy T*S    EENTRO =        -0.00000000
  eigenvalues    EBANDS =     -2529.63634925
  atomic energy  EATOM  =      8369.52358910
  ---------------------------------------------------
  free energy    TOTEN  =      -482.06810127 eV

  energy without entropy =     -482.06810127  energy(sigma->0) =     -482.06810127


--------------------------------------------------------------------------------------------------------




--------------------------------------- Iteration      1(   8)  ---------------------------------------


    POTLOK:  cpu time    0.5425: real time    0.5461
    SETDIJ:  cpu time    0.0106: real time    0.0106
    TRIAL :  cpu time    5.3843: real time    5.4285
    CORREC:  cpu time    1.7201: real time    1.7339
    CHARGE:  cpu time    0.6134: real time    0.6182
    --------------------------------------------
      LOOP:  cpu time    8.3302: real time    8.4239

 eigenvalue-minimisations  :     0
 total energy-change (2. order) :-0.1784862E+01  (-0.5070917E+00)
 number of electron     216.0000000 magnetization 
 augmentation part       -0.4349618 magnetization 

 Free energy of the ion-electron system (eV)
  ---------------------------------------------------
  alpha Z        PSCENC =        59.93625244
  Ewald energy   TEWEN  =     34655.38404633
  -Hartree energ DENC   =    -41727.15395615
  -exchange      EXHF   =         0.00000000
  -V(xc)+E(xc)   XCENC  =       451.85791777
  PAW double counting   =    110798.27992473  -110537.70889529
  entropy T*S    EENTRO =        -0.00000000
  eigenvalues    EBANDS =     -2553.97184188
  atomic energy  EATOM  =      8369.52358910
  ---------------------------------------------------
  free energy    TOTEN  =      -483.85296295 eV

  energy without entropy =     -483.85296295  energy(sigma->0) =     -483.85296295


--------------------------------------------------------------------------------------------------------




--------------------------------------- Iteration      1(   9)  ---------------------------------------


    POTLOK:  cpu time    0.5439: real time    0.5484
    SETDIJ:  cpu time    0.0102: real time    0.0102
    TRIAL :  cpu time    5.3843: real time    5.4374
    CORREC:  cpu time    1.7197: real time    1.7353
    CHARGE:  cpu time    0.6112: real time    0.6163
    --------------------------------------------
      LOOP:  cpu time    8.3142: real time    8.4166

 eigenvalue-minimisations  :     0
 total energy-change (2. order) :-0.5068984E+00  (-0.1871674E+00)
 number of electron     216.0000000 magnetization 
 augmentation part       -0.4399641 magnetization 

 Free energy of the ion-electron system (eV)
  ---------------------------------------------------
  alpha Z        PSCENC =        59.93625244
  Ewald energy   TEWEN  =     34655.38404633
  -Hartree energ DENC   =    -41737.79014992
  -exchange      EXHF   =         0.00000000
  -V(xc)+E(xc)   XCENC  =       451.90715469
  PAW double counting   =    113555.68975545  -113294.96058348
  entropy T*S    EENTRO =        -0.00000000
  eigenvalues    EBANDS =     -2544.04992602
  atomic energy  EATOM  =      8369.52358910
  ---------------------------------------------------
  free energy    TOTEN  =      -484.35986140 eV

  energy without entropy =     -484.35986140  energy(sigma->0) =     -484.35986140


--------------------------------------------------------------------------------------------------------




--------------------------------------- Iteration      1(  10)  ---------------------------------------


    POTLOK:  cpu time    0.5468: real time    0.5511
    SETDIJ:  cpu time    0.0108: real time    0.0109
    TRIAL :  cpu time    5.3966: real time    5.4484
    CORREC:  cpu time    1.7238: real time    1.7392
    CHARGE:  cpu time    0.6112: real time    0.6161
    --------------------------------------------
      LOOP:  cpu time    8.3177: real time    8.3959

 eigenvalue-minimisations  :     0
 total energy-change (2. order) :-0.1867455E+00  (-0.8233087E-01)
 number of electron     216.0000000 magnetization 
 augmentation part       -0.4391749 magnetization 

 Free energy of the ion-electron system (eV)
  ---------------------------------------------------
  alpha Z        PSCENC =        59.93625244
  Ewald energy   TEWEN  =     34655.38404633
  -Hartree energ DENC   =    -41735.27045724
  -exchange      EXHF   =         0.00000000
  -V(xc)+E(xc)   XCENC  =       451.76406956
  PAW double counting   =    113857.13480015  -113596.32565892
  entropy T*S    EENTRO =        -0.00000000
  eigenvalues    EBANDS =     -2546.69324836
  atomic energy  EATOM  =      8369.52358910
  ---------------------------------------------------
  free energy    TOTEN  =      -484.54660694 eV

  energy without entropy =     -484.54660694  energy(sigma->0) =     -484.54660694


--------------------------------------------------------------------------------------------------------




--------------------------------------- Iteration      1(  11)  ---------------------------------------


    POTLOK:  cpu time    0.5445: real time    0.5490
    SETDIJ:  cpu time    0.0106: real time    0.0107
    TRIAL :  cpu time    5.3929: real time    5.4415
    CORREC:  cpu time    1.7352: real time    1.7489
    CHARGE:  cpu time    0.6128: real time    0.6171
    --------------------------------------------
      LOOP:  cpu time    8.3585: real time    8.4366

 eigenvalue-minimisations  :     0
 total energy-change (2. order) :-0.8191717E-01  (-0.3093348E-01)
 number of electron     216.0000000 magnetization 
 augmentation part       -0.4375509 magnetization 

 Free energy of the ion-electron system (eV)
  ---------------------------------------------------
  alpha Z        PSCENC =        59.93625244
  Ewald energy   TEWEN  =     34655.38404633
  -Hartree energ DENC   =    -41728.09842010
  -exchange      EXHF   =         0.00000000
  -V(xc)+E(xc)   XCENC  =       451.63603432
  PAW double counting   =    113133.90404376  -112873.10271367
  entropy T*S    EENTRO =        -0.00000000
  eigenvalues    EBANDS =     -2553.81135629
  atomic energy  EATOM  =      8369.52358910
  ---------------------------------------------------
  free energy    TOTEN  =      -484.62852411 eV

  energy without entropy =     -484.62852411  energy(sigma->0) =     -484.62852411


--------------------------------------------------------------------------------------------------------




--------------------------------------- Iteration      1(  12)  ---------------------------------------


    POTLOK:  cpu time    0.5410: real time    0.5447
    SETDIJ:  cpu time    0.0106: real time    0.0106
    TRIAL :  cpu time    5.3964: real time    5.4401
    CORREC:  cpu time    1.7159: real time    1.7300
    CHARGE:  cpu time    0.6098: real time    0.6142
    --------------------------------------------
      LOOP:  cpu time    8.3658: real time    8.4824

 eigenvalue-minimisations  :     0
 total energy-change (2. order) :-0.3084705E-01  (-0.9472912E-02)
 number of electron     216.0000000 magnetization 
 augmentation part       -0.4372365 magnetization 

 Free energy of the ion-electron system (eV)
  ---------------------------------------------------
  alpha Z        PSCENC =        59.93625244
  Ewald energy   TEWEN  =     34655.38404633
  -Hartree energ DENC   =    -41724.46513877
  -exchange      EXHF   =         0.00000000
  -V(xc)+E(xc)   XCENC  =       451.57113245
  PAW double counting   =    112648.01907274  -112387.24642957
  entropy T*S    EENTRO =        -0.00000000
  eigenvalues    EBANDS =     -2557.38189588
  atomic energy  EATOM  =      8369.52358910
  ---------------------------------------------------
  free energy    TOTEN  =      -484.65937116 eV

  energy without entropy =     -484.65937116  energy(sigma->0) =     -484.65937116


--------------------------------------------------------------------------------------------------------




--------------------------------------- Iteration      1(  13)  ---------------------------------------


    POTLOK:  cpu time    0.5383: real time    0.5419
    SETDIJ:  cpu time    0.0105: real time    0.0105
    TRIAL :  cpu time    5.3936: real time    5.4367
    CORREC:  cpu time    1.7140: real time    1.7270
    CHARGE:  cpu time    0.6224: real time    0.6275
    --------------------------------------------
      LOOP:  cpu time    8.3511: real time    8.4275

 eigenvalue-minimisations  :     0
 total energy-change (2. order) :-0.9463481E-02  (-0.2512494E-02)
 number of electron     216.0000000 magnetization 
 augmentation part       -0.4369737 magnetization 

 Free energy of the ion-electron system (eV)
  ---------------------------------------------------
  alpha Z        PSCENC =        59.93625244
  Ewald energy   TEWEN  =     34655.38404633
  -Hartree energ DENC   =    -41723.56522866
  -exchange      EXHF   =         0.00000000
  -V(xc)+E(xc)   XCENC  =       451.54218334
  PAW double counting   =    112517.09202868  -112256.32979001
  entropy T*S    EENTRO =        -0.00000000
  eigenvalues    EBANDS =     -2558.25191587
  atomic energy  EATOM  =      8369.52358910
  ---------------------------------------------------
  free energy    TOTEN  =      -484.66883464 eV

  energy without entropy =     -484.66883464  energy(sigma->0) =     -484.66883464


--------------------------------------------------------------------------------------------------------




--------------------------------------- Iteration      1(  14)  ---------------------------------------


    POTLOK:  cpu time    0.5420: real time    0.5456
    SETDIJ:  cpu time    0.0107: real time    0.0108
    TRIAL :  cpu time    5.3904: real time    5.4359
    CORREC:  cpu time    1.7178: real time    1.7311
    CHARGE:  cpu time    0.6115: real time    0.6161
    --------------------------------------------
      LOOP:  cpu time    8.3136: real time    8.3813

 eigenvalue-minimisations  :     0
 total energy-change (2. order) :-0.2512217E-02  (-0.6302820E-03)
 number of electron     216.0000000 magnetization 
 augmentation part       -0.4367157 magnetization 

 Free energy of the ion-electron system (eV)
  ---------------------------------------------------
  alpha Z        PSCENC =        59.93625244
  Ewald energy   TEWEN  =     34655.38404633
  -Hartree energ DENC   =    -41723.42651379
  -exchange      EXHF   =         0.00000000
  -V(xc)+E(xc)   XCENC  =       451.53755357
  PAW double counting   =    112542.62054967  -112281.86089529
  entropy T*S    EENTRO =        -0.00000000
  eigenvalues    EBANDS =     -2558.38592888
  atomic energy  EATOM  =      8369.52358910
  ---------------------------------------------------
  free energy    TOTEN  =      -484.67134686 eV

  energy without entropy =     -484.67134686  energy(sigma->0) =     -484.67134686


--------------------------------------------------------------------------------------------------------




--------------------------------------- Iteration      1(  15)  ---------------------------------------


    POTLOK:  cpu time    0.5390: real time    0.5431
    SETDIJ:  cpu time    0.0102: real time    0.0102
    TRIAL :  cpu time    5.3888: real time    5.4415
    CORREC:  cpu time    1.7160: real time    1.7288
    CHARGE:  cpu time    0.6130: real time    0.6173
    --------------------------------------------
      LOOP:  cpu time    8.3084: real time    8.4021

 eigenvalue-minimisations  :     0
 total energy-change (2. order) :-0.6311562E-03  (-0.1852555E-03)
 number of electron     216.0000000 magnetization 
 augmentation part       -0.4365187 magnetization 

 Free energy of the ion-electron system (eV)
  ---------------------------------------------------
  alpha Z        PSCENC =        59.93625244
  Ewald energy   TEWEN  =     34655.38404633
  -Hartree energ DENC   =    -41723.28121240
  -exchange      EXHF   =         0.00000000
  -V(xc)+E(xc)   XCENC  =       451.53331642
  PAW double counting   =    112571.46512616  -112310.70530361
  entropy T*S    EENTRO =        -0.00000000
  eigenvalues    EBANDS =     -2558.52779245
  atomic energy  EATOM  =      8369.52358910
  ---------------------------------------------------
  free energy    TOTEN  =      -484.67197801 eV

  energy without entropy =     -484.67197801  energy(sigma->0) =     -484.67197801


--------------------------------------------------------------------------------------------------------




--------------------------------------- Iteration      1(  16)  ---------------------------------------


    POTLOK:  cpu time    0.5352: real time    0.5388
    SETDIJ:  cpu time    0.0103: real time    0.0104
    TRIAL :  cpu time    5.4012: real time    5.4443
    CORREC:  cpu time    1.7152: real time    1.7282
    CHARGE:  cpu time    0.6144: real time    0.6187
    --------------------------------------------
      LOOP:  cpu time    8.3356: real time    8.4364

 eigenvalue-minimisations  :     0
 total energy-change (2. order) :-0.1861289E-03  (-0.5876527E-04)
 number of electron     216.0000000 magnetization 
 augmentation part       -0.4363675 magnetization 

 Free energy of the ion-electron system (eV)
  ---------------------------------------------------
  alpha Z        PSCENC =        59.93625244
  Ewald energy   TEWEN  =     34655.38404633
  -Hartree energ DENC   =    -41723.32812428
  -exchange      EXHF   =         0.00000000
  -V(xc)+E(xc)   XCENC  =       451.53338921
  PAW double counting   =    112565.05378505  -112304.29377370
  entropy T*S    EENTRO =        -0.00000000
  eigenvalues    EBANDS =     -2558.48132829
  atomic energy  EATOM  =      8369.52358910
  ---------------------------------------------------
  free energy    TOTEN  =      -484.67216414 eV

  energy without entropy =     -484.67216414  energy(sigma->0) =     -484.67216414


--------------------------------------------------------------------------------------------------------




--------------------------------------- Iteration      1(  17)  ---------------------------------------


    POTLOK:  cpu time    0.5374: real time    0.5410
    SETDIJ:  cpu time    0.0105: real time    0.0105
    TRIAL :  cpu time    5.3953: real time    5.4401
    CORREC:  cpu time    1.7116: real time    1.7245
    CHARGE:  cpu time    0.6122: real time    0.6165
    --------------------------------------------
      LOOP:  cpu time    8.3252: real time    8.4061

 eigenvalue-minimisations  :     0
 total energy-change (2. order) :-0.5926409E-04  (-0.2045931E-04)
 number of electron     216.0000000 magnetization 
 augmentation part       -0.4363398 magnetization 

 Free energy of the ion-electron system (eV)
  ---------------------------------------------------
  alpha Z        PSCENC =        59.93625244
  Ewald energy   TEWEN  =     34655.38404633
  -Hartree energ DENC   =    -41723.50268943
  -exchange      EXHF   =         0.00000000
  -V(xc)+E(xc)   XCENC  =       451.53846856
  PAW double counting   =    112548.50354869  -112287.74404853
  entropy T*S    EENTRO =        -0.00000000
  eigenvalues    EBANDS =     -2558.31139057
  atomic energy  EATOM  =      8369.52358910
  ---------------------------------------------------
  free energy    TOTEN  =      -484.67222340 eV

  energy without entropy =     -484.67222340  energy(sigma->0) =     -484.67222340


--------------------------------------------------------------------------------------------------------




--------------------------------------- Iteration      1(  18)  ---------------------------------------


    POTLOK:  cpu time    0.5366: real time    0.5399
    SETDIJ:  cpu time    0.0105: real time    0.0105
    TRIAL :  cpu time    5.3920: real time    5.4351
    CORREC:  cpu time    1.7136: real time    1.7268
    CHARGE:  cpu time    0.6101: real time    0.6142
    --------------------------------------------
      LOOP:  cpu time    8.3666: real time    8.4340

 eigenvalue-minimisations  :     0
 total energy-change (2. order) :-0.2070563E-04  (-0.7106954E-05)
 number of electron     216.0000000 magnetization 
 augmentation part       -0.4363638 magnetization 

 Free energy of the ion-electron system (eV)
  ---------------------------------------------------
  alpha Z        PSCENC =        59.93625244
  Ewald energy   TEWEN  =     34655.38404633
  -Hartree energ DENC   =    -41723.54295349
  -exchange      EXHF   =         0.00000000
  -V(xc)+E(xc)   XCENC  =       451.53895159
  PAW double counting   =    112544.12778680  -112283.36803070
  entropy T*S    EENTRO =        -0.00000000
  eigenvalues    EBANDS =     -2558.27188618
  atomic energy  EATOM  =      8369.52358910
  ---------------------------------------------------
  free energy    TOTEN  =      -484.67224411 eV

  energy without entropy =     -484.67224411  energy(sigma->0) =     -484.67224411


--------------------------------------------------------------------------------------------------------




--------------------------------------- Iteration      1(  19)  ---------------------------------------


    POTLOK:  cpu time    0.5364: real time    0.5400
    SETDIJ:  cpu time    0.0105: real time    0.0106
    TRIAL :  cpu time    5.3940: real time    5.4385
    CORREC:  cpu time    1.7139: real time    1.7270
    CHARGE:  cpu time    0.6104: real time    0.6146
    --------------------------------------------
      LOOP:  cpu time    8.3264: real time    8.3941

 eigenvalue-minimisations  :     0
 total energy-change (2. order) :-0.7047245E-05  (-0.2646284E-05)
 number of electron     216.0000000 magnetization 
 augmentation part       -0.4363918 magnetization 

 Free energy of the ion-electron system (eV)
  ---------------------------------------------------
  alpha Z        PSCENC =        59.93625244
  Ewald energy   TEWEN  =     34655.38404633
  -Hartree energ DENC   =    -41723.56132483
  -exchange      EXHF   =         0.00000000
  -V(xc)+E(xc)   XCENC  =       451.53930407
  PAW double counting   =    112548.65332700  -112287.89333456
  entropy T*S    EENTRO =        -0.00000000
  eigenvalues    EBANDS =     -2558.25411071
  atomic energy  EATOM  =      8369.52358910
  ---------------------------------------------------
  free energy    TOTEN  =      -484.67225116 eV

  energy without entropy =     -484.67225116  energy(sigma->0) =     -484.67225116


--------------------------------------------------------------------------------------------------------




--------------------------------------- Iteration      1(  20)  ---------------------------------------


    POTLOK:  cpu time    0.5344: real time    0.5380
    SETDIJ:  cpu time    0.0103: real time    0.0103
    TRIAL :  cpu time    5.3929: real time    5.4368
    CORREC:  cpu time    1.7125: real time    1.7257
    CHARGE:  cpu time    0.6123: real time    0.6173
    --------------------------------------------
      LOOP:  cpu time    8.3636: real time    8.4313

 eigenvalue-minimisations  :     0
 total energy-change (2. order) :-0.2407978E-05  (-0.9424798E-06)
 number of electron     216.0000000 magnetization 
 augmentation part       -0.4364142 magnetization 

 Free energy of the ion-electron system (eV)
  ---------------------------------------------------
  alpha Z        PSCENC =        59.93625244
  Ewald energy   TEWEN  =     34655.38404633
  -Hartree energ DENC   =    -41723.58948195
  -exchange      EXHF   =         0.00000000
  -V(xc)+E(xc)   XCENC  =       451.54011993
  PAW double counting   =    112553.57666007  -112292.81660792
  entropy T*S    EENTRO =        -0.00000000
  eigenvalues    EBANDS =     -2558.22683156
  atomic energy  EATOM  =      8369.52358910
  ---------------------------------------------------
  free energy    TOTEN  =      -484.67225357 eV

  energy without entropy =     -484.67225357  energy(sigma->0) =     -484.67225357


--------------------------------------------------------------------------------------------------------




--------------------------------------- Iteration      1(  21)  ---------------------------------------


    POTLOK:  cpu time    0.5336: real time    0.5374
    SETDIJ:  cpu time    0.0106: real time    0.0106
    TRIAL :  cpu time    5.3883: real time    5.4348
    CORREC:  cpu time    1.7141: real time    1.7273
    CHARGE:  cpu time    0.6142: real time    0.6185
    --------------------------------------------
      LOOP:  cpu time    8.2975: real time    8.4340

 eigenvalue-minimisations  :     0
 total energy-change (2. order) :-0.7528870E-06  (-0.4241273E-06)
 number of electron     216.0000000 magnetization 
 augmentation part       -0.4364134 magnetization 

 Free energy of the ion-electron system (eV)
  ---------------------------------------------------
  alpha Z        PSCENC =        59.93625244
  Ewald energy   TEWEN  =     34655.38404633
  -Hartree energ DENC   =    -41723.58744561
  -exchange      EXHF   =         0.00000000
  -V(xc)+E(xc)   XCENC  =       451.53981596
  PAW double counting   =    112555.29963086  -112294.53948271
  entropy T*S    EENTRO =        -0.00000000
  eigenvalues    EBANDS =     -2558.22866068
  atomic energy  EATOM  =      8369.52358910
  ---------------------------------------------------
  free energy    TOTEN  =      -484.67225432 eV

  energy without entropy =     -484.67225432  energy(sigma->0) =     -484.67225432


--------------------------------------------------------------------------------------------------------




--------------------------------------- Iteration      1(  22)  ---------------------------------------


    POTLOK:  cpu time    0.5369: real time    0.5431
    SETDIJ:  cpu time    0.0105: real time    0.0105
    TRIAL :  cpu time    5.3885: real time    5.4327
    CORREC:  cpu time    1.7096: real time    1.7228
    CHARGE:  cpu time    0.6119: real time    0.6161
    --------------------------------------------
      LOOP:  cpu time    8.3072: real time    8.3842

 eigenvalue-minimisations  :     0
 total energy-change (2. order) :-0.3171299E-06  (-0.2089126E-06)
 number of electron     216.0000000 magnetization 
 augmentation part       -0.4364116 magnetization 

 Free energy of the ion-electron system (eV)
  ---------------------------------------------------
  alpha Z        PSCENC =        59.93625244
  Ewald energy   TEWEN  =     34655.38404633
  -Hartree energ DENC   =    -41723.58973942
  -exchange      EXHF   =         0.00000000
  -V(xc)+E(xc)   XCENC  =       451.53999715
  PAW double counting   =    112554.62504296  -112293.86497602
  entropy T*S    EENTRO =        -0.00000000
  eigenvalues    EBANDS =     -2558.22646718
  atomic energy  EATOM  =      8369.52358910
  ---------------------------------------------------
  free energy    TOTEN  =      -484.67225464 eV

  energy without entropy =     -484.67225464  energy(sigma->0) =     -484.67225464


--------------------------------------------------------------------------------------------------------




--------------------------------------- Iteration      1(  23)  ---------------------------------------


    POTLOK:  cpu time    0.5323: real time    0.5360
    SETDIJ:  cpu time    0.0101: real time    0.0101
    TRIAL :  cpu time    5.3946: real time    5.4384
    CORREC:  cpu time    1.7115: real time    1.7250
    CHARGE:  cpu time    0.6088: real time    0.6131
    --------------------------------------------
      LOOP:  cpu time    8.2878: real time    8.3885

 eigenvalue-minimisations  :     0
 total energy-change (2. order) :-0.1717417E-06  (-0.1357056E-06)
 number of electron     216.0000000 magnetization 
 augmentation part       -0.4364104 magnetization 

 Free energy of the ion-electron system (eV)
  ---------------------------------------------------
  alpha Z        PSCENC =        59.93625244
  Ewald energy   TEWEN  =     34655.38404633
  -Hartree energ DENC   =    -41723.58411058
  -exchange      EXHF   =         0.00000000
  -V(xc)+E(xc)   XCENC  =       451.53984598
  PAW double counting   =    112553.54401298  -112292.78396708
  entropy T*S    EENTRO =        -0.00000000
  eigenvalues    EBANDS =     -2558.23192397
  atomic energy  EATOM  =      8369.52358910
  ---------------------------------------------------
  free energy    TOTEN  =      -484.67225481 eV

  energy without entropy =     -484.67225481  energy(sigma->0) =     -484.67225481


--------------------------------------------------------------------------------------------------------




--------------------------------------- Iteration      1(  24)  ---------------------------------------


    POTLOK:  cpu time    0.5362: real time    0.5399
    SETDIJ:  cpu time    0.0105: real time    0.0105
    TRIAL :  cpu time    5.3860: real time    5.4379
    CORREC:  cpu time    1.7136: real time    1.7276
    CHARGE:  cpu time    0.6132: real time    0.6176
    --------------------------------------------
      LOOP:  cpu time    8.3377: real time    8.4173

 eigenvalue-minimisations  :     0
 total energy-change (2. order) :-0.9183714E-07  (-0.1273094E-06)
 number of electron     216.0000000 magnetization 
 augmentation part       -0.4364050 magnetization 

 Free energy of the ion-electron system (eV)
  ---------------------------------------------------
  alpha Z        PSCENC =        59.93625244
  Ewald energy   TEWEN  =     34655.38404633
  -Hartree energ DENC   =    -41723.57778668
  -exchange      EXHF   =         0.00000000
  -V(xc)+E(xc)   XCENC  =       451.53965235
  PAW double counting   =    112552.68188202  -112291.92182831
  entropy T*S    EENTRO =        -0.00000000
  eigenvalues    EBANDS =     -2558.23806215
  atomic energy  EATOM  =      8369.52358910
  ---------------------------------------------------
  free energy    TOTEN  =      -484.67225490 eV

  energy without entropy =     -484.67225490  energy(sigma->0) =     -484.67225490


--------------------------------------------------------------------------------------------------------




--------------------------------------- Iteration      1(  25)  ---------------------------------------


    POTLOK:  cpu time    0.5352: real time    0.5388
    SETDIJ:  cpu time    0.0107: real time    0.0107
    TRIAL :  cpu time    5.3914: real time    5.4357
    CORREC:  cpu time    1.7117: real time    1.7259
    CHARGE:  cpu time    0.6142: real time    0.6186
    --------------------------------------------
      LOOP:  cpu time    8.3513: real time    8.4318

 eigenvalue-minimisations  :     0
 total energy-change (2. order) : 0.1309818E-06  (-0.1614197E-06)
 number of electron     216.0000000 magnetization 
 augmentation part       -0.4364097 magnetization 

 Free energy of the ion-electron system (eV)
  ---------------------------------------------------
  alpha Z        PSCENC =        59.93625244
  Ewald energy   TEWEN  =     34655.38404633
  -Hartree energ DENC   =    -41723.57993996
  -exchange      EXHF   =         0.00000000
  -V(xc)+E(xc)   XCENC  =       451.53993180
  PAW double counting   =    112552.03235389  -112291.27235272
  entropy T*S    EENTRO =        -0.00000000
  eigenvalues    EBANDS =     -2558.23613564
  atomic energy  EATOM  =      8369.52358910
  ---------------------------------------------------
  free energy    TOTEN  =      -484.67225477 eV

  energy without entropy =     -484.67225477  energy(sigma->0) =     -484.67225477


--------------------------------------------------------------------------------------------------------




--------------------------------------- Iteration      1(  26)  ---------------------------------------


    POTLOK:  cpu time    0.5498: real time    0.5542
    SETDIJ:  cpu time    0.0102: real time    0.0103
    TRIAL :  cpu time    5.3883: real time    5.4317
    CORREC:  cpu time    1.6097: real time    1.6220
    CHARGE:  cpu time    0.6128: real time    0.6170
    --------------------------------------------
      LOOP:  cpu time    8.1981: real time    8.2657

 eigenvalue-minimisations  :     0
 total energy-change (2. order) :-0.1452281E-06  ( 0.4189769E-06)
 number of electron     216.0000000 magnetization 
 augmentation part       -0.4364093 magnetization 

 Free energy of the ion-electron system (eV)
  ---------------------------------------------------
  alpha Z        PSCENC =        59.93625244
  Ewald energy   TEWEN  =     34655.38404633
  -Hartree energ DENC   =    -41723.57410438
  -exchange      EXHF   =         0.00000000
  -V(xc)+E(xc)   XCENC  =       451.53960099
  PAW double counting   =    112552.15890740  -112291.39884139
  entropy T*S    EENTRO =        -0.00000000
  eigenvalues    EBANDS =     -2558.24170541
  atomic energy  EATOM  =      8369.52358910
  ---------------------------------------------------
  free energy    TOTEN  =      -484.67225491 eV

  energy without entropy =     -484.67225491  energy(sigma->0) =     -484.67225491


--------------------------------------------------------------------------------------------------------




--------------------------------------- Iteration      1(  27)  ---------------------------------------


    POTLOK:  cpu time    0.5378: real time    0.5415
    SETDIJ:  cpu time    0.0105: real time    0.0105
    TRIAL :  cpu time    5.3894: real time    5.4333
    CORREC:  cpu time    1.6128: real time    1.6248
    EDDIAG:  cpu time    0.8550: real time    0.8621
    CHARGE:  cpu time    0.6167: real time    0.6208
    --------------------------------------------
      LOOP:  cpu time    9.1163: real time    9.1900

 eigenvalue-minimisations  :     0
 total energy-change (2. order) :-0.3137393E-07  ( 0.2278181E-08)
 number of electron     216.0000000 magnetization 
 augmentation part       -0.4364091 magnetization 

 Free energy of the ion-electron system (eV)
  ---------------------------------------------------
  alpha Z        PSCENC =        59.93625244
  Ewald energy   TEWEN  =     34655.38404633
  -Hartree energ DENC   =    -41723.57601632
  -exchange      EXHF   =         0.00000000
  -V(xc)+E(xc)   XCENC  =       451.53966662
  PAW double counting   =    112552.30518492  -112291.54512647
  entropy T*S    EENTRO =        -0.00000000
  eigenvalues    EBANDS =     -2558.23985157
  atomic energy  EATOM  =      8369.52358910
  ---------------------------------------------------
  free energy    TOTEN  =      -484.67225495 eV

  energy without entropy =     -484.67225495  energy(sigma->0) =     -484.67225495


--------------------------------------------------------------------------------------------------------


  average scaling for gradient   0.8132


 average (electrostatic) potential at core
  the test charge radii are     0.5770  0.5955
  (the norm of the test charge is              1.0000)
       1 -85.3023       2 -85.2962       3 -85.3088       4 -85.3174       5 -85.2933
       6 -85.2895       7 -85.3017       8 -85.2826       9 -85.2914      10 -85.2939
      11 -85.2930      12 -85.2984      13 -85.2919      14 -85.2894      15 -85.2906
      16 -85.2895      17 -85.2963      18 -85.2980      19 -85.3011      20 -85.2963
      21 -85.2835      22 -85.2871      23 -85.3166      24 -85.3134      25 -85.2922
      26 -85.2944      27 -85.2921      28 -85.3052      29 -85.2889      30 -85.2920
      31 -85.3145      32 -85.3039      33 -85.2998      34 -85.2941      35 -85.2918
      36 -85.2951      37 -85.2969      38 -85.3001      39 -85.3001      40 -85.2978
      41 -85.2988      42 -85.3020      43 -85.2955      44 -85.3019      45 -85.2913
      46 -85.2896      47 -85.2972      48 -85.2941      49 -85.2991      50 -85.2972
      51 -89.1519      52-119.9189      53-119.9232
 
 
 
 E-fermi :  -3.9427     XC(G=0):  -2.3262     alpha+bet : -2.1113

 Fermi energy:        -3.9427006862

 k-point     1 :       0.0000    0.0000    0.0000
  band No.  band energies     occupation 
      1     -27.2594      2.00000
      2     -26.2515      2.00000
      3     -22.0479      2.00000
      4     -21.1198      2.00000
      5     -21.1117      2.00000
      6     -21.1051      2.00000
      7     -21.1047      2.00000
      8     -21.1019      2.00000
[...]
     30     C        0.00055315
     31     C       -0.00271705
     32     C       -0.00094472
     33     C        0.00062844
     34     C        0.00040718
     35     C        0.00052187
     36     C        0.00049952
     37     C        0.00003675
     38     C        0.00009722
     39     C       -0.00025093
     40     C       -0.00015448
     41     C       -0.00012274
     42     C       -0.00051261
     43     C        0.00017687
     44     C        0.00003757
     45     C        0.00058351
     46     C        0.00095643
     47     C        0.00059131
     48     C        0.00044435
     49     C        0.00010297
     50     C       -0.00000420
     51     C        0.28996846
     52     O       -0.13636661
     53     O       -0.13283335

  Atomic reference data used in the T-S method for vdW correction:
            C6at              R0at           ALPHAat      REFSTATE
            (au)              (au)            (au)                
   ---------------------------------------------------------------
   C          46.600          3.590         12.000         0
   O          15.600          3.194          5.400         0
 
 Nth order contribution to Edisp (eV)
 Edisp(N=2):  -4.61065661434216     
 Edisp(N=3):  0.327081979139907     
 Edisp(N=4): -0.476619227240242     
 Edisp(N=5):  0.202219139450278     
 Edisp(N=6): -0.190667900088571     
 Edisp(N=inf):  -4.67834060172914     

  Tkatchenko/Scheffler method for vdW energy calculation
  ---------------------------------------------------------------------------------------------

  Parameters of vdW forcefield:
            C6ts              R0ts          ALPHAts         R0scs        ALPHAscs        RELVOL 
            (au)              (au)           (au)            (au)          (au)                 
   ---------------------------------------------------------------------------------------------
   C          32.950          3.389         10.091          3.265          9.026          0.841
   C          33.079          3.391         10.110          3.267          9.042          0.843
   C          33.220          3.394         10.132          3.273          9.087          0.844
   C          33.761          3.403         10.214          3.267          9.044          0.851
   C          32.941          3.389         10.089          3.266          9.029          0.841
   C          32.943          3.389         10.089          3.266          9.029          0.841
   C          33.640          3.401         10.196          3.274          9.101          0.850
   C          33.801          3.403         10.220          3.277          9.124          0.852
   C          33.341          3.396         10.150          3.273          9.092          0.846
   C          33.921          3.405         10.238          3.263          9.007          0.853
   C          32.879          3.388         10.080          3.267          9.042          0.840
   C          32.873          3.388         10.079          3.268          9.047          0.840
   C          33.972          3.406         10.246          3.267          9.040          0.854
   C          33.275          3.394         10.140          3.271          9.075          0.845
   C          32.931          3.389         10.088          3.263          9.007          0.841
   C          33.017          3.390         10.101          3.265          9.022          0.842
   C          32.885          3.388         10.081          3.268          9.049          0.840
   C          32.898          3.388         10.083          3.265          9.024          0.840
   C          33.044          3.391         10.105          3.270          9.068          0.842
   C          32.907          3.388         10.084          3.264          9.014          0.840
   C          33.138          3.392         10.119          3.264          9.012          0.843
   C          32.968          3.389         10.093          3.264          9.017          0.841
   C          34.241          3.411         10.286          3.257          8.957          0.857
   C          34.084          3.408         10.263          3.257          8.955          0.855
   C          32.878          3.388         10.079          3.267          9.037          0.840
   C          32.883          3.388         10.080          3.264          9.016          0.840
   C          33.474          3.398         10.171          3.275          9.110          0.848
   C          33.303          3.395         10.144          3.277          9.125          0.845
   C          32.997          3.390         10.098          3.268          9.044          0.841
   C          32.887          3.388         10.081          3.267          9.037          0.840
   C          33.440          3.397         10.165          3.273          9.089          0.847
   C          33.068          3.391         10.109          3.271          9.075          0.842
   C          32.876          3.388         10.079          3.267          9.039          0.840
   C          32.881          3.388         10.080          3.267          9.041          0.840
   C          32.900          3.388         10.083          3.266          9.028          0.840
   C          32.897          3.388         10.082          3.264          9.016          0.840
   C          32.966          3.389         10.093          3.264          9.014          0.841
   C          32.912          3.388         10.085          3.263          9.009          0.840
   C          32.930          3.389         10.088          3.265          9.020          0.841
   C          32.903          3.388         10.083          3.267          9.043          0.840
   C          32.910          3.388         10.084          3.266          9.033          0.840
   C          32.973          3.389         10.094          3.267          9.036          0.841
   C          32.925          3.389         10.087          3.263          9.010          0.841
   C          33.148          3.392         10.121          3.274          9.094          0.843
   C          32.887          3.388         10.081          3.266          9.033          0.840
   C          32.984          3.390         10.096          3.266          9.034          0.841
   C          32.880          3.388         10.080          3.265          9.021          0.840
   C          32.874          3.388         10.079          3.267          9.040          0.840
   C          32.896          3.388         10.082          3.266          9.034          0.840
   C          32.893          3.388         10.082          3.266          9.036          0.840
   C          28.253          3.303          9.344          3.190          8.419          0.779
   O          12.320          3.070          4.799          2.977          4.374          0.889
   O          12.277          3.069          4.791          2.970          4.343          0.887

  vdW correction parametrized for the method pbe       

  IVDW = 202
  VDW_RADIUS =    50.000 A
  VDW_SR =     0.830
  VDW_D =     6.000
  SCSRAD =   120.000 A
  LVDWSCS = T
  LSCSGRAD = T
  LSCALER0 = T
  ITIM = -1
  Edisp (eV):   -4.67834
    FORVDW:  cpu time   17.8139: real time   17.9200

 VOLUME and BASIS-vectors are now :
 -----------------------------------------------------------------------------
  energy-cutoff  :     1000.00
  volume of cell :     2631.08
      direct lattice vectors                 reciprocal lattice vectors
    12.325000000  0.000000000  0.000000000     0.081135903  0.046843835  0.000000000
    -6.162500000 10.673763102  0.000000000     0.000000000  0.093687670  0.000000000
     0.000000000  0.000000000 20.000000000     0.000000000  0.000000000  0.050000000

  length of vectors
    12.325000000 12.325000000 20.000000000     0.093687670  0.093687670  0.050000000


 FORCES acting on ions:
    Electron-Ion                     Ewald-Force                    Non-Local-Force
 -----------------------------------------------------------------------------------------------
   0.121E+02 0.106E+02 0.226E+02   -.121E+02 -.106E+02 -.226E+02   0.140E-01 -.677E-02 0.122E-01
   0.202E+02 0.101E+02 0.308E+02   -.203E+02 -.101E+02 -.308E+02   0.213E-01 -.145E-01 -.107E-01
   0.102E+02 0.259E+02 0.395E+02   -.102E+02 -.260E+02 -.395E+02   -.239E-02 0.523E-01 0.333E-01
   0.168E+02 0.247E+02 0.675E+02   -.169E+02 -.247E+02 -.676E+02   0.674E-01 0.293E-01 0.889E-01
   0.132E+02 0.314E+01 0.227E+02   -.132E+02 -.312E+01 -.226E+02   0.273E-02 -.186E-01 -.617E-02
   0.139E+02 -.234E+01 0.233E+02   -.139E+02 0.235E+01 -.232E+02   -.238E-01 -.455E-02 -.151E-01
   0.283E+02 0.118E+02 0.568E+02   -.284E+02 -.117E+02 -.568E+02   0.571E-01 -.760E-01 -.282E-01
   0.282E+02 -.941E+01 0.611E+02   -.282E+02 0.946E+01 -.610E+02   -.484E-02 -.322E-01 -.151E+00
   -.113E+02 0.242E+02 0.410E+02   0.113E+02 -.241E+02 -.410E+02   -.220E-01 -.100E-01 -.516E-01
   -.212E+02 0.182E+02 0.659E+02   0.213E+02 -.183E+02 -.659E+02   -.751E-01 0.401E-01 -.137E+00
   0.322E+01 -.282E+01 0.176E+02   -.320E+01 0.280E+01 -.176E+02   -.637E-02 0.497E-02 -.583E-02
   0.254E+01 -.205E+01 0.162E+02   -.254E+01 0.205E+01 -.162E+02   -.163E-01 0.705E-02 0.160E-02
   0.107E+02 -.262E+02 0.710E+02   -.108E+02 0.263E+02 -.709E+02   0.104E+00 -.151E-01 -.150E+00
   0.477E+01 -.263E+02 0.403E+02   -.480E+01 0.263E+02 -.403E+02   0.290E-01 0.251E-02 -.494E-01
   -.118E+02 0.746E+01 0.222E+02   0.118E+02 -.745E+01 -.222E+02   0.175E-01 -.956E-02 -.852E-02
   -.178E+02 0.497E+01 0.267E+02   0.178E+02 -.498E+01 -.267E+02   0.929E-03 0.977E-02 -.284E-01
   -.173E+01 -.711E+00 0.154E+02   0.174E+01 0.708E+00 -.154E+02   -.477E-02 -.542E-03 0.109E-02
   0.971E+00 0.641E+01 0.167E+02   -.966E+00 -.640E+01 -.167E+02   -.920E-02 0.396E-02 0.840E-02
   -.369E+01 -.212E+02 0.292E+02   0.367E+01 0.212E+02 -.292E+02   0.313E-01 -.465E-02 0.939E-02
   -.153E+01 -.998E+01 0.188E+02   0.152E+01 0.998E+01 -.188E+02   0.526E-02 -.543E-02 -.185E-02
   0.213E+02 -.922E+01 0.339E+02   -.212E+02 0.921E+01 -.338E+02   -.103E-01 -.416E-02 -.564E-01
   0.123E+02 -.107E+02 0.253E+02   -.123E+02 0.107E+02 -.253E+02   -.160E-01 0.202E-01 -.184E-01
   -.529E+01 0.123E+02 0.897E+02   0.539E+01 -.124E+02 -.899E+02   -.930E-01 0.702E-01 0.369E-01
   -.984E+01 -.196E+02 0.838E+02   0.978E+01 0.197E+02 -.839E+02   0.622E-01 -.835E-01 0.458E-01
   0.559E+01 -.249E+01 0.177E+02   -.557E+01 0.249E+01 -.177E+02   -.123E-01 0.248E-02 -.987E-02
   0.101E+01 0.503E+01 0.180E+02   -.100E+01 -.503E+01 -.180E+02   -.137E-01 0.619E-02 -.142E-02
   -.280E+02 0.312E+01 0.462E+02   0.280E+02 -.316E+01 -.461E+02   0.982E-03 0.324E-01 -.599E-01
   -.253E+02 -.109E+02 0.406E+02   0.253E+02 0.109E+02 -.406E+02   -.416E-01 0.381E-01 0.113E-01
   0.753E+01 -.155E+02 0.267E+02   -.754E+01 0.155E+02 -.267E+02   0.102E-01 0.123E-01 -.235E-01
   0.702E+00 -.560E+01 0.191E+02   -.715E+00 0.558E+01 -.191E+02   0.296E-02 0.110E-01 -.959E-02
   -.209E+02 -.226E+02 0.519E+02   0.209E+02 0.227E+02 -.519E+02   -.542E-01 -.348E-01 0.618E-01
   -.115E+02 -.208E+02 0.316E+02   0.115E+02 0.209E+02 -.317E+02   -.514E-03 -.312E-01 0.206E-01
   0.643E+00 0.266E+01 0.160E+02   -.648E+00 -.266E+01 -.160E+02   0.121E-01 -.921E-02 0.366E-02
   0.186E+01 0.270E+01 0.175E+02   -.186E+01 -.269E+01 -.175E+02   0.785E-03 -.526E-02 -.626E-02
   -.822E+01 0.992E+00 0.196E+02   0.822E+01 -.100E+01 -.196E+02   0.119E-01 0.219E-02 -.317E-02
   -.703E+01 -.280E+01 0.189E+02   0.704E+01 0.279E+01 -.189E+02   -.113E-01 0.934E-02 -.368E-02
   -.144E+02 -.755E+01 0.233E+02   0.145E+02 0.754E+01 -.233E+02   -.169E-01 0.418E-02 -.551E-03
   -.821E+01 -.667E+01 0.186E+02   0.822E+01 0.667E+01 -.186E+02   -.111E-01 0.348E-02 0.995E-02
   -.774E+01 -.101E+02 0.203E+02   0.775E+01 0.102E+02 -.203E+02   -.118E-01 -.880E-02 0.690E-02
   -.113E+01 -.238E+01 0.166E+02   0.113E+01 0.239E+01 -.166E+02   0.168E-02 -.205E-02 0.801E-02
   0.290E+01 0.692E+01 0.176E+02   -.290E+01 -.693E+01 -.176E+02   -.389E-02 0.104E-01 0.757E-02
   0.979E+01 0.153E+02 0.244E+02   -.980E+01 -.153E+02 -.244E+02   0.129E-01 0.140E-01 0.140E-01
   0.775E+00 0.125E+02 0.200E+02   -.765E+00 -.125E+02 -.200E+02   -.858E-02 0.928E-02 -.197E-02
   0.210E+00 0.241E+02 0.330E+02   -.177E+00 -.241E+02 -.330E+02   -.397E-01 0.111E-01 0.894E-02
   -.237E+01 0.472E+01 0.191E+02   0.237E+01 -.472E+01 -.191E+02   0.127E-02 -.868E-02 -.721E-02
   -.101E+02 0.130E+02 0.253E+02   0.101E+02 -.130E+02 -.253E+02   -.788E-02 -.344E-02 -.219E-01
   -.166E+01 -.471E+01 0.173E+02   0.166E+01 0.471E+01 -.173E+02   0.153E-01 -.120E-02 0.950E-03
   -.439E+01 0.180E+01 0.165E+02   0.438E+01 -.180E+01 -.165E+02   0.972E-02 -.107E-02 -.844E-02
   0.333E+00 -.292E+01 0.162E+02   -.333E+00 0.292E+01 -.162E+02   0.814E-02 -.337E-02 0.549E-02
   0.462E+01 0.340E+01 0.165E+02   -.462E+01 -.339E+01 -.165E+02   0.492E-02 0.370E-02 0.332E-02
   0.213E+00 -.135E+00 -.386E+03   -.204E+00 0.128E+00 0.386E+03   -.162E-01 0.781E-02 -.371E-01
   -.229E+03 0.156E+03 -.591E+03   0.279E+03 -.190E+03 0.594E+03   -.509E+02 0.347E+02 -.294E+01
   0.229E+03 -.156E+03 -.570E+03   -.279E+03 0.190E+03 0.567E+03   0.509E+02 -.347E+02 0.353E+01
 -----------------------------------------------------------------------------------------------
   0.383E-01 0.359E-02 -.710E-01   0.000E+00 0.284E-13 0.682E-12   -.383E-01 -.356E-02 0.718E-01
 
 
 POSITION                                       TOTAL-FORCE (eV/Angst)
 -----------------------------------------------------------------------------------
     11.98348      0.00342      0.01417        -0.000125     -0.000254     -0.000536
     -0.34154      1.42665      0.01100         0.006237      0.006131     -0.000326
      2.12355      0.00315      0.01249         0.005140     -0.007513      0.003736
      2.12326      1.42653      0.00641        -0.008662      0.003084     -0.014652
     10.75099      2.13819      0.01213         0.000058     -0.005554      0.002182
     -1.57382      3.56123      0.01110        -0.005360      0.008923      0.000828
      0.89078      2.13854      0.00548        -0.006569      0.006839     -0.014449
      0.89099      3.56147      0.00181        -0.008870      0.010041     -0.041032
      4.58864      0.00346      0.01135         0.007393      0.015190     -0.005218
      4.58894      1.42623      0.00646         0.013189     -0.010097     -0.053517
      9.51854      4.27281      0.01369         0.008128     -0.009720      0.000358
     -2.80632      5.69591      0.01434        -0.011323      0.006151      0.001133
      2.12300      4.27302      0.00000        -0.012808      0.022795     -0.069061
      2.12335      5.69594      0.00581        -0.004970     -0.021923     -0.004351
      7.05344      0.00333      0.01399         0.005376     -0.002354      0.001961
      7.05353      1.42635      0.01368        -0.007364      0.007219     -0.000718
      8.28610      6.40752      0.01601         0.004901     -0.003527     -0.000444
     -4.03885      7.83070      0.01636        -0.004421      0.003037      0.000056
      3.35586      6.40753      0.01007         0.004250     -0.000072      0.002166
      3.35599      7.83072      0.01320        -0.002039     -0.002904      0.000266
     -0.34146      4.27290      0.00723         0.018047     -0.011992     -0.002499
     -0.34138      5.69591      0.00946        -0.006974      0.003665      0.003287
      3.35624      2.13791      0.00222         0.004364     -0.009663     -0.100014
      3.35573      3.56155      0.00139         0.003296      0.016339     -0.069345
     -1.57395      6.40758      0.01311         0.012195     -0.003528     -0.000719
     -1.57385      7.83068      0.01438        -0.004915      0.003039      0.000432
      5.82093      2.13784      0.01033        -0.007953     -0.010527     -0.009815
      5.82114      3.56097      0.01156        -0.004771     -0.001084      0.003004
      0.89092      6.40755      0.00907         0.005052     -0.000359      0.002435
      0.89106      7.83068      0.01235        -0.011231     -0.002790      0.000443
      4.58871      4.27293      0.00850         0.004444     -0.007551      0.001071
      4.58852      5.69606      0.01149        -0.000638      0.007588      0.001064
      9.51845      0.00337      0.01490         0.006830     -0.006727      0.000482
      9.51855      1.42644      0.01438        -0.004138      0.011510     -0.000339
      8.28593      2.13803      0.01453         0.003157     -0.008538      0.001217
      8.28613      3.56115      0.01464        -0.003430      0.003130      0.000460
      7.05356      4.27269      0.01457        -0.000512     -0.003300      0.000855
      7.05362      5.69588      0.01553        -0.000761      0.001626     -0.000082
      5.82112      6.40755      0.01489        -0.003516      0.001239     -0.000245
      5.82102      7.83073      0.01579        -0.000654      0.003180     -0.000218
      7.05363      8.54227      0.01631        -0.001958     -0.001635      0.001080
     -5.27149      9.96549      0.01495         0.001679     -0.001821     -0.001787
     -2.80638      8.54234      0.01558         0.002009      0.002223     -0.000370
     -2.80627      9.96553      0.01362        -0.006104      0.002680      0.001794
     -0.34149      8.54239      0.01378         0.008302      0.000590      0.000695
     -0.34138      9.96550      0.01354        -0.009755      0.003390      0.001661
      2.12343      8.54232      0.01336         0.006683      0.000097      0.001059
      2.12354      9.96544      0.01469        -0.008460      0.003889     -0.002036
      4.58846      8.54235      0.01505         0.007740     -0.005186      0.001181
      4.58853      9.96550      0.01517        -0.002838      0.004604      0.000756
      3.04930      2.68154      2.97302        -0.007977      0.001136      0.054805
      4.02070      2.02068      3.03744        -0.519279      0.369211      0.099302
      2.07767      3.34267      2.91356         0.539905     -0.389930      0.202008
 -----------------------------------------------------------------------------------
    total drift:                               -0.000067      0.000029      0.000802


--------------------------------------------------------------------------------------------------------



  FREE ENERGIE OF THE ION-ELECTRON SYSTEM (eV)
  ---------------------------------------------------
  free  energy   TOTEN  =      -489.35059555 eV

  energy  without entropy=     -489.35059555  energy(sigma->0) =     -489.35059555
 


--------------------------------------------------------------------------------------------------------


    POTLOK:  cpu time    0.5722: real time    0.5764


--------------------------------------------------------------------------------------------------------


     LOOP+:  cpu time  304.2064: real time  307.4838
    4ORBIT:  cpu time    0.0000: real time    0.0000

 total amount of memory used by VASP MPI-rank0   441788. kBytes
=======================================================================

   base      :      30000. kBytes
   nonl-proj :     184518. kBytes
   fftplans  :      31725. kBytes
   grid      :     168095. kBytes
   one-center:        162. kBytes
   wavefun   :      27288. kBytes
 
  
  
 General timing and accounting informations for this job:
 ========================================================
  
                  Total CPU time used (sec):      341.959
                            User time (sec):      322.258
                          System time (sec):       19.701
                         Elapsed time (sec):      347.333
  
                   Maximum memory used (kb):      846880.
                   Average memory used (kb):          N/A
  
                          Minor page faults:       104523
                          Major page faults:           75
                 Voluntary context switches:         3672
