 vasp.6.2.1 16May21 (build Nov 06 2021 14:46:37) complex                        
  
 executed on             LinuxIFC date 2025.04.16  17:18:08
 running on  112 total cores
 distrk:  each k-point on   56 cores,    2 groups
 distr:  one band on NCORE=   1 cores,   56 groups


--------------------------------------------------------------------------------------------------------


 INCAR:
   ALGO = Conjugate
   KPAR = 2
   NCORE = 32
   PREC = Accurate
   EDIFF = 1E-7
   ENCUT = 1000
   ISMEAR = 0
   SIGMA = 0.01
   ISIF = 0
   GGA = PE
   IVDW = 202
   LVDWEXPANSION = .TRUE.
   LWAVE = .FALSE.
   LCHARGE = .FALSE.
   SYMPREC = 1E-7

 POTCAR:    PAW_PBE C_h 06Feb2004                 
 POTCAR:    PAW_PBE O_h 06Feb2004                 
 -----------------------------------------------------------------------------
|                                                                             |
|           W    W    AA    RRRRR   N    N  II  N    N   GGGG   !!!           |
|           W    W   A  A   R    R  NN   N  II  NN   N  G    G  !!!           |
|           W    W  A    A  R    R  N N  N  II  N N  N  G       !!!           |
|           W WW W  AAAAAA  RRRRR   N  N N  II  N  N N  G  GGG   !            |
|           WW  WW  A    A  R   R   N   NN  II  N   NN  G    G                |
|           W    W  A    A  R    R  N    N  II  N    N   GGGG   !!!           |
|                                                                             |
|     The value NCORE = 32 specified in the INCAR file was overwritten,       |
|     because it was not compatible with the 56 processes available:          |
|     NCORE = 1                                                               |
|     was used instead, please check that this makes sense for your           |
|     machine.                                                                |
|                                                                             |
 -----------------------------------------------------------------------------

 -----------------------------------------------------------------------------
|                                                                             |
|           W    W    AA    RRRRR   N    N  II  N    N   GGGG   !!!           |
|           W    W   A  A   R    R  NN   N  II  NN   N  G    G  !!!           |
|           W    W  A    A  R    R  N N  N  II  N N  N  G       !!!           |
|           W WW W  AAAAAA  RRRRR   N  N N  II  N  N N  G  GGG   !            |
|           WW  WW  A    A  R   R   N   NN  II  N   NN  G    G                |
|           W    W  A    A  R    R  N    N  II  N    N   GGGG   !!!           |
|                                                                             |
|     For optimal performance we recommend to set                             |
|       NCORE = 2 up to number-of-cores-per-socket                            |
|     NCORE specifies how many cores store one orbital (NPAR=cpu/NCORE).      |
|     This setting can greatly improve the performance of VASP for DFT.       |
|     The default, NCORE=1 might be grossly inefficient on modern             |
|     multi-core architectures or massively parallel machines. Do your        |
|     own testing! More info at https://www.vasp.at/wiki/index.php/NCORE      |
|     Unfortunately you need to use the default for GW and RPA                |
|     calculations (for HF NCORE is supported but not extensively tested      |
|     yet).                                                                   |
|                                                                             |
 -----------------------------------------------------------------------------

 POTCAR:    PAW_PBE C_h 06Feb2004                 
   VRHFIN =C: s2p2                                                                                  
   LEXCH  = PE                                                                                      
   EATOM  =   147.1560 eV,   10.8157 Ry                                                             
                                                                                                    
   TITEL  = PAW_PBE C_h 06Feb2004                                                                   
   LULTRA =        F    use ultrasoft PP ?                                                          
   IUNSCR =        1    unscreen: 0-lin 1-nonlin 2-no                                               
   RPACOR =    0.800    partial core radius                                                         
   POMASS =   12.011; ZVAL   =    4.000    mass and valenz                                          
   RCORE  =    1.100    outmost cutoff radius                                                       
   RWIGS  =    1.630; RWIGS  =    0.863    wigner-seitz radius (au A)                               
   ENMAX  =  700.000; ENMIN  =  500.000 eV                                                          
   ICORE  =        2    local potential                                                             
   LCOR   =        T    correct aug charges                                                         
   LPAW   =        T    paw PP                                                                      
   EAUG   =  946.768                                                                                
   DEXC   =    0.000                                                                                
   RMAX   =    1.128    core radius for proj-oper                                                   
   RAUG   =    1.300    factor for augmentation sphere                                              
   RDEP   =    1.162    radius for radial grids                                                     
   RDEPT  =    1.088    core radius for aug-charge                                                  
                                                                                                    
   Atomic configuration                                                                             
    4 entries                                                                                       
     n  l   j            E        occ.                                                              
     1  0  0.50      -273.3789   2.0000                                                             
     2  0  0.50       -13.7508   2.0000                                                             
     2  1  0.50        -5.2854   2.0000                                                             
     3  2  1.50        -5.4423   0.0000                                                             
   Description                                                                                      
     l       E           TYP  RCUT    TYP  RCUT                                                     
     0    -13.7508458     23  1.100                                                                 
     0     -8.2022199     23  1.100                                                                 
     1     -5.2854383     23  1.100                                                                 
     1      1.1560700     23  1.100                                                                 
     2     -5.4423304      7  1.100                                                                 
  local pseudopotential read in
  partial core-charges read in
  partial kinetic energy density read in
  atomic valenz-charges read in
  non local Contribution for L=           0  read in
    real space projection operators read in
  non local Contribution for L=           0  read in
    real space projection operators read in
  non local Contribution for L=           1  read in
    real space projection operators read in
  non local Contribution for L=           1  read in
    real space projection operators read in
    PAW grid and wavefunctions read in
 
   number of l-projection  operators is LMAX  =           4
   number of lm-projection operators is LMMAX =           8
 
 POTCAR:    PAW_PBE O_h 06Feb2004                 
   VRHFIN =O: s2p4                                                                                  
   LEXCH  = PE                                                                                      
   EATOM  =   432.3788 eV,   31.7789 Ry                                                             
                                                                                                    
   TITEL  = PAW_PBE O_h 06Feb2004                                                                   
   LULTRA =        F    use ultrasoft PP ?                                                          
   IUNSCR =        1    unscreen: 0-lin 1-nonlin 2-no                                               
   RPACOR =    0.800    partial core radius                                                         
   POMASS =   16.000; ZVAL   =    6.000    mass and valenz                                          
   RCORE  =    1.100    outmost cutoff radius                                                       
   RWIGS  =    1.400; RWIGS  =    0.741    wigner-seitz radius (au A)                               
   ENMAX  =  700.000; ENMIN  =  500.000 eV                                                          
   ICORE  =        2    local potential                                                             
   LCOR   =        T    correct aug charges                                                         
   LPAW   =        T    paw PP                                                                      
   EAUG   =  888.804                                                                                
   DEXC   =    0.000                                                                                
   RMAX   =    1.128    core radius for proj-oper                                                   
   RAUG   =    1.300    factor for augmentation sphere                                              
   RDEP   =    1.125    radius for radial grids                                                     
   RDEPT  =    1.088    core radius for aug-charge                                                  
                                                                                                    
   Atomic configuration                                                                             
    4 entries                                                                                       
     n  l   j            E        occ.                                                              
     1  0  0.50      -514.6923   2.0000                                                             
     2  0  0.50       -23.9615   2.0000                                                             
     2  1  0.50        -9.0305   4.0000                                                             
     3  2  1.50        -9.5241   0.0000                                                             
   Description                                                                                      
     l       E           TYP  RCUT    TYP  RCUT                                                     
     0    -23.9615319     23  1.100                                                                 
     0    -25.3221145     23  1.100                                                                 
     1     -9.0304911     23  1.100                                                                 
     1     -5.4802209     23  1.100                                                                 
     2     -9.5240782      7  1.100                                                                 
  local pseudopotential read in
  partial core-charges read in
  partial kinetic energy density read in
  atomic valenz-charges read in
  non local Contribution for L=           0  read in
    real space projection operators read in
  non local Contribution for L=           0  read in
    real space projection operators read in
  non local Contribution for L=           1  read in
    real space projection operators read in
  non local Contribution for L=           1  read in
    real space projection operators read in
    PAW grid and wavefunctions read in
 
   number of l-projection  operators is LMAX  =           4
   number of lm-projection operators is LMMAX =           8
 
 -----------------------------------------------------------------------------
|                                                                             |
|               ----> ADVICE to this user running VASP <----                  |
|                                                                             |
|     You have a (more or less) 'large supercell' and for larger cells it     |
|     might be more efficient to use real-space projection operators.         |
|     Therefore, try LREAL= Auto in the INCAR file.                           |
|     Mind: For very accurate calculation, you might also keep the            |
|     reciprocal projection scheme (i.e. LREAL=.FALSE.).                      |
|                                                                             |
 -----------------------------------------------------------------------------

  PAW_PBE C_h 06Feb2004                 :
 energy of atom  1       EATOM= -147.1560
 kinetic energy error for atom=    0.0031 (will be added to EATOM!!)
  PAW_PBE O_h 06Feb2004                 :
 energy of atom  2       EATOM= -432.3788
 kinetic energy error for atom=    0.0171 (will be added to EATOM!!)
 
 
 POSCAR:  C  O
  positions in cartesian coordinates
  No initial velocities read in
 exchange correlation table for  LEXCH =        8
   RHO(1)=    0.500       N(1)  =     2000
   RHO(2)=  100.500       N(2)  =     4000
 


--------------------------------------------------------------------------------------------------------


 ion  position               nearest neighbor table
   1  0.972  0.000  0.001-  50 1.42   2 1.42  42 1.42
   2  0.039  0.134  0.000-   5 1.42   7 1.42   1 1.42
   3  0.172  0.000  0.000-  42 1.42  44 1.42   4 1.42
   4  0.239  0.134  0.000-   7 1.42   3 1.42  23 1.42
   5  0.972  0.200  0.000-   6 1.42   2 1.42  34 1.42
   6  0.039  0.334  0.000-   5 1.42  21 1.42  11 1.42
   7  0.172  0.200  0.000-   8 1.42   2 1.42   4 1.42
   8  0.239  0.334  0.000-  13 1.42   7 1.42  21 1.42
   9  0.372  0.000  0.000-  10 1.42  44 1.42  46 1.42
  10  0.439  0.134  0.000-  27 1.42   9 1.42  23 1.42
  11  0.972  0.400  0.001-  12 1.42  36 1.42   6 1.42
  12  0.039  0.534  0.001-  25 1.42  11 1.42  17 1.42
  13  0.372  0.400  0.000-   8 1.42  14 1.42  24 1.42
  14  0.439  0.534  0.000-  13 1.42  29 1.42  19 1.42
  15  0.572  0.000  0.001-  46 1.42  16 1.42  48 1.42
  16  0.639  0.134  0.001-  15 1.42  35 1.42  27 1.42
  17  0.972  0.600  0.001-  38 1.42  18 1.42  12 1.42
  18  0.039  0.734  0.001-  43 1.42  41 1.42  17 1.42
  19  0.572  0.600  0.000-  14 1.42  20 1.42  32 1.42
  20  0.639  0.734  0.001-  49 1.42  19 1.42  47 1.42
  21  0.172  0.400  0.000-  22 1.42   8 1.42   6 1.42
  22  0.239  0.534  0.000-  21 1.42  29 1.42  25 1.42
  23  0.372  0.200  0.000-  10 1.42   4 1.42  24 1.42
  24  0.439  0.334  0.000-  13 1.42  31 1.42  23 1.42
  25  0.172  0.600  0.001-  26 1.42  12 1.42  22 1.42
  26  0.239  0.734  0.001-  25 1.42  45 1.42  43 1.42
  27  0.572  0.200  0.000-  10 1.42  28 1.42  16 1.42
  28  0.639  0.334  0.000-  27 1.42  37 1.42  31 1.42
  29  0.372  0.600  0.000-  22 1.42  14 1.42  30 1.42
  30  0.439  0.734  0.000-  47 1.42  29 1.42  45 1.42
  31  0.572  0.400  0.000-  32 1.42  28 1.42  24 1.42
  32  0.639  0.534  0.000-  31 1.42  39 1.42  19 1.42
  33  0.772  0.000  0.001-  34 1.42  48 1.42  50 1.42
  34  0.839  0.134  0.001-  33 1.42   5 1.42  35 1.42
  35  0.772  0.200  0.001-  36 1.42  16 1.42  34 1.42
  36  0.839  0.334  0.001-  35 1.42  11 1.42  37 1.42
  37  0.772  0.400  0.001-  28 1.42  38 1.42  36 1.42
  38  0.839  0.534  0.001-  17 1.42  37 1.42  39 1.42
  39  0.772  0.600  0.001-  40 1.42  38 1.42  32 1.42
  40  0.839  0.734  0.001-  39 1.42  49 1.42  41 1.42
  41  0.972  0.800  0.001-  18 1.42  42 1.42  40 1.42
  42  0.039  0.934  0.001-   3 1.42  41 1.42   1 1.42
  43  0.172  0.800  0.001-  18 1.42  44 1.42  26 1.42
  44  0.239  0.934  0.001-   9 1.42  43 1.42   3 1.42
  45  0.372  0.800  0.001-  26 1.42  46 1.42  30 1.42
  46  0.439  0.934  0.001-  15 1.42  45 1.42   9 1.42
  47  0.572  0.800  0.001-  30 1.42  48 1.42  20 1.42
  48  0.639  0.934  0.001-  47 1.42  33 1.42  15 1.42
  49  0.772  0.800  0.001-  50 1.42  20 1.42  40 1.42
  50  0.839  0.934  0.001-  49 1.42   1 1.42  33 1.42
  51  0.373  0.251  0.126-  52 1.18  53 1.18
  52  0.421  0.189  0.129-  51 1.18
  53  0.325  0.313  0.124-  51 1.18
 
  LATTYP: Found a hexagonal cell.
 ALAT       =    12.3250000000
 C/A-ratio  =     2.0283975659
  
  Lattice vectors:
  
 A1 = (  12.3250000000,   0.0000000000,   0.0000000000)
 A2 = (  -6.1625000000,  10.6737631016,   0.0000000000)
 A3 = (   0.0000000000,   0.0000000000,  25.0000000000)


Analysis of symmetry for initial positions (statically):
=====================================================================
 Subroutine PRICEL returns:
 Original cell was already a primitive cell.
 

 Routine SETGRP: Setting up the symmetry group for a 
 hexagonal supercell.


 Subroutine GETGRP returns: Found  1 space group operations
 (whereof  1 operations were pure point group operations)
 out of a pool of 24 trial point group operations.


The static configuration has the point symmetry C_1 .


Analysis of symmetry for dynamics (positions and initial velocities):
=====================================================================
 Subroutine PRICEL returns:
 Original cell was already a primitive cell.
 

 Routine SETGRP: Setting up the symmetry group for a 
 hexagonal supercell.


 Subroutine GETGRP returns: Found  1 space group operations
 (whereof  1 operations were pure point group operations)
 out of a pool of 24 trial point group operations.


The dynamic configuration has the point symmetry C_1 .


 Subroutine INISYM returns: Found  1 space group operations
 (whereof  1 operations are pure point group operations),
 and found     1 'primitive' translations


----------------------------------------------------------------------------------------

                                     Primitive cell                                     

  volume of cell :    3288.8533

  direct lattice vectors                    reciprocal lattice vectors
    12.325000000  0.000000000  0.000000000     0.081135903  0.046843835  0.000000000
    -6.162500000 10.673763102  0.000000000     0.000000000  0.093687670  0.000000000
     0.000000000  0.000000000 25.000000000     0.000000000  0.000000000  0.040000000

  length of vectors
    12.325000000 12.325000000 25.000000000     0.093687670  0.093687670  0.040000000

  position of ions in fractional coordinates (direct lattice)
     0.972450841  0.000320818  0.000566711
     0.039118382  0.133659505  0.000440173
     0.172443627  0.000295449  0.000499628
     0.239096278  0.133647917  0.000256468
     0.972452058  0.200322012  0.000485219
     0.039128360  0.333643771  0.000444150
     0.172451764  0.200354552  0.000219167
     0.239124359  0.333665720  0.000072260
     0.372465565  0.000324403  0.000453913
     0.439137473  0.133619939  0.000258338
     0.972449824  0.400309362  0.000547611
     0.039124981  0.533636789  0.000573410
     0.372416176  0.400329481  0.000000000
     0.439099602  0.533638981  0.000232414
     0.572443676  0.000312125  0.000559580
     0.639110207  0.133631751  0.000547275
     0.972452703  0.600305653  0.000640289
     0.039124495  0.733640359  0.000654513
     0.572433471  0.600306242  0.000402895
     0.639111888  0.733641879  0.000527905
     0.172454630  0.400318228  0.000289045
     0.239120185  0.533636548  0.000378509
     0.372459750  0.200295993  0.000088997
     0.439107096  0.333673419  0.000055762
     0.172452155  0.600311506  0.000524340
     0.239123371  0.733638574  0.000575129
     0.572431082  0.200289171  0.000413296
     0.639112773  0.333618630  0.000462376
     0.372439808  0.600308022  0.000362844
     0.439116090  0.733637858  0.000494190
     0.572469358  0.400320504  0.000339918
     0.639119408  0.533650873  0.000459610
     0.772445723  0.000315427  0.000596161
     0.839116277  0.133640203  0.000575306
     0.772440513  0.200307432  0.000581033
     0.839120241  0.333635728  0.000585467
     0.772446320  0.400298367  0.000582978
     0.839118980  0.533633964  0.000621100
     0.772456143  0.600308173  0.000595712
     0.839115033  0.733643180  0.000631512
     0.972455313  0.800305582  0.000652233
     0.039114714  0.933643289  0.000598051
     0.172457971  0.800312211  0.000623372
     0.239134551  0.933647193  0.000544850
     0.372451396  0.800316674  0.000551399
     0.439124489  0.933644769  0.000541430
     0.572441101  0.800310054  0.000534535
     0.639115067  0.933638985  0.000587644
     0.772445098  0.800313187  0.000602062
     0.839116614  0.933644338  0.000606830
     0.373021009  0.251226878  0.125992105
     0.420879805  0.189313152  0.128568979
     0.325156981  0.313167186  0.123613910

  ion indices of the primitive-cell ions
   primitive index   ion index
                 1           1
                 2           2
                 3           3
                 4           4
                 5           5
                 6           6
                 7           7
                 8           8
                 9           9
                10          10
                11          11
                12          12
                13          13
                14          14
                15          15
                16          16
                17          17
                18          18
                19          19
                20          20
                21          21
                22          22
                23          23
                24          24
                25          25
                26          26
                27          27
                28          28
                29          29
                30          30
                31          31
                32          32
                33          33
                34          34
                35          35
                36          36
                37          37
                38          38
                39          39
                40          40
                41          41
                42          42
                43          43
                44          44
                45          45
                46          46
                47          47
                48          48
                49          49
                50          50
                51          51
                52          52
                53          53

----------------------------------------------------------------------------------------

 
 
 KPOINTS: auto                                    

Automatic generation of k-mesh.
 Grid dimensions read from file:
 generate k-points for:    1    1    1

 Generating k-lattice:

  Cartesian coordinates                     Fractional coordinates (reciprocal lattice)
     0.081135903  0.046843835  0.000000000     1.000000000 -0.000000000  0.000000000
     0.000000000  0.093687670  0.000000000     0.000000000  1.000000000  0.000000000
     0.000000000  0.000000000  0.040000000     0.000000000  0.000000000  1.000000000

  Length of vectors
     0.093687670  0.093687670  0.040000000

  Shift w.r.t. Gamma in fractional coordinates (k-lattice)
     0.000000000  0.000000000  0.000000000

 
 Subroutine IBZKPT returns following result:
 ===========================================
 
 Found      1 irreducible k-points:
 
 Following reciprocal coordinates:
            Coordinates               Weight
  0.000000  0.000000  0.000000      1.000000
 
 Following cartesian coordinates:
            Coordinates               Weight
  0.000000  0.000000  0.000000      1.000000
 


--------------------------------------------------------------------------------------------------------




 Dimension of arrays:
   k-points           NKPTS =      1   k-points in BZ     NKDIM =      1   number of bands    NBANDS=    168
   number of dos      NEDOS =    301   number of ions     NIONS =     53
   non local maximal  LDIM  =      4   non local SUM 2l+1 LMDIM =      8
   total plane-waves  NPLWV = ******
   max r-space proj   IRMAX =      1   max aug-charges    IRDMAX=  10008
   dimension x,y,z NGX =   128 NGY =  128 NGZ =  270
   dimension x,y,z NGXF=   256 NGYF=  256 NGZF=  540
   support grid    NGXF=   256 NGYF=  256 NGZF=  540
   ions per type =              51   2
   NGX,Y,Z   is equivalent  to a cutoff of  17.27, 17.27, 17.95 a.u.
   NGXF,Y,Z  is equivalent  to a cutoff of  34.53, 34.53, 35.91 a.u.

 SYSTEM =  unknown system                          
 POSCAR =   C  O                                   

 Startparameter for this run:
   NWRITE =      2    write-flag & timer
   PREC   = accura    normal or accurate (medium, high low for compatibility)
   ISTART =      0    job   : 0-new  1-cont  2-samecut
   ICHARG =      2    charge: 1-file 2-atom 10-const
   ISPIN  =      1    spin polarized calculation?
   LNONCOLLINEAR =      F non collinear calculations
   LSORBIT =      F    spin-orbit coupling
   INIWAV =      1    electr: 0-lowe 1-rand  2-diag
   LASPH  =      F    aspherical Exc in radial PAW
 Electronic Relaxation 1
   ENCUT  = 1000.0 eV  73.50 Ry    8.57 a.u.  31.78 31.78 64.46*2*pi/ulx,y,z
   ENINI  = 1000.0     initial cutoff
   ENAUG  =  946.8 eV  augmentation charge cutoff
   NELM   =     60;   NELMIN=  2; NELMDL= -5     # of ELM steps 
   EDIFF  = 0.1E-06   stopping-criterion for ELM
   LREAL  =      F    real-space projection
   NLSPLINE    = F    spline interpolate recip. space projectors
   LCOMPAT=      F    compatible to vasp.4.4
   GGA_COMPAT  = T    GGA compatible to vasp.4.4-vasp.4.6
   LMAXPAW     = -100 max onsite density
   LMAXMIX     =    2 max onsite mixed and CHGCAR
   VOSKOWN=      0    Vosko Wilk Nusair interpolation
   ROPT   =    0.00000   0.00000
 Ionic relaxation
   EDIFFG = 0.1E-05   stopping-criterion for IOM
   NSW    =      0    number of steps for IOM
   NBLOCK =      1;   KBLOCK =      1    inner block; outer block 
   IBRION =     -1    ionic relax: 0-MD 1-quasi-New 2-CG
   NFREE  =      0    steps in history (QN), initial steepest desc. (CG)
   ISIF   =      0    stress and relaxation
   IWAVPR =     10    prediction:  0-non 1-charg 2-wave 3-comb
   ISYM   =      2    0-nonsym 1-usesym 2-fastsym
   LCORR  =      T    Harris-Foulkes like correction to forces

   POTIM  = 0.5000    time-step for ionic-motion
   TEIN   =    0.0    initial temperature
   TEBEG  =    0.0;   TEEND  =   0.0 temperature during run
   SMASS  =  -3.00    Nose mass-parameter (am)
   estimated Nose-frequenzy (Omega)   =  0.10E-29 period in steps = 0.13E+47 mass=  -0.347E-26a.u.
   SCALEE = 1.0000    scale energy and forces
   NPACO  =    256;   APACO  = 16.0  distance and # of slots for P.C.
   PSTRESS=    0.0 pullay stress

  Mass of Ions in am
   POMASS =  12.01 16.00
  Ionic Valenz
   ZVAL   =   4.00  6.00
  Atomic Wigner-Seitz radii
   RWIGS  =  -1.00 -1.00
  virtual crystal weights 
   VCA    =   1.00  1.00
   NELECT =     216.0000    total number of electrons
   NUPDOWN=      -1.0000    fix difference up-down

 DOS related values:
   EMIN   =  10.00;   EMAX   =-10.00  energy-range for DOS
   EFERMI =   0.00
   ISMEAR =     0;   SIGMA  =   0.01  broadening in eV -4-tet -1-fermi 0-gaus

 Electronic relaxation 2 (details)
   IALGO  =     58    algorithm
   LDIAG  =      T    sub-space diagonalisation (order eigenvalues)
   LSUBROT=      F    optimize rotation matrix (better conditioning)
   TURBO    =      0    0=normal 1=particle mesh
   IRESTART =      0    0=no restart 2=restart with 2 vectors
   NREBOOT  =      0    no. of reboots
   NMIN     =      0    reboot dimension
   EREF     =   0.00    reference energy to select bands
   IMIX   =      4    mixing-type and parameters
     AMIX     =   0.40;   BMIX     =  1.00
     AMIX_MAG =   1.60;   BMIX_MAG =  1.00
     AMIN     =   0.10
     WC   =   100.;   INIMIX=   1;  MIXPRE=   1;  MAXMIX= -45

 Intra band minimization:
   WEIMIN = 0.0000     energy-eigenvalue tresh-hold
   EBREAK =  0.15E-09  absolut break condition
   DEPER  =   0.30     relativ break condition  

   TIME   =   0.40     timestep for ELM

  volume/ion in A,a.u.               =      62.05       418.76
  Fermi-wavevector in a.u.,A,eV,Ry     =   0.660508  1.248179  5.935820  0.436270
  Thomas-Fermi vector in A             =   1.732977
 
 Write flags
   LWAVE        =      F    write WAVECAR
   LDOWNSAMPLE  =      F    k-point downsampling of WAVECAR
   LCHARG       =      T    write CHGCAR
   LVTOT        =      F    write LOCPOT, total local potential
   LVHAR        =      F    write LOCPOT, Hartree potential only
   LELF         =      F    write electronic localiz. function (ELF)
   LORBIT       =      0    0 simple, 1 ext, 2 COOP (PROOUT), +10 PAW based schemes


 Dipole corrections
   LMONO  =      F    monopole corrections only (constant potential shift)
   LDIPOL =      F    correct potential (dipole corrections)
   IDIPOL =      0    1-x, 2-y, 3-z, 4-all directions 
   EPSILON=  1.0000000 bulk dielectric constant

 Exchange correlation treatment:
   GGA     =    PE    GGA type
   LEXCH   =     8    internal setting for exchange type
   VOSKOWN=      0    Vosko Wilk Nusair interpolation
   LHFCALC =     F    Hartree Fock is set to
   LHFONE  =     F    Hartree Fock one center treatment
   AEXX    =    0.0000 exact exchange contribution

 Linear response parameters
   LEPSILON=     F    determine dielectric tensor
   LRPA    =     F    only Hartree local field effects (RPA)
   LNABLA  =     F    use nabla operator in PAW spheres
   LVEL    =     F    velocity operator in full k-point grid
   LINTERFAST=   F  fast interpolation
   KINTER  =     0    interpolate to denser k-point grid
   CSHIFT  =0.1000    complex shift for real part using Kramers Kronig
   OMEGAMAX=  -1.0    maximum frequency
   DEG_THRESHOLD= 0.2000000E-02 threshold for treating states as degnerate
   RTIME   =   -0.100 relaxation time in fs
  (WPLASMAI=    0.000 imaginary part of plasma frequency in eV, 0.658/RTIME)
   DFIELD  = 0.0000000 0.0000000 0.0000000 field for delta impulse in time
 
 Orbital magnetization related:
   ORBITALMAG=     F  switch on orbital magnetization
   LCHIMAG   =     F  perturbation theory with respect to B field
   DQ        =  0.001000  dq finite difference perturbation B field
   LLRAUG    =     F  two centre corrections for induced B field



--------------------------------------------------------------------------------------------------------


 Static calculation
 charge density and potential will be updated during run
 non-spin polarized calculation
 Conjugate gradient for all bands (Freysoldt, et al. PRB 79, 241103 (2009))
 preconditioned conjugated gradient                                        
 perform sub-space diagonalisation
    before iterative eigenvector-optimisation
 modified Broyden-mixing scheme, WC =      100.0
 initial mixing is a Kerker type mixing with AMIX =  0.4000 and BMIX =      1.0000
 Hartree-type preconditioning will be used
 using additional bands           60
 reciprocal scheme for non local part
 use partial core corrections
 no Harris-corrections to forces 
 use gradient corrections 
 use of overlap-Matrix (Vanderbilt PP)
 Gauss-broadening in eV      SIGMA  =   0.01


--------------------------------------------------------------------------------------------------------


  energy-cutoff  :     1000.00
  volume of cell :     3288.85
      direct lattice vectors                 reciprocal lattice vectors
    12.325000000  0.000000000  0.000000000     0.081135903  0.046843835  0.000000000
    -6.162500000 10.673763102  0.000000000     0.000000000  0.093687670  0.000000000
     0.000000000  0.000000000 25.000000000     0.000000000  0.000000000  0.040000000

  length of vectors
    12.325000000 12.325000000 25.000000000     0.093687670  0.093687670  0.040000000


 
 k-points in units of 2pi/SCALE and weight: auto                                    
   0.00000000  0.00000000  0.00000000       1.000
 
 k-points in reciprocal lattice and weights: auto                                    
   0.00000000  0.00000000  0.00000000       1.000
 
 position of ions in fractional coordinates (direct lattice) 
   0.97245084  0.00032082  0.00056671
   0.03911838  0.13365950  0.00044017
   0.17244363  0.00029545  0.00049963
   0.23909628  0.13364792  0.00025647
   0.97245206  0.20032201  0.00048522
   0.03912836  0.33364377  0.00044415
   0.17245176  0.20035455  0.00021917
   0.23912436  0.33366572  0.00007226
   0.37246557  0.00032440  0.00045391
   0.43913747  0.13361994  0.00025834
   0.97244982  0.40030936  0.00054761
   0.03912498  0.53363679  0.00057341
   0.37241618  0.40032948  0.00000000
   0.43909960  0.53363898  0.00023241
   0.57244368  0.00031213  0.00055958
   0.63911021  0.13363175  0.00054727
   0.97245270  0.60030565  0.00064029
   0.03912449  0.73364036  0.00065451
   0.57243347  0.60030624  0.00040289
   0.63911189  0.73364188  0.00052791
   0.17245463  0.40031823  0.00028904
   0.23912018  0.53363655  0.00037851
   0.37245975  0.20029599  0.00008900
   0.43910710  0.33367342  0.00005576
   0.17245216  0.60031151  0.00052434
   0.23912337  0.73363857  0.00057513
   0.57243108  0.20028917  0.00041330
   0.63911277  0.33361863  0.00046238
   0.37243981  0.60030802  0.00036284
   0.43911609  0.73363786  0.00049419
   0.57246936  0.40032050  0.00033992
   0.63911941  0.53365087  0.00045961
   0.77244572  0.00031543  0.00059616
   0.83911628  0.13364020  0.00057531
   0.77244051  0.20030743  0.00058103
   0.83912024  0.33363573  0.00058547
   0.77244632  0.40029837  0.00058298
   0.83911898  0.53363396  0.00062110
   0.77245614  0.60030817  0.00059571
   0.83911503  0.73364318  0.00063151
   0.97245531  0.80030558  0.00065223
   0.03911471  0.93364329  0.00059805
   0.17245797  0.80031221  0.00062337
   0.23913455  0.93364719  0.00054485
   0.37245140  0.80031667  0.00055140
   0.43912449  0.93364477  0.00054143
   0.57244110  0.80031005  0.00053453
   0.63911507  0.93363899  0.00058764
   0.77244510  0.80031319  0.00060206
   0.83911661  0.93364434  0.00060683
   0.37302101  0.25122688  0.12599210
   0.42087980  0.18931315  0.12856898
   0.32515698  0.31316719  0.12361391
 
 position of ions in cartesian coordinates  (Angst):
  11.98347958  0.00342433  0.01416777
  -0.34154264  1.42664989  0.01100432
   2.12354700  0.00315355  0.01249070
   2.12325634  1.42652621  0.00641170
  10.75098721  2.13818970  0.01213047
  -1.57382270  3.56123457  0.01110375
   0.89078307  2.13853702  0.00547917
   0.89099273  3.56146885  0.00180651
   4.58863896  0.00346260  0.01134782
   4.58893648  1.42622757  0.00645846
   9.51853763  4.27280730  0.01369027
  -2.80632132  5.69591267  0.01433526
   2.12299894  4.27302204  0.00000000
   2.12335237  5.69593607  0.00581036
   7.05344483  0.00333155  0.01398950
   7.05352764  1.42635365  0.01368187
   8.28609598  6.40752033  0.01600723
  -4.03884931  7.83070339  0.01636283
   3.35585531  6.40752662  0.01007237
   3.35598594  7.83071962  0.01319763
  -0.34145776  4.27290193  0.00722612
  -0.34137895  5.69591010  0.00946273
   3.35624236  2.13791198  0.00222492
   3.35573251  3.56155103  0.00139405
  -1.57394684  6.40758280  0.01310850
  -1.57385216  7.83068434  0.01437823
   5.82093107  2.13783916  0.01033241
   5.82114012  3.56096622  0.01155939
   0.89092245  6.40754561  0.00907111
   0.89106251  7.83067670  0.01235474
   4.58870974  4.27292622  0.00849795
   4.58852320  5.69606300  0.01149026
   9.51844972  0.00336679  0.01490402
   9.51855036  1.42644387  0.01438264
   8.28593477  2.13803408  0.01452582
   8.28612680  3.56114872  0.01463668
   7.05356221  4.27268994  0.01457444
   7.05362213  5.69588251  0.01552751
   5.82112285  6.40754723  0.01489279
   5.82101669  7.83073350  0.01578780
   7.05362858  8.54227219  0.01630582
  -5.27148792  9.96548729  0.01495127
  -2.80637951  8.54234295  0.01558431
  -2.80626749  9.96552896  0.01362126
  -0.34148805  8.54239058  0.01378498
  -0.34137657  9.96550309  0.01353576
   2.12342586  8.54231992  0.01336337
   2.12354296  9.96544135  0.01469111
   4.58845581  8.54235337  0.01505154
   4.58852904  9.96549848  0.01517076
   3.04929830  2.68153618  3.14980262
   4.02070129  2.02068374  3.21422448
   2.07766701  3.34267235  3.09034775
 


--------------------------------------------------------------------------------------------------------


 k-point   1 :   0.0000 0.0000 0.0000  plane waves:  236157

 maximum and minimum number of plane-waves per node :    236157   236157

 maximum number of plane-waves:    236157
 maximum index in each direction: 
   IXMAX=   31   IYMAX=   31   IZMAX=   64
   IXMIN=  -31   IYMIN=  -31   IZMIN=  -64


 serial   3D FFT for wavefunctions
 parallel 3D FFT for charge:
    minimum data exchange during FFTs selected (reduces bandwidth)


 total amount of memory used by VASP MPI-rank0   551512. kBytes
=======================================================================

   base      :      30000. kBytes
   nonl-proj :     230539. kBytes
   fftplans  :      40716. kBytes
   grid      :     216018. kBytes
   one-center:        162. kBytes
   wavefun   :      34077. kBytes
 
     INWAV:  cpu time    0.0000: real time    0.0000
 Broyden mixing: mesh for mixing (old mesh)
   NGX = 63   NGY = 63   NGZ =129
  (NGX  =256   NGY  =256   NGZ  =540)
  gives a total of 512001 points

 initial charge density was supplied:
 charge density of overlapping atoms calculated
 number of electron     216.0000000 magnetization 
 keeping initial charge density in first step


--------------------------------------------------------------------------------------------------------


 Maximum index for augmentation-charges          471 (set IRDMAX)


--------------------------------------------------------------------------------------------------------


 First call to EWALD:  gamma=   0.119
 Maximum number of real-space cells 4x 4x 2
 Maximum number of reciprocal cells 2x 2x 4

    FEWALD:  cpu time    0.0025: real time    0.0025


--------------------------------------- Iteration      1(   1)  ---------------------------------------


    POTLOK:  cpu time    0.7876: real time    0.7942
    SETDIJ:  cpu time    0.0034: real time    0.0037
    TRIAL :  cpu time   15.3782: real time   15.5008
    CORREC:  cpu time    0.0007: real time    0.0009
    --------------------------------------------
      LOOP:  cpu time   16.1830: real time   16.3202

 eigenvalue-minimisations  :   336
 total energy-change (2. order) : 0.2603542E+04  (-0.1073647E+05)
 number of electron     216.0000000 magnetization 
 augmentation part      216.0000000 magnetization 

 Free energy of the ion-electron system (eV)
  ---------------------------------------------------
  alpha Z        PSCENC =        47.94900195
  Ewald energy   TEWEN  =     47538.22437387
  -Hartree energ DENC   =    -53606.79122026
  -exchange      EXHF   =         0.00000000
  -V(xc)+E(xc)   XCENC  =       421.03501552
  PAW double counting   =      6525.96553977    -6260.36035765
  entropy T*S    EENTRO =        -0.00000598
  eigenvalues    EBANDS =      -432.00374917
  atomic energy  EATOM  =      8369.52358910
  ---------------------------------------------------
  free energy    TOTEN  =      2603.54218716 eV

  energy without entropy =     2603.54219314  energy(sigma->0) =     2603.54219015


--------------------------------------------------------------------------------------------------------




--------------------------------------- Iteration      1(   2)  ---------------------------------------


    TRIAL :  cpu time   23.1308: real time   23.3125
    CORREC:  cpu time    0.0001: real time    0.0001
    --------------------------------------------
      LOOP:  cpu time   23.1677: real time   23.3548

 eigenvalue-minimisations  :   560
 total energy-change (2. order) :-0.2428186E+04  (-0.2263159E+04)
 number of electron     216.0000000 magnetization 
 augmentation part      216.0000000 magnetization 

 Free energy of the ion-electron system (eV)
  ---------------------------------------------------
  alpha Z        PSCENC =        47.94900195
  Ewald energy   TEWEN  =     47538.22437387
  -Hartree energ DENC   =    -53606.79122026
  -exchange      EXHF   =         0.00000000
  -V(xc)+E(xc)   XCENC  =       421.03501552
  PAW double counting   =      6525.96553977    -6260.36035765
  entropy T*S    EENTRO =        -0.00000000
  eigenvalues    EBANDS =     -2860.18979408
  atomic energy  EATOM  =      8369.52358910
  ---------------------------------------------------
  free energy    TOTEN  =       175.35614822 eV

  energy without entropy =      175.35614822  energy(sigma->0) =      175.35614822


--------------------------------------------------------------------------------------------------------




--------------------------------------- Iteration      1(   3)  ---------------------------------------


    TRIAL :  cpu time   19.2125: real time   19.3680
    CORREC:  cpu time    0.0001: real time    0.0001
    --------------------------------------------
      LOOP:  cpu time   19.2545: real time   19.4119

 eigenvalue-minimisations  :   448
 total energy-change (2. order) :-0.6679586E+03  (-0.6653798E+03)
 number of electron     216.0000000 magnetization 
 augmentation part      216.0000000 magnetization 

 Free energy of the ion-electron system (eV)
  ---------------------------------------------------
  alpha Z        PSCENC =        47.94900195
  Ewald energy   TEWEN  =     47538.22437387
  -Hartree energ DENC   =    -53606.79122026
  -exchange      EXHF   =         0.00000000
  -V(xc)+E(xc)   XCENC  =       421.03501552
  PAW double counting   =      6525.96553977    -6260.36035765
  entropy T*S    EENTRO =        -0.00000000
  eigenvalues    EBANDS =     -3528.14841868
  atomic energy  EATOM  =      8369.52358910
  ---------------------------------------------------
  free energy    TOTEN  =      -492.60247638 eV

  energy without entropy =     -492.60247638  energy(sigma->0) =     -492.60247638


--------------------------------------------------------------------------------------------------------




--------------------------------------- Iteration      1(   4)  ---------------------------------------


    TRIAL :  cpu time   19.2083: real time   19.3827
    CORREC:  cpu time    0.0001: real time    0.0001
    --------------------------------------------
      LOOP:  cpu time   19.2711: real time   19.4463

 eigenvalue-minimisations  :   448
 total energy-change (2. order) :-0.2444493E+02  (-0.2431211E+02)
 number of electron     216.0000000 magnetization 
 augmentation part      216.0000000 magnetization 

 Free energy of the ion-electron system (eV)
  ---------------------------------------------------
  alpha Z        PSCENC =        47.94900195
  Ewald energy   TEWEN  =     47538.22437387
  -Hartree energ DENC   =    -53606.79122026
  -exchange      EXHF   =         0.00000000
  -V(xc)+E(xc)   XCENC  =       421.03501552
  PAW double counting   =      6525.96553977    -6260.36035765
  entropy T*S    EENTRO =        -0.00000000
  eigenvalues    EBANDS =     -3552.59334728
  atomic energy  EATOM  =      8369.52358910
  ---------------------------------------------------
  free energy    TOTEN  =      -517.04740498 eV

  energy without entropy =     -517.04740498  energy(sigma->0) =     -517.04740498


--------------------------------------------------------------------------------------------------------




--------------------------------------- Iteration      1(   5)  ---------------------------------------


    TRIAL :  cpu time   19.2304: real time   19.3769
    CORREC:  cpu time    0.0001: real time    0.0003
    CHARGE:  cpu time    0.8137: real time    0.8195
    --------------------------------------------
      LOOP:  cpu time   20.0939: real time   20.2493

 eigenvalue-minimisations  :   448
 total energy-change (2. order) :-0.8098219E+00  (-0.8073629E+00)
 number of electron     216.0000000 magnetization 
 augmentation part       -0.2754670 magnetization 

 Free energy of the ion-electron system (eV)
  ---------------------------------------------------
  alpha Z        PSCENC =        47.94900195
  Ewald energy   TEWEN  =     47538.22437387
  -Hartree energ DENC   =    -53606.79122026
  -exchange      EXHF   =         0.00000000
  -V(xc)+E(xc)   XCENC  =       421.03501552
  PAW double counting   =      6525.96553977    -6260.36035765
  entropy T*S    EENTRO =        -0.00000000
  eigenvalues    EBANDS =     -3553.40316916
  atomic energy  EATOM  =      8369.52358910
  ---------------------------------------------------
  free energy    TOTEN  =      -517.85722685 eV

  energy without entropy =     -517.85722685  energy(sigma->0) =     -517.85722685


--------------------------------------------------------------------------------------------------------




--------------------------------------- Iteration      1(   6)  ---------------------------------------


    POTLOK:  cpu time    0.7427: real time    0.7474
    SETDIJ:  cpu time    0.0051: real time    0.0051
    TRIAL :  cpu time    6.9138: real time    6.9677
    CORREC:  cpu time    2.2708: real time    2.2878
    CHARGE:  cpu time    0.8083: real time    0.8140
    --------------------------------------------
      LOOP:  cpu time   10.7571: real time   10.8441

 eigenvalue-minimisations  :     0
 total energy-change (2. order) : 0.5102625E+02  (-0.1527917E+02)
 number of electron     216.0000000 magnetization 
 augmentation part       -0.3754750 magnetization 

 Free energy of the ion-electron system (eV)
  ---------------------------------------------------
  alpha Z        PSCENC =        47.94900195
  Ewald energy   TEWEN  =     47538.22437387
  -Hartree energ DENC   =    -55046.50395950
  -exchange      EXHF   =         0.00000000
  -V(xc)+E(xc)   XCENC  =       468.94837238
  PAW double counting   =     90211.27228814   -89953.92673212
  entropy T*S    EENTRO =        -0.00000000
  eigenvalues    EBANDS =     -2102.31791359
  atomic energy  EATOM  =      8369.52358910
  ---------------------------------------------------
  free energy    TOTEN  =      -466.83097977 eV

  energy without entropy =     -466.83097977  energy(sigma->0) =     -466.83097977


--------------------------------------------------------------------------------------------------------




--------------------------------------- Iteration      1(   7)  ---------------------------------------


    POTLOK:  cpu time    0.7417: real time    0.7464
    SETDIJ:  cpu time    0.0026: real time    0.0026
    TRIAL :  cpu time    6.9049: real time    6.9590
    CORREC:  cpu time    2.2680: real time    2.2847
    CHARGE:  cpu time    0.8111: real time    0.8167
    --------------------------------------------
      LOOP:  cpu time   10.7925: real time   10.8787

 eigenvalue-minimisations  :     0
 total energy-change (2. order) :-0.1530458E+02  (-0.1786246E+01)
 number of electron     216.0000000 magnetization 
 augmentation part       -0.4222184 magnetization 

 Free energy of the ion-electron system (eV)
  ---------------------------------------------------
  alpha Z        PSCENC =        47.94900195
  Ewald energy   TEWEN  =     47538.22437387
  -Hartree energ DENC   =    -54546.29732528
  -exchange      EXHF   =         0.00000000
  -V(xc)+E(xc)   XCENC  =       452.41539535
  PAW double counting   =    106375.95358580  -106115.80081122
  entropy T*S    EENTRO =        -0.00000000
  eigenvalues    EBANDS =     -2604.10336763
  atomic energy  EATOM  =      8369.52358910
  ---------------------------------------------------
  free energy    TOTEN  =      -482.13555806 eV

  energy without entropy =     -482.13555806  energy(sigma->0) =     -482.13555806


--------------------------------------------------------------------------------------------------------




--------------------------------------- Iteration      1(   8)  ---------------------------------------


    POTLOK:  cpu time    0.7435: real time    0.7483
    SETDIJ:  cpu time    0.0024: real time    0.0024
    TRIAL :  cpu time    6.9002: real time    6.9575
    CORREC:  cpu time    2.2629: real time    2.2817
    CHARGE:  cpu time    0.8081: real time    0.8144
    --------------------------------------------
      LOOP:  cpu time   10.7929: real time   10.8808

 eigenvalue-minimisations  :     0
 total energy-change (2. order) :-0.1786916E+01  (-0.5055625E+00)
 number of electron     216.0000000 magnetization 
 augmentation part       -0.4356211 magnetization 

 Free energy of the ion-electron system (eV)
  ---------------------------------------------------
  alpha Z        PSCENC =        47.94900195
  Ewald energy   TEWEN  =     47538.22437387
  -Hartree energ DENC   =    -54522.39211222
  -exchange      EXHF   =         0.00000000
  -V(xc)+E(xc)   XCENC  =       451.78462627
  PAW double counting   =    110777.71943014  -110517.14941515
  entropy T*S    EENTRO =        -0.00000000
  eigenvalues    EBANDS =     -2629.58196811
  atomic energy  EATOM  =      8369.52358910
  ---------------------------------------------------
  free energy    TOTEN  =      -483.92247416 eV

  energy without entropy =     -483.92247416  energy(sigma->0) =     -483.92247416


--------------------------------------------------------------------------------------------------------




--------------------------------------- Iteration      1(   9)  ---------------------------------------


    POTLOK:  cpu time    0.7418: real time    0.7466
    SETDIJ:  cpu time    0.0025: real time    0.0025
    TRIAL :  cpu time    6.8949: real time    6.9495
    CORREC:  cpu time    2.2662: real time    2.2830
    CHARGE:  cpu time    0.8056: real time    0.8113
    --------------------------------------------
      LOOP:  cpu time   10.7473: real time   10.8423

 eigenvalue-minimisations  :     0
 total energy-change (2. order) :-0.5053974E+00  (-0.1850698E+00)
 number of electron     216.0000000 magnetization 
 augmentation part       -0.4404468 magnetization 

 Free energy of the ion-electron system (eV)
  ---------------------------------------------------
  alpha Z        PSCENC =        47.94900195
  Ewald energy   TEWEN  =     47538.22437387
  -Hartree energ DENC   =    -54533.71541788
  -exchange      EXHF   =         0.00000000
  -V(xc)+E(xc)   XCENC  =       451.82756652
  PAW double counting   =    113514.51340458  -113253.78410920
  entropy T*S    EENTRO =        -0.00000000
  eigenvalues    EBANDS =     -2618.96628053
  atomic energy  EATOM  =      8369.52358910
  ---------------------------------------------------
  free energy    TOTEN  =      -484.42787159 eV

  energy without entropy =     -484.42787159  energy(sigma->0) =     -484.42787159


--------------------------------------------------------------------------------------------------------




--------------------------------------- Iteration      1(  10)  ---------------------------------------


    POTLOK:  cpu time    0.7451: real time    0.7499
    SETDIJ:  cpu time    0.0026: real time    0.0026
    TRIAL :  cpu time    6.8940: real time    6.9487
    CORREC:  cpu time    2.2616: real time    2.2790
    CHARGE:  cpu time    0.8072: real time    0.8129
    --------------------------------------------
      LOOP:  cpu time   10.7468: real time   10.8526

 eigenvalue-minimisations  :     0
 total energy-change (2. order) :-0.1846712E+00  (-0.8092720E-01)
 number of electron     216.0000000 magnetization 
 augmentation part       -0.4393812 magnetization 

 Free energy of the ion-electron system (eV)
  ---------------------------------------------------
  alpha Z        PSCENC =        47.94900195
  Ewald energy   TEWEN  =     47538.22437387
  -Hartree energ DENC   =    -54531.78651800
  -exchange      EXHF   =         0.00000000
  -V(xc)+E(xc)   XCENC  =       451.68872132
  PAW double counting   =    113808.31678245  -113547.50669450
  entropy T*S    EENTRO =        -0.00000000
  eigenvalues    EBANDS =     -2621.02179895
  atomic energy  EATOM  =      8369.52358910
  ---------------------------------------------------
  free energy    TOTEN  =      -484.61254277 eV

  energy without entropy =     -484.61254277  energy(sigma->0) =     -484.61254277


--------------------------------------------------------------------------------------------------------




--------------------------------------- Iteration      1(  11)  ---------------------------------------


    POTLOK:  cpu time    0.7451: real time    0.7497
    SETDIJ:  cpu time    0.0023: real time    0.0023
    TRIAL :  cpu time    6.9058: real time    6.9603
    CORREC:  cpu time    2.2749: real time    2.2923
    CHARGE:  cpu time    0.8075: real time    0.8131
    --------------------------------------------
      LOOP:  cpu time   10.7724: real time   10.8594

 eigenvalue-minimisations  :     0
 total energy-change (2. order) :-0.8053733E-01  (-0.3054418E-01)
 number of electron     216.0000000 magnetization 
 augmentation part       -0.4376535 magnetization 

 Free energy of the ion-electron system (eV)
  ---------------------------------------------------
  alpha Z        PSCENC =        47.94900195
  Ewald energy   TEWEN  =     47538.22437387
  -Hartree energ DENC   =    -54524.75113515
  -exchange      EXHF   =         0.00000000
  -V(xc)+E(xc)   XCENC  =       451.56713728
  PAW double counting   =    113093.59459503  -112832.79214743
  entropy T*S    EENTRO =        -0.00000000
  eigenvalues    EBANDS =     -2628.00849474
  atomic energy  EATOM  =      8369.52358910
  ---------------------------------------------------
  free energy    TOTEN  =      -484.69308010 eV

  energy without entropy =     -484.69308010  energy(sigma->0) =     -484.69308010


--------------------------------------------------------------------------------------------------------




--------------------------------------- Iteration      1(  12)  ---------------------------------------


    POTLOK:  cpu time    0.7439: real time    0.7487
    SETDIJ:  cpu time    0.0023: real time    0.0023
    TRIAL :  cpu time    6.9052: real time    6.9606
    CORREC:  cpu time    2.2551: real time    2.2740
    CHARGE:  cpu time    0.8097: real time    0.8159
    --------------------------------------------
      LOOP:  cpu time   10.7202: real time   10.8439

 eigenvalue-minimisations  :     0
 total energy-change (2. order) :-0.3046114E-01  (-0.9381199E-02)
 number of electron     216.0000000 magnetization 
 augmentation part       -0.4373279 magnetization 

 Free energy of the ion-electron system (eV)
  ---------------------------------------------------
  alpha Z        PSCENC =        47.94900195
  Ewald energy   TEWEN  =     47538.22437387
  -Hartree energ DENC   =    -54520.99147899
  -exchange      EXHF   =         0.00000000
  -V(xc)+E(xc)   XCENC  =       451.50003513
  PAW double counting   =    112612.95638547  -112352.18196142
  entropy T*S    EENTRO =        -0.00000000
  eigenvalues    EBANDS =     -2631.70348634
  atomic energy  EATOM  =      8369.52358910
  ---------------------------------------------------
  free energy    TOTEN  =      -484.72354123 eV

  energy without entropy =     -484.72354123  energy(sigma->0) =     -484.72354123


--------------------------------------------------------------------------------------------------------




--------------------------------------- Iteration      1(  13)  ---------------------------------------


    POTLOK:  cpu time    0.7438: real time    0.7485
    SETDIJ:  cpu time    0.0030: real time    0.0030
    TRIAL :  cpu time    6.9083: real time    6.9627
    CORREC:  cpu time    2.2435: real time    2.2616
    CHARGE:  cpu time    0.8050: real time    0.8113
    --------------------------------------------
      LOOP:  cpu time   10.7621: real time   10.8537

 eigenvalue-minimisations  :     0
 total energy-change (2. order) :-0.9371637E-02  (-0.2477267E-02)
 number of electron     216.0000000 magnetization 
 augmentation part       -0.4370526 magnetization 

 Free energy of the ion-electron system (eV)
  ---------------------------------------------------
  alpha Z        PSCENC =        47.94900195
  Ewald energy   TEWEN  =     47538.22437387
  -Hartree energ DENC   =    -54520.10627331
  -exchange      EXHF   =         0.00000000
  -V(xc)+E(xc)   XCENC  =       451.47279834
  PAW double counting   =    112475.78470678  -112215.02069443
  entropy T*S    EENTRO =        -0.00000000
  eigenvalues    EBANDS =     -2632.56041518
  atomic energy  EATOM  =      8369.52358910
  ---------------------------------------------------
  free energy    TOTEN  =      -484.73291287 eV

  energy without entropy =     -484.73291287  energy(sigma->0) =     -484.73291287


--------------------------------------------------------------------------------------------------------




--------------------------------------- Iteration      1(  14)  ---------------------------------------


    POTLOK:  cpu time    0.7308: real time    0.7356
    SETDIJ:  cpu time    0.0023: real time    0.0023
    TRIAL :  cpu time    6.8947: real time    6.9504
    CORREC:  cpu time    2.2501: real time    2.2672
    CHARGE:  cpu time    0.8078: real time    0.8134
    --------------------------------------------
      LOOP:  cpu time   10.7423: real time   10.8274

 eigenvalue-minimisations  :     0
 total energy-change (2. order) :-0.2477012E-02  (-0.6400952E-03)
 number of electron     216.0000000 magnetization 
 augmentation part       -0.4368042 magnetization 

 Free energy of the ion-electron system (eV)
  ---------------------------------------------------
  alpha Z        PSCENC =        47.94900195
  Ewald energy   TEWEN  =     47538.22437387
  -Hartree energ DENC   =    -54519.98232034
  -exchange      EXHF   =         0.00000000
  -V(xc)+E(xc)   XCENC  =       451.46886370
  PAW double counting   =    112498.69030162  -112237.92880723
  entropy T*S    EENTRO =        -0.00000000
  eigenvalues    EBANDS =     -2632.68039255
  atomic energy  EATOM  =      8369.52358910
  ---------------------------------------------------
  free energy    TOTEN  =      -484.73538988 eV

  energy without entropy =     -484.73538988  energy(sigma->0) =     -484.73538988


--------------------------------------------------------------------------------------------------------




--------------------------------------- Iteration      1(  15)  ---------------------------------------


    POTLOK:  cpu time    0.7288: real time    0.7335
    SETDIJ:  cpu time    0.0026: real time    0.0026
    TRIAL :  cpu time    6.9046: real time    6.9592
    CORREC:  cpu time    2.2513: real time    2.2685
    CHARGE:  cpu time    0.8091: real time    0.8147
    --------------------------------------------
      LOOP:  cpu time   10.7117: real time   10.8208

 eigenvalue-minimisations  :     0
 total energy-change (2. order) :-0.6410155E-03  (-0.1824994E-03)
 number of electron     216.0000000 magnetization 
 augmentation part       -0.4366105 magnetization 

 Free energy of the ion-electron system (eV)
  ---------------------------------------------------
  alpha Z        PSCENC =        47.94900195
  Ewald energy   TEWEN  =     47538.22437387
  -Hartree energ DENC   =    -54519.80011632
  -exchange      EXHF   =         0.00000000
  -V(xc)+E(xc)   XCENC  =       451.46323785
  PAW double counting   =    112528.59985549  -112267.83795367
  entropy T*S    EENTRO =        -0.00000000
  eigenvalues    EBANDS =     -2632.85801917
  atomic energy  EATOM  =      8369.52358910
  ---------------------------------------------------
  free energy    TOTEN  =      -484.73603090 eV

  energy without entropy =     -484.73603090  energy(sigma->0) =     -484.73603090


--------------------------------------------------------------------------------------------------------




--------------------------------------- Iteration      1(  16)  ---------------------------------------


    POTLOK:  cpu time    0.7291: real time    0.7336
    SETDIJ:  cpu time    0.0024: real time    0.0024
    TRIAL :  cpu time    6.9077: real time    6.9619
    CORREC:  cpu time    2.2482: real time    2.2652
    CHARGE:  cpu time    0.8062: real time    0.8119
    --------------------------------------------
      LOOP:  cpu time   10.7495: real time   10.8363

 eigenvalue-minimisations  :     0
 total energy-change (2. order) :-0.1833009E-03  (-0.5931133E-04)
 number of electron     216.0000000 magnetization 
 augmentation part       -0.4364658 magnetization 

 Free energy of the ion-electron system (eV)
  ---------------------------------------------------
  alpha Z        PSCENC =        47.94900195
  Ewald energy   TEWEN  =     47538.22437387
  -Hartree energ DENC   =    -54519.85139086
  -exchange      EXHF   =         0.00000000
  -V(xc)+E(xc)   XCENC  =       451.46370540
  PAW double counting   =    112520.85310547  -112260.09114286
  entropy T*S    EENTRO =        -0.00000000
  eigenvalues    EBANDS =     -2632.80745627
  atomic energy  EATOM  =      8369.52358910
  ---------------------------------------------------
  free energy    TOTEN  =      -484.73621420 eV

  energy without entropy =     -484.73621420  energy(sigma->0) =     -484.73621420


--------------------------------------------------------------------------------------------------------




--------------------------------------- Iteration      1(  17)  ---------------------------------------


    POTLOK:  cpu time    0.7261: real time    0.7307
    SETDIJ:  cpu time    0.0026: real time    0.0026
    TRIAL :  cpu time    6.8994: real time    6.9551
    CORREC:  cpu time    2.2454: real time    2.2627
    CHARGE:  cpu time    0.8041: real time    0.8104
    --------------------------------------------
      LOOP:  cpu time   10.7476: real time   10.8385

 eigenvalue-minimisations  :     0
 total energy-change (2. order) :-0.5973631E-04  (-0.2036345E-04)
 number of electron     216.0000000 magnetization 
 augmentation part       -0.4364493 magnetization 

 Free energy of the ion-electron system (eV)
  ---------------------------------------------------
  alpha Z        PSCENC =        47.94900195
  Ewald energy   TEWEN  =     47538.22437387
  -Hartree energ DENC   =    -54520.02761636
  -exchange      EXHF   =         0.00000000
  -V(xc)+E(xc)   XCENC  =       451.46875325
  PAW double counting   =    112503.78692035  -112243.02549890
  entropy T*S    EENTRO =        -0.00000000
  eigenvalues    EBANDS =     -2632.63579720
  atomic energy  EATOM  =      8369.52358910
  ---------------------------------------------------
  free energy    TOTEN  =      -484.73627394 eV

  energy without entropy =     -484.73627394  energy(sigma->0) =     -484.73627394


--------------------------------------------------------------------------------------------------------




--------------------------------------- Iteration      1(  18)  ---------------------------------------


    POTLOK:  cpu time    0.7291: real time    0.7340
    SETDIJ:  cpu time    0.0025: real time    0.0025
    TRIAL :  cpu time    6.9032: real time    6.9576
    CORREC:  cpu time    2.2528: real time    2.2696
    CHARGE:  cpu time    0.8060: real time    0.8116
    --------------------------------------------
      LOOP:  cpu time   10.7303: real time   10.8401

 eigenvalue-minimisations  :     0
 total energy-change (2. order) :-0.2055911E-04  (-0.7375499E-05)
 number of electron     216.0000000 magnetization 
 augmentation part       -0.4364742 magnetization 

 Free energy of the ion-electron system (eV)
  ---------------------------------------------------
  alpha Z        PSCENC =        47.94900195
  Ewald energy   TEWEN  =     47538.22437387
  -Hartree energ DENC   =    -54520.05954014
  -exchange      EXHF   =         0.00000000
  -V(xc)+E(xc)   XCENC  =       451.46892128
  PAW double counting   =    112499.74789321  -112238.98616038
  entropy T*S    EENTRO =        -0.00000000
  eigenvalues    EBANDS =     -2632.60437339
  atomic energy  EATOM  =      8369.52358910
  ---------------------------------------------------
  free energy    TOTEN  =      -484.73629450 eV

  energy without entropy =     -484.73629450  energy(sigma->0) =     -484.73629450


--------------------------------------------------------------------------------------------------------




--------------------------------------- Iteration      1(  19)  ---------------------------------------


    POTLOK:  cpu time    0.7267: real time    0.7316
    SETDIJ:  cpu time    0.0024: real time    0.0024
    TRIAL :  cpu time    6.9054: real time    6.9602
    CORREC:  cpu time    2.2615: real time    2.2822
    CHARGE:  cpu time    0.8087: real time    0.8144
    --------------------------------------------
      LOOP:  cpu time   10.7497: real time   10.8374

 eigenvalue-minimisations  :     0
 total energy-change (2. order) :-0.7258393E-05  (-0.2805922E-05)
 number of electron     216.0000000 magnetization 
 augmentation part       -0.4365074 magnetization 

 Free energy of the ion-electron system (eV)
  ---------------------------------------------------
  alpha Z        PSCENC =        47.94900195
  Ewald energy   TEWEN  =     47538.22437387
  -Hartree energ DENC   =    -54520.08310144
  -exchange      EXHF   =         0.00000000
  -V(xc)+E(xc)   XCENC  =       451.46954701
  PAW double counting   =    112504.49122645  -112243.72929281
  entropy T*S    EENTRO =        -0.00000000
  eigenvalues    EBANDS =     -2632.58164588
  atomic energy  EATOM  =      8369.52358910
  ---------------------------------------------------
  free energy    TOTEN  =      -484.73630175 eV

  energy without entropy =     -484.73630175  energy(sigma->0) =     -484.73630175


--------------------------------------------------------------------------------------------------------




--------------------------------------- Iteration      1(  20)  ---------------------------------------


    POTLOK:  cpu time    0.7275: real time    0.7321
    SETDIJ:  cpu time    0.0025: real time    0.0025
    TRIAL :  cpu time    6.8918: real time    6.9451
    CORREC:  cpu time    2.2477: real time    2.2646
    CHARGE:  cpu time    0.8119: real time    0.8175
    --------------------------------------------
      LOOP:  cpu time   10.7323: real time   10.8140

 eigenvalue-minimisations  :     0
 total energy-change (2. order) :-0.2477842E-05  (-0.1041357E-05)
 number of electron     216.0000000 magnetization 
 augmentation part       -0.4365282 magnetization 

 Free energy of the ion-electron system (eV)
  ---------------------------------------------------
  alpha Z        PSCENC =        47.94900195
  Ewald energy   TEWEN  =     47538.22437387
  -Hartree energ DENC   =    -54520.11022572
  -exchange      EXHF   =         0.00000000
  -V(xc)+E(xc)   XCENC  =       451.47023006
  PAW double counting   =    112509.91104039  -112249.14901381
  entropy T*S    EENTRO =        -0.00000000
  eigenvalues    EBANDS =     -2632.55530007
  atomic energy  EATOM  =      8369.52358910
  ---------------------------------------------------
  free energy    TOTEN  =      -484.73630423 eV

  energy without entropy =     -484.73630423  energy(sigma->0) =     -484.73630423


--------------------------------------------------------------------------------------------------------




--------------------------------------- Iteration      1(  21)  ---------------------------------------


    POTLOK:  cpu time    0.7240: real time    0.7287
    SETDIJ:  cpu time    0.0026: real time    0.0026
    TRIAL :  cpu time    6.8962: real time    6.9495
    CORREC:  cpu time    2.2447: real time    2.2620
    CHARGE:  cpu time    0.8043: real time    0.8097
    --------------------------------------------
      LOOP:  cpu time   10.7319: real time   10.8587

 eigenvalue-minimisations  :     0
 total energy-change (2. order) :-0.7958442E-06  (-0.4761556E-06)
 number of electron     216.0000000 magnetization 
 augmentation part       -0.4365252 magnetization 

 Free energy of the ion-electron system (eV)
  ---------------------------------------------------
  alpha Z        PSCENC =        47.94900195
  Ewald energy   TEWEN  =     47538.22437387
  -Hartree energ DENC   =    -54520.10864078
  -exchange      EXHF   =         0.00000000
  -V(xc)+E(xc)   XCENC  =       451.46998236
  PAW double counting   =    112511.75854873  -112250.99644679
  entropy T*S    EENTRO =        -0.00000000
  eigenvalues    EBANDS =     -2632.55671347
  atomic energy  EATOM  =      8369.52358910
  ---------------------------------------------------
  free energy    TOTEN  =      -484.73630503 eV

  energy without entropy =     -484.73630503  energy(sigma->0) =     -484.73630503


--------------------------------------------------------------------------------------------------------




--------------------------------------- Iteration      1(  22)  ---------------------------------------


    POTLOK:  cpu time    0.7269: real time    0.7318
    SETDIJ:  cpu time    0.0026: real time    0.0026
    TRIAL :  cpu time    6.8976: real time    6.9505
    CORREC:  cpu time    2.2463: real time    2.2631
    CHARGE:  cpu time    0.8066: real time    0.8122
    --------------------------------------------
      LOOP:  cpu time   10.6926: real time   10.8206

 eigenvalue-minimisations  :     0
 total energy-change (2. order) :-0.3275200E-06  (-0.2325793E-06)
 number of electron     216.0000000 magnetization 
 augmentation part       -0.4365237 magnetization 

 Free energy of the ion-electron system (eV)
  ---------------------------------------------------
  alpha Z        PSCENC =        47.94900195
  Ewald energy   TEWEN  =     47538.22437387
  -Hartree energ DENC   =    -54520.10968662
  -exchange      EXHF   =         0.00000000
  -V(xc)+E(xc)   XCENC  =       451.47010968
  PAW double counting   =    112510.71692919  -112249.95491199
  entropy T*S    EENTRO =        -0.00000000
  eigenvalues    EBANDS =     -2632.55571053
  atomic energy  EATOM  =      8369.52358910
  ---------------------------------------------------
  free energy    TOTEN  =      -484.73630535 eV

  energy without entropy =     -484.73630535  energy(sigma->0) =     -484.73630535


--------------------------------------------------------------------------------------------------------




--------------------------------------- Iteration      1(  23)  ---------------------------------------


    POTLOK:  cpu time    0.7278: real time    0.7324
    SETDIJ:  cpu time    0.0024: real time    0.0024
    TRIAL :  cpu time    6.9076: real time    6.9598
    CORREC:  cpu time    2.2491: real time    2.2658
    CHARGE:  cpu time    0.8087: real time    0.8143
    --------------------------------------------
      LOOP:  cpu time   10.7244: real time   10.8137

 eigenvalue-minimisations  :     0
 total energy-change (2. order) :-0.1793815E-06  (-0.1907025E-06)
 number of electron     216.0000000 magnetization 
 augmentation part       -0.4365220 magnetization 

 Free energy of the ion-electron system (eV)
  ---------------------------------------------------
  alpha Z        PSCENC =        47.94900195
  Ewald energy   TEWEN  =     47538.22437387
  -Hartree energ DENC   =    -54520.10358898
  -exchange      EXHF   =         0.00000000
  -V(xc)+E(xc)   XCENC  =       451.46992219
  PAW double counting   =    112509.48400293  -112248.72200102
  entropy T*S    EENTRO =        -0.00000000
  eigenvalues    EBANDS =     -2632.56160557
  atomic energy  EATOM  =      8369.52358910
  ---------------------------------------------------
  free energy    TOTEN  =      -484.73630553 eV

  energy without entropy =     -484.73630553  energy(sigma->0) =     -484.73630553


--------------------------------------------------------------------------------------------------------




--------------------------------------- Iteration      1(  24)  ---------------------------------------


    POTLOK:  cpu time    0.7290: real time    0.7337
    SETDIJ:  cpu time    0.0026: real time    0.0026
    TRIAL :  cpu time    6.9024: real time    6.9554
    CORREC:  cpu time    2.2432: real time    2.2606
    CHARGE:  cpu time    0.8087: real time    0.8144
    --------------------------------------------
      LOOP:  cpu time   10.7123: real time   10.8120

 eigenvalue-minimisations  :     0
 total energy-change (2. order) :-0.7997733E-07  (-0.1655629E-06)
 number of electron     216.0000000 magnetization 
 augmentation part       -0.4365169 magnetization 

 Free energy of the ion-electron system (eV)
  ---------------------------------------------------
  alpha Z        PSCENC =        47.94900195
  Ewald energy   TEWEN  =     47538.22437387
  -Hartree energ DENC   =    -54520.09684605
  -exchange      EXHF   =         0.00000000
  -V(xc)+E(xc)   XCENC  =       451.46977609
  PAW double counting   =    112508.45159873  -112247.68960052
  entropy T*S    EENTRO =        -0.00000000
  eigenvalues    EBANDS =     -2632.56819878
  atomic energy  EATOM  =      8369.52358910
  ---------------------------------------------------
  free energy    TOTEN  =      -484.73630561 eV

  energy without entropy =     -484.73630561  energy(sigma->0) =     -484.73630561


--------------------------------------------------------------------------------------------------------




--------------------------------------- Iteration      1(  25)  ---------------------------------------


    POTLOK:  cpu time    0.7205: real time    0.7254
    SETDIJ:  cpu time    0.0023: real time    0.0023
    TRIAL :  cpu time    6.8978: real time    6.9524
    CORREC:  cpu time    2.2460: real time    2.2630
    CHARGE:  cpu time    0.8065: real time    0.8123
    --------------------------------------------
      LOOP:  cpu time   10.7754: real time   10.8747

 eigenvalue-minimisations  :     0
 total energy-change (2. order) : 0.2383167E-06  (-0.2611461E-06)
 number of electron     216.0000000 magnetization 
 augmentation part       -0.4365239 magnetization 

 Free energy of the ion-electron system (eV)
  ---------------------------------------------------
  alpha Z        PSCENC =        47.94900195
  Ewald energy   TEWEN  =     47538.22437387
  -Hartree energ DENC   =    -54520.09588259
  -exchange      EXHF   =         0.00000000
  -V(xc)+E(xc)   XCENC  =       451.46998222
  PAW double counting   =    112507.77114504  -112247.00918653
  entropy T*S    EENTRO =        -0.00000000
  eigenvalues    EBANDS =     -2632.56932843
  atomic energy  EATOM  =      8369.52358910
  ---------------------------------------------------
  free energy    TOTEN  =      -484.73630538 eV

  energy without entropy =     -484.73630538  energy(sigma->0) =     -484.73630538


--------------------------------------------------------------------------------------------------------




--------------------------------------- Iteration      1(  26)  ---------------------------------------


    POTLOK:  cpu time    0.7283: real time    0.7328
    SETDIJ:  cpu time    0.0023: real time    0.0023
    TRIAL :  cpu time    6.8996: real time    6.9528
    CORREC:  cpu time    8.9636: real time    9.0372
    CHARGE:  cpu time    0.8045: real time    0.8102
    --------------------------------------------
      LOOP:  cpu time   17.4360: real time   17.5737

 eigenvalue-minimisations  :     0
 total energy-change (2. order) :-0.2321030E-06  (-0.6962303E-06)
 number of electron     216.0000000 magnetization 
 augmentation part       -0.4365073 magnetization 

 Free energy of the ion-electron system (eV)
  ---------------------------------------------------
  alpha Z        PSCENC =        47.94900195
  Ewald energy   TEWEN  =     47538.22437387
  -Hartree energ DENC   =    -54520.08956815
  -exchange      EXHF   =         0.00000000
  -V(xc)+E(xc)   XCENC  =       451.46957185
  PAW double counting   =    112507.97469641  -112247.21265338
  entropy T*S    EENTRO =        -0.00000000
  eigenvalues    EBANDS =     -2632.57531727
  atomic energy  EATOM  =      8369.52358910
  ---------------------------------------------------
  free energy    TOTEN  =      -484.73630561 eV

  energy without entropy =     -484.73630561  energy(sigma->0) =     -484.73630561


--------------------------------------------------------------------------------------------------------




--------------------------------------- Iteration      1(  27)  ---------------------------------------


    POTLOK:  cpu time    0.7285: real time    0.7334
    SETDIJ:  cpu time    0.0025: real time    0.0025
    TRIAL :  cpu time    6.8992: real time    6.9543
    CORREC:  cpu time    2.2585: real time    2.2767
    CHARGE:  cpu time    0.8071: real time    0.8126
    --------------------------------------------
      LOOP:  cpu time   10.7233: real time   10.8429

 eigenvalue-minimisations  :     0
 total energy-change (2. order) : 0.1291759E-05  (-0.1200564E-05)
 number of electron     216.0000000 magnetization 
 augmentation part       -0.4365277 magnetization 

 Free energy of the ion-electron system (eV)
  ---------------------------------------------------
  alpha Z        PSCENC =        47.94900195
  Ewald energy   TEWEN  =     47538.22437387
  -Hartree energ DENC   =    -54520.12984952
  -exchange      EXHF   =         0.00000000
  -V(xc)+E(xc)   XCENC  =       451.47115371
  PAW double counting   =    112509.66055737  -112248.89875778
  entropy T*S    EENTRO =        -0.00000000
  eigenvalues    EBANDS =     -2632.53637302
  atomic energy  EATOM  =      8369.52358910
  ---------------------------------------------------
  free energy    TOTEN  =      -484.73630432 eV

  energy without entropy =     -484.73630432  energy(sigma->0) =     -484.73630432


--------------------------------------------------------------------------------------------------------




--------------------------------------- Iteration      1(  28)  ---------------------------------------


    POTLOK:  cpu time    0.7267: real time    0.7314
    SETDIJ:  cpu time    0.0025: real time    0.0025
    TRIAL :  cpu time    6.9005: real time    6.9586
    CORREC:  cpu time    2.2447: real time    2.2636
    CHARGE:  cpu time    0.8083: real time    0.8144
    --------------------------------------------
      LOOP:  cpu time   10.7452: real time   10.8413

 eigenvalue-minimisations  :     0
 total energy-change (2. order) :-0.1172302E-05  (-0.2220594E-06)
 number of electron     216.0000000 magnetization 
 augmentation part       -0.4365225 magnetization 

 Free energy of the ion-electron system (eV)
  ---------------------------------------------------
  alpha Z        PSCENC =        47.94900195
  Ewald energy   TEWEN  =     47538.22437387
  -Hartree energ DENC   =    -54520.10007697
  -exchange      EXHF   =         0.00000000
  -V(xc)+E(xc)   XCENC  =       451.46973093
  PAW double counting   =    112509.73685675  -112248.97479065
  entropy T*S    EENTRO =        -0.00000000
  eigenvalues    EBANDS =     -2632.56499047
  atomic energy  EATOM  =      8369.52358910
  ---------------------------------------------------
  free energy    TOTEN  =      -484.73630549 eV

  energy without entropy =     -484.73630549  energy(sigma->0) =     -484.73630549


--------------------------------------------------------------------------------------------------------




--------------------------------------- Iteration      1(  29)  ---------------------------------------


[...]
     30     C        0.00053521
     31     C       -0.00250338
     32     C       -0.00088924
     33     C        0.00053698
     34     C        0.00038849
     35     C        0.00051458
     36     C        0.00046335
     37     C        0.00002141
     38     C        0.00006973
     39     C       -0.00026417
     40     C       -0.00014685
     41     C       -0.00013477
     42     C       -0.00050727
     43     C        0.00016328
     44     C       -0.00001704
     45     C        0.00057238
     46     C        0.00089296
     47     C        0.00052818
     48     C        0.00042581
     49     C        0.00008456
     50     C       -0.00000317
     51     C        0.29172441
     52     O       -0.13844129
     53     O       -0.13567510

  Atomic reference data used in the T-S method for vdW correction:
            C6at              R0at           ALPHAat      REFSTATE
            (au)              (au)            (au)                
   ---------------------------------------------------------------
   C          46.600          3.590         12.000         0
   O          15.600          3.194          5.400         0
 
 Nth order contribution to Edisp (eV)
 Edisp(N=2):  -4.69205963581396     
 Edisp(N=3):  0.366781624990011     
 Edisp(N=4): -0.532903399839431     
 Edisp(N=5):  0.246246027780685     
 Edisp(N=6): -0.236815652327209     
 Edisp(N=inf):  -4.75786161928556     

  Tkatchenko/Scheffler method for vdW energy calculation
  ---------------------------------------------------------------------------------------------

  Parameters of vdW forcefield:
            C6ts              R0ts          ALPHAts         R0scs        ALPHAscs        RELVOL 
            (au)              (au)           (au)            (au)          (au)                 
   ---------------------------------------------------------------------------------------------
   C          32.951          3.389         10.091          3.266          9.028          0.841
   C          33.071          3.391         10.109          3.267          9.043          0.842
   C          33.198          3.393         10.128          3.271          9.076          0.844
   C          33.675          3.401         10.201          3.269          9.056          0.850
   C          32.941          3.389         10.089          3.266          9.029          0.841
   C          32.942          3.389         10.089          3.266          9.028          0.841
   C          33.571          3.400         10.185          3.274          9.098          0.849
   C          33.712          3.402         10.207          3.276          9.119          0.851
   C          33.304          3.395         10.145          3.272          9.085          0.845
   C          33.811          3.404         10.221          3.267          9.040          0.852
   C          32.881          3.388         10.080          3.267          9.041          0.840
   C          32.875          3.388         10.079          3.267          9.043          0.840
   C          33.861          3.404         10.229          3.270          9.063          0.852
   C          33.248          3.394         10.136          3.271          9.071          0.845
   C          32.931          3.389         10.088          3.263          9.010          0.841
   C          33.012          3.390         10.100          3.265          9.026          0.842
   C          32.887          3.388         10.081          3.268          9.045          0.840
   C          32.900          3.388         10.083          3.265          9.026          0.840
   C          33.038          3.390         10.104          3.269          9.059          0.842
   C          32.909          3.388         10.084          3.265          9.020          0.840
   C          33.123          3.392         10.117          3.265          9.022          0.843
   C          32.964          3.389         10.093          3.264          9.018          0.841
   C          34.086          3.408         10.263          3.262          8.998          0.855
   C          33.955          3.406         10.243          3.262          8.996          0.854
   C          32.879          3.388         10.080          3.267          9.037          0.840
   C          32.885          3.388         10.081          3.265          9.020          0.840
   C          33.421          3.397         10.162          3.274          9.102          0.847
   C          33.269          3.394         10.139          3.275          9.106          0.845
   C          32.992          3.390         10.097          3.267          9.039          0.841
   C          32.888          3.388         10.081          3.267          9.037          0.840
   C          33.394          3.397         10.158          3.272          9.081          0.847
   C          33.061          3.391         10.107          3.270          9.065          0.842
   C          32.879          3.388         10.080          3.267          9.038          0.840
   C          32.884          3.388         10.080          3.267          9.041          0.840
   C          32.902          3.388         10.083          3.266          9.029          0.840
   C          32.899          3.388         10.083          3.265          9.020          0.840
   C          32.965          3.389         10.093          3.265          9.021          0.841
   C          32.914          3.388         10.085          3.264          9.015          0.840
   C          32.931          3.389         10.088          3.265          9.026          0.841
   C          32.905          3.388         10.084          3.267          9.041          0.840
   C          32.912          3.388         10.085          3.266          9.035          0.840
   C          32.973          3.389         10.094          3.267          9.037          0.841
   C          32.925          3.389         10.087          3.264          9.018          0.841
   C          33.131          3.392         10.118          3.272          9.080          0.843
   C          32.888          3.388         10.081          3.266          9.033          0.840
   C          32.981          3.389         10.095          3.266          9.032          0.841
   C          32.882          3.388         10.080          3.265          9.024          0.840
   C          32.876          3.388         10.079          3.267          9.039          0.840
   C          32.897          3.388         10.082          3.266          9.033          0.840
   C          32.895          3.388         10.082          3.266          9.035          0.840
   C          27.947          3.297          9.293          3.198          8.476          0.774
   O          12.322          3.071          4.799          2.991          4.437          0.889
   O          12.284          3.069          4.792          2.985          4.411          0.887

  vdW correction parametrized for the method pbe       

  IVDW = 202
  VDW_RADIUS =    50.000 A
  VDW_SR =     0.830
  VDW_D =     6.000
  SCSRAD =   120.000 A
  LVDWSCS = T
  LSCSGRAD = T
  LSCALER0 = T
  ITIM = -1
  Edisp (eV):   -4.75786
    FORVDW:  cpu time   18.6641: real time   18.7905

 VOLUME and BASIS-vectors are now :
 -----------------------------------------------------------------------------
  energy-cutoff  :     1000.00
  volume of cell :     3288.85
      direct lattice vectors                 reciprocal lattice vectors
    12.325000000  0.000000000  0.000000000     0.081135903  0.046843835  0.000000000
    -6.162500000 10.673763102  0.000000000     0.000000000  0.093687670  0.000000000
     0.000000000  0.000000000 25.000000000     0.000000000  0.000000000  0.040000000

  length of vectors
    12.325000000 12.325000000 25.000000000     0.093687670  0.093687670  0.040000000


 FORCES acting on ions:
    Electron-Ion                     Ewald-Force                    Non-Local-Force
 -----------------------------------------------------------------------------------------------
   0.112E+02 0.983E+01 0.255E+02   -.112E+02 -.982E+01 -.255E+02   0.139E-01 -.548E-02 0.111E-01
   0.184E+02 0.914E+01 0.333E+02   -.184E+02 -.913E+01 -.333E+02   0.203E-01 -.129E-01 -.106E-01
   0.915E+01 0.233E+02 0.412E+02   -.914E+01 -.234E+02 -.412E+02   -.253E-02 0.471E-01 0.281E-01
   0.146E+02 0.214E+02 0.661E+02   -.147E+02 -.214E+02 -.662E+02   0.559E-01 0.236E-01 0.773E-01
   0.122E+02 0.289E+01 0.256E+02   -.122E+02 -.287E+01 -.255E+02   0.351E-02 -.171E-01 -.629E-02
   0.128E+02 -.218E+01 0.261E+02   -.128E+02 0.219E+01 -.261E+02   -.201E-01 -.334E-02 -.156E-01
   0.250E+02 0.102E+02 0.567E+02   -.250E+02 -.101E+02 -.567E+02   0.531E-01 -.637E-01 -.155E-01
   0.247E+02 -.834E+01 0.604E+02   -.247E+02 0.837E+01 -.603E+02   0.434E-02 -.298E-01 -.106E+00
   -.101E+02 0.216E+02 0.424E+02   0.102E+02 -.216E+02 -.423E+02   -.204E-01 -.761E-02 -.427E-01
   -.186E+02 0.159E+02 0.643E+02   0.187E+02 -.160E+02 -.642E+02   -.731E-01 0.416E-01 -.817E-01
   0.299E+01 -.264E+01 0.207E+02   -.297E+01 0.263E+01 -.206E+02   -.501E-02 0.363E-02 -.583E-02
   0.238E+01 -.193E+01 0.192E+02   -.237E+01 0.193E+01 -.192E+02   -.154E-01 0.672E-02 0.153E-02
   0.947E+01 -.227E+02 0.690E+02   -.957E+01 0.228E+02 -.689E+02   0.915E-01 -.238E-01 -.910E-01
   0.435E+01 -.236E+02 0.420E+02   -.438E+01 0.236E+02 -.420E+02   0.265E-01 0.169E-02 -.439E-01
   -.109E+02 0.686E+01 0.250E+02   0.109E+02 -.685E+01 -.250E+02   0.156E-01 -.835E-02 -.849E-02
   -.162E+02 0.456E+01 0.293E+02   0.162E+02 -.457E+01 -.292E+02   -.103E-02 0.107E-01 -.273E-01
   -.162E+01 -.665E+00 0.185E+02   0.163E+01 0.662E+00 -.185E+02   -.543E-02 0.472E-03 0.916E-03
   0.898E+00 0.598E+01 0.197E+02   -.893E+00 -.598E+01 -.197E+02   -.870E-02 0.391E-02 0.844E-02
   -.335E+01 -.193E+02 0.318E+02   0.332E+01 0.194E+02 -.318E+02   0.273E-01 -.623E-02 0.614E-02
   -.142E+01 -.929E+01 0.218E+02   0.141E+01 0.929E+01 -.218E+02   0.573E-02 -.570E-02 -.206E-02
   0.192E+02 -.835E+01 0.361E+02   -.192E+02 0.835E+01 -.360E+02   -.717E-02 -.512E-02 -.532E-01
   0.113E+02 -.979E+01 0.281E+02   -.113E+02 0.977E+01 -.280E+02   -.141E-01 0.170E-01 -.194E-01
   -.469E+01 0.106E+02 0.849E+02   0.477E+01 -.106E+02 -.850E+02   -.693E-01 0.557E-01 0.686E-01
   -.829E+01 -.168E+02 0.800E+02   0.825E+01 0.169E+02 -.801E+02   0.469E-01 -.688E-01 0.651E-01
   0.521E+01 -.231E+01 0.208E+02   -.519E+01 0.230E+01 -.208E+02   -.990E-02 0.189E-02 -.100E-01
   0.962E+00 0.468E+01 0.210E+02   -.954E+00 -.468E+01 -.210E+02   -.131E-01 0.623E-02 -.126E-02
   -.249E+02 0.287E+01 0.470E+02   0.249E+02 -.291E+01 -.470E+02   -.187E-02 0.289E-01 -.467E-01
   -.227E+02 -.972E+01 0.422E+02   0.227E+02 0.969E+01 -.422E+02   -.383E-01 0.330E-01 0.843E-02
   0.690E+01 -.141E+02 0.294E+02   -.691E+01 0.141E+02 -.294E+02   0.112E-01 0.947E-02 -.240E-01
   0.643E+00 -.520E+01 0.222E+02   -.654E+00 0.519E+01 -.222E+02   0.173E-02 0.927E-02 -.967E-02
   -.185E+02 -.200E+02 0.524E+02   0.186E+02 0.200E+02 -.525E+02   -.472E-01 -.297E-01 0.492E-01
   -.104E+02 -.190E+02 0.340E+02   0.104E+02 0.190E+02 -.341E+02   -.188E-03 -.276E-01 0.181E-01
   0.608E+00 0.250E+01 0.191E+02   -.614E+00 -.250E+01 -.191E+02   0.119E-01 -.863E-02 0.364E-02
   0.174E+01 0.253E+01 0.206E+02   -.174E+01 -.252E+01 -.206E+02   0.585E-03 -.332E-02 -.627E-02
   -.759E+01 0.939E+00 0.226E+02   0.759E+01 -.946E+00 -.226E+02   0.104E-01 0.184E-02 -.301E-02
   -.651E+01 -.260E+01 0.220E+02   0.652E+01 0.259E+01 -.219E+02   -.110E-01 0.868E-02 -.329E-02
   -.133E+02 -.694E+01 0.261E+02   0.133E+02 0.694E+01 -.261E+02   -.158E-01 0.408E-02 -.230E-03
   -.764E+01 -.621E+01 0.216E+02   0.765E+01 0.620E+01 -.216E+02   -.109E-01 0.321E-02 0.986E-02
   -.719E+01 -.941E+01 0.232E+02   0.720E+01 0.941E+01 -.232E+02   -.113E-01 -.758E-02 0.717E-02
   -.106E+01 -.223E+01 0.197E+02   0.105E+01 0.223E+01 -.197E+02   0.225E-02 -.211E-02 0.809E-02
   0.270E+01 0.645E+01 0.206E+02   -.269E+01 -.646E+01 -.206E+02   -.431E-02 0.954E-02 0.768E-02
   0.901E+01 0.141E+02 0.272E+02   -.903E+01 -.141E+02 -.272E+02   0.115E-01 0.120E-01 0.139E-01
   0.718E+00 0.115E+02 0.230E+02   -.708E+00 -.115E+02 -.230E+02   -.836E-02 0.861E-02 -.192E-02
   0.133E+00 0.218E+02 0.351E+02   -.103E+00 -.218E+02 -.352E+02   -.350E-01 0.113E-01 0.624E-02
   -.219E+01 0.436E+01 0.221E+02   0.219E+01 -.435E+01 -.221E+02   0.136E-02 -.779E-02 -.720E-02
   -.929E+01 0.118E+02 0.280E+02   0.929E+01 -.118E+02 -.280E+02   -.958E-02 -.230E-02 -.213E-01
   -.157E+01 -.441E+01 0.204E+02   0.156E+01 0.441E+01 -.204E+02   0.146E-01 -.200E-02 0.967E-03
   -.410E+01 0.167E+01 0.196E+02   0.408E+01 -.167E+01 -.196E+02   0.799E-02 -.623E-03 -.852E-02
   0.318E+00 -.273E+01 0.193E+02   -.321E+00 0.273E+01 -.193E+02   0.811E-02 -.370E-02 0.561E-02
   0.432E+01 0.317E+01 0.196E+02   -.433E+01 -.317E+01 -.196E+02   0.563E-02 0.263E-02 0.313E-02
   0.159E+00 -.108E+00 -.410E+03   -.153E+00 0.103E+00 0.411E+03   -.112E-01 0.581E-02 -.228E-01
   -.229E+03 0.156E+03 -.629E+03   0.279E+03 -.190E+03 0.632E+03   -.510E+02 0.347E+02 -.313E+01
   0.229E+03 -.156E+03 -.607E+03   -.279E+03 0.190E+03 0.603E+03   0.509E+02 -.347E+02 0.336E+01
 -----------------------------------------------------------------------------------------------
   0.271E-01 0.222E-02 0.609E-01   0.114E-12 -.114E-12 0.227E-12   -.278E-01 -.186E-02 -.580E-01
 
 
 POSITION                                       TOTAL-FORCE (eV/Angst)
 -----------------------------------------------------------------------------------
     11.98348      0.00342      0.01417         0.000434      0.000213     -0.000711
     -0.34154      1.42665      0.01100         0.003195      0.004038     -0.000628
      2.12355      0.00315      0.01249         0.003090     -0.003639      0.001658
      2.12326      1.42653      0.00641        -0.004897      0.001882     -0.003711
     10.75099      2.13819      0.01213         0.000343     -0.005523      0.001747
     -1.57382      3.56123      0.01110        -0.005011      0.008358      0.000291
      0.89078      2.13854      0.00548        -0.002378      0.002549     -0.003898
      0.89099      3.56147      0.00181        -0.007512      0.006169     -0.014999
      4.58864      0.00346      0.01135         0.006582      0.004365     -0.003050
      4.58894      1.42623      0.00646         0.003388     -0.002777     -0.019264
      9.51854      4.27281      0.01369         0.007832     -0.007862      0.000382
     -2.80632      5.69591      0.01434        -0.009306      0.004993      0.001150
      2.12300      4.27302      0.00000        -0.005032      0.010781     -0.025404
      2.12335      5.69594      0.00581        -0.004081     -0.010580     -0.002028
      7.05344      0.00333      0.01399         0.006283     -0.002941      0.001413
      7.05353      1.42635      0.01368        -0.006332      0.006686     -0.001305
      8.28610      6.40752      0.01601         0.004296     -0.002554     -0.000496
     -4.03885      7.83070      0.01636        -0.003048      0.002084      0.000033
      3.35586      6.40753      0.01007         0.002242     -0.000268      0.001130
      3.35599      7.83072      0.01320        -0.002293     -0.001521      0.000169
     -0.34146      4.27290      0.00723         0.012114     -0.008637     -0.002006
     -0.34138      5.69591      0.00946        -0.007265      0.003125      0.002204
      3.35624      2.13791      0.00222         0.003688     -0.004871     -0.035030
      3.35573      3.56155      0.00139         0.001175      0.007529     -0.023592
     -1.57395      6.40758      0.01311         0.010681     -0.003988     -0.000630
     -1.57385      7.83068      0.01438        -0.004838      0.003233      0.000471
      5.82093      2.13784      0.01033         0.000180     -0.005872     -0.005095
      5.82114      3.56097      0.01156        -0.004003     -0.000139      0.001547
      0.89092      6.40755      0.00907         0.005559     -0.000179      0.001358
      0.89106      7.83068      0.01235        -0.009985     -0.001435      0.000500
      4.58871      4.27293      0.00850         0.002517     -0.005307      0.000592
      4.58852      5.69606      0.01149         0.000483      0.005357     -0.000032
      9.51845      0.00337      0.01490         0.005925     -0.005909      0.000489
      9.51855      1.42644      0.01438        -0.004170      0.009853     -0.000296
      8.28593      2.13803      0.01453         0.003515     -0.007301      0.001129
      8.28613      3.56115      0.01464        -0.003601      0.002798      0.000468
      7.05356      4.27269      0.01457         0.000862     -0.002504      0.000638
      7.05362      5.69588      0.01553        -0.001004      0.001106     -0.000064
      5.82112      6.40755      0.01489        -0.003092      0.001828     -0.000079
      5.82102      7.83073      0.01579         0.000886      0.002105     -0.000223
      7.05363      8.54227      0.01631        -0.003221     -0.000795      0.001129
     -5.27149      9.96549      0.01495         0.000968     -0.002569     -0.001736
     -2.80638      8.54234      0.01558         0.002381      0.000843     -0.000471
     -2.80627      9.96553      0.01362        -0.003907      0.002014      0.000095
     -0.34149      8.54239      0.01378         0.007672     -0.000382      0.000657
     -0.34138      9.96550      0.01354        -0.009110      0.002813      0.001027
      2.12343      8.54232      0.01336         0.006288     -0.000535      0.001129
      2.12354      9.96544      0.01469        -0.008072      0.004290     -0.001982
      4.58846      8.54235      0.01505         0.005789     -0.004125      0.001153
      4.58853      9.96550      0.01517        -0.003048      0.003782      0.000681
      3.04930      2.68154      3.14980        -0.005256      0.001682      0.010810
      4.02070      2.02068      3.21422        -0.520015      0.362376      0.013762
      2.07767      3.34267      3.09035         0.532109     -0.374642      0.098919
 -----------------------------------------------------------------------------------
    total drift:                               -0.000692      0.000359      0.002863


--------------------------------------------------------------------------------------------------------



  FREE ENERGIE OF THE ION-ELECTRON SYSTEM (eV)
  ---------------------------------------------------
  free  energy   TOTEN  =      -489.49416732 eV

  energy  without entropy=     -489.49416732  energy(sigma->0) =     -489.49416732
 


--------------------------------------------------------------------------------------------------------


    POTLOK:  cpu time    0.7402: real time    0.7451


--------------------------------------------------------------------------------------------------------


     LOOP+:  cpu time  426.5434: real time  430.3945
    4ORBIT:  cpu time    0.0000: real time    0.0000

 total amount of memory used by VASP MPI-rank0   551512. kBytes
=======================================================================

   base      :      30000. kBytes
   nonl-proj :     230539. kBytes
   fftplans  :      40716. kBytes
   grid      :     216018. kBytes
   one-center:        162. kBytes
   wavefun   :      34077. kBytes
 
  
  
 General timing and accounting informations for this job:
 ========================================================
  
                  Total CPU time used (sec):      472.359
                            User time (sec):      446.230
                          System time (sec):       26.130
                         Elapsed time (sec):      477.598
  
                   Maximum memory used (kb):     1006932.
                   Average memory used (kb):          N/A
  
                          Minor page faults:       126114
                          Major page faults:           95
                 Voluntary context switches:         3574
