 vasp.6.2.1 16May21 (build Nov 06 2021 14:46:37) complex                        
  
 executed on             LinuxIFC date 2025.04.16  19:01:54
 running on  112 total cores
 distrk:  each k-point on   56 cores,    2 groups
 distr:  one band on NCORE=   1 cores,   56 groups


--------------------------------------------------------------------------------------------------------


 INCAR:
   ALGO = Conjugate
   KPAR = 2
   NCORE = 32
   PREC = Accurate
   EDIFF = 1E-7
   ENCUT = 1000
   ISMEAR = 0
   SIGMA = 0.01
   ISIF = 0
   GGA = PE
   IVDW = 202
   LVDWEXPANSION = .TRUE.
   LWAVE = .FALSE.
   LCHARGE = .FALSE.
   SYMPREC = 1E-7

 POTCAR:    PAW_PBE C_h 06Feb2004                 
 POTCAR:    PAW_PBE O_h 06Feb2004                 
 -----------------------------------------------------------------------------
|                                                                             |
|           W    W    AA    RRRRR   N    N  II  N    N   GGGG   !!!           |
|           W    W   A  A   R    R  NN   N  II  NN   N  G    G  !!!           |
|           W    W  A    A  R    R  N N  N  II  N N  N  G       !!!           |
|           W WW W  AAAAAA  RRRRR   N  N N  II  N  N N  G  GGG   !            |
|           WW  WW  A    A  R   R   N   NN  II  N   NN  G    G                |
|           W    W  A    A  R    R  N    N  II  N    N   GGGG   !!!           |
|                                                                             |
|     The value NCORE = 32 specified in the INCAR file was overwritten,       |
|     because it was not compatible with the 56 processes available:          |
|     NCORE = 1                                                               |
|     was used instead, please check that this makes sense for your           |
|     machine.                                                                |
|                                                                             |
 -----------------------------------------------------------------------------

 -----------------------------------------------------------------------------
|                                                                             |
|           W    W    AA    RRRRR   N    N  II  N    N   GGGG   !!!           |
|           W    W   A  A   R    R  NN   N  II  NN   N  G    G  !!!           |
|           W    W  A    A  R    R  N N  N  II  N N  N  G       !!!           |
|           W WW W  AAAAAA  RRRRR   N  N N  II  N  N N  G  GGG   !            |
|           WW  WW  A    A  R   R   N   NN  II  N   NN  G    G                |
|           W    W  A    A  R    R  N    N  II  N    N   GGGG   !!!           |
|                                                                             |
|     For optimal performance we recommend to set                             |
|       NCORE = 2 up to number-of-cores-per-socket                            |
|     NCORE specifies how many cores store one orbital (NPAR=cpu/NCORE).      |
|     This setting can greatly improve the performance of VASP for DFT.       |
|     The default, NCORE=1 might be grossly inefficient on modern             |
|     multi-core architectures or massively parallel machines. Do your        |
|     own testing! More info at https://www.vasp.at/wiki/index.php/NCORE      |
|     Unfortunately you need to use the default for GW and RPA                |
|     calculations (for HF NCORE is supported but not extensively tested      |
|     yet).                                                                   |
|                                                                             |
 -----------------------------------------------------------------------------

 POTCAR:    PAW_PBE C_h 06Feb2004                 
   VRHFIN =C: s2p2                                                                                  
   LEXCH  = PE                                                                                      
   EATOM  =   147.1560 eV,   10.8157 Ry                                                             
                                                                                                    
   TITEL  = PAW_PBE C_h 06Feb2004                                                                   
   LULTRA =        F    use ultrasoft PP ?                                                          
   IUNSCR =        1    unscreen: 0-lin 1-nonlin 2-no                                               
   RPACOR =    0.800    partial core radius                                                         
   POMASS =   12.011; ZVAL   =    4.000    mass and valenz                                          
   RCORE  =    1.100    outmost cutoff radius                                                       
   RWIGS  =    1.630; RWIGS  =    0.863    wigner-seitz radius (au A)                               
   ENMAX  =  700.000; ENMIN  =  500.000 eV                                                          
   ICORE  =        2    local potential                                                             
   LCOR   =        T    correct aug charges                                                         
   LPAW   =        T    paw PP                                                                      
   EAUG   =  946.768                                                                                
   DEXC   =    0.000                                                                                
   RMAX   =    1.128    core radius for proj-oper                                                   
   RAUG   =    1.300    factor for augmentation sphere                                              
   RDEP   =    1.162    radius for radial grids                                                     
   RDEPT  =    1.088    core radius for aug-charge                                                  
                                                                                                    
   Atomic configuration                                                                             
    4 entries                                                                                       
     n  l   j            E        occ.                                                              
     1  0  0.50      -273.3789   2.0000                                                             
     2  0  0.50       -13.7508   2.0000                                                             
     2  1  0.50        -5.2854   2.0000                                                             
     3  2  1.50        -5.4423   0.0000                                                             
   Description                                                                                      
     l       E           TYP  RCUT    TYP  RCUT                                                     
     0    -13.7508458     23  1.100                                                                 
     0     -8.2022199     23  1.100                                                                 
     1     -5.2854383     23  1.100                                                                 
     1      1.1560700     23  1.100                                                                 
     2     -5.4423304      7  1.100                                                                 
  local pseudopotential read in
  partial core-charges read in
  partial kinetic energy density read in
  atomic valenz-charges read in
  non local Contribution for L=           0  read in
    real space projection operators read in
  non local Contribution for L=           0  read in
    real space projection operators read in
  non local Contribution for L=           1  read in
    real space projection operators read in
  non local Contribution for L=           1  read in
    real space projection operators read in
    PAW grid and wavefunctions read in
 
   number of l-projection  operators is LMAX  =           4
   number of lm-projection operators is LMMAX =           8
 
 POTCAR:    PAW_PBE O_h 06Feb2004                 
   VRHFIN =O: s2p4                                                                                  
   LEXCH  = PE                                                                                      
   EATOM  =   432.3788 eV,   31.7789 Ry                                                             
                                                                                                    
   TITEL  = PAW_PBE O_h 06Feb2004                                                                   
   LULTRA =        F    use ultrasoft PP ?                                                          
   IUNSCR =        1    unscreen: 0-lin 1-nonlin 2-no                                               
   RPACOR =    0.800    partial core radius                                                         
   POMASS =   16.000; ZVAL   =    6.000    mass and valenz                                          
   RCORE  =    1.100    outmost cutoff radius                                                       
   RWIGS  =    1.400; RWIGS  =    0.741    wigner-seitz radius (au A)                               
   ENMAX  =  700.000; ENMIN  =  500.000 eV                                                          
   ICORE  =        2    local potential                                                             
   LCOR   =        T    correct aug charges                                                         
   LPAW   =        T    paw PP                                                                      
   EAUG   =  888.804                                                                                
   DEXC   =    0.000                                                                                
   RMAX   =    1.128    core radius for proj-oper                                                   
   RAUG   =    1.300    factor for augmentation sphere                                              
   RDEP   =    1.125    radius for radial grids                                                     
   RDEPT  =    1.088    core radius for aug-charge                                                  
                                                                                                    
   Atomic configuration                                                                             
    4 entries                                                                                       
     n  l   j            E        occ.                                                              
     1  0  0.50      -514.6923   2.0000                                                             
     2  0  0.50       -23.9615   2.0000                                                             
     2  1  0.50        -9.0305   4.0000                                                             
     3  2  1.50        -9.5241   0.0000                                                             
   Description                                                                                      
     l       E           TYP  RCUT    TYP  RCUT                                                     
     0    -23.9615319     23  1.100                                                                 
     0    -25.3221145     23  1.100                                                                 
     1     -9.0304911     23  1.100                                                                 
     1     -5.4802209     23  1.100                                                                 
     2     -9.5240782      7  1.100                                                                 
  local pseudopotential read in
  partial core-charges read in
  partial kinetic energy density read in
  atomic valenz-charges read in
  non local Contribution for L=           0  read in
    real space projection operators read in
  non local Contribution for L=           0  read in
    real space projection operators read in
  non local Contribution for L=           1  read in
    real space projection operators read in
  non local Contribution for L=           1  read in
    real space projection operators read in
    PAW grid and wavefunctions read in
 
   number of l-projection  operators is LMAX  =           4
   number of lm-projection operators is LMMAX =           8
 
 -----------------------------------------------------------------------------
|                                                                             |
|               ----> ADVICE to this user running VASP <----                  |
|                                                                             |
|     You have a (more or less) 'large supercell' and for larger cells it     |
|     might be more efficient to use real-space projection operators.         |
|     Therefore, try LREAL= Auto in the INCAR file.                           |
|     Mind: For very accurate calculation, you might also keep the            |
|     reciprocal projection scheme (i.e. LREAL=.FALSE.).                      |
|                                                                             |
 -----------------------------------------------------------------------------

  PAW_PBE C_h 06Feb2004                 :
 energy of atom  1       EATOM= -147.1560
 kinetic energy error for atom=    0.0031 (will be added to EATOM!!)
  PAW_PBE O_h 06Feb2004                 :
 energy of atom  2       EATOM= -432.3788
 kinetic energy error for atom=    0.0171 (will be added to EATOM!!)
 
 
 POSCAR:  C  O
  positions in cartesian coordinates
  No initial velocities read in
 exchange correlation table for  LEXCH =        8
   RHO(1)=    0.500       N(1)  =     2000
   RHO(2)=  100.500       N(2)  =     4000
 


--------------------------------------------------------------------------------------------------------


 ion  position               nearest neighbor table
   1  0.972  0.000  0.001-  50 1.42   2 1.42  42 1.42
   2  0.039  0.134  0.000-   5 1.42   7 1.42   1 1.42
   3  0.172  0.000  0.000-  42 1.42  44 1.42   4 1.42
   4  0.239  0.134  0.000-   7 1.42   3 1.42  23 1.42
   5  0.972  0.200  0.000-   6 1.42   2 1.42  34 1.42
   6  0.039  0.334  0.000-   5 1.42  21 1.42  11 1.42
   7  0.172  0.200  0.000-   8 1.42   2 1.42   4 1.42
   8  0.239  0.334  0.000-  13 1.42   7 1.42  21 1.42
   9  0.372  0.000  0.000-  10 1.42  44 1.42  46 1.42
  10  0.439  0.134  0.000-  27 1.42   9 1.42  23 1.42
  11  0.972  0.400  0.001-  12 1.42  36 1.42   6 1.42
  12  0.039  0.534  0.001-  25 1.42  11 1.42  17 1.42
  13  0.372  0.400  0.000-   8 1.42  14 1.42  24 1.42
  14  0.439  0.534  0.000-  13 1.42  29 1.42  19 1.42
  15  0.572  0.000  0.001-  46 1.42  16 1.42  48 1.42
  16  0.639  0.134  0.001-  15 1.42  35 1.42  27 1.42
  17  0.972  0.600  0.001-  38 1.42  18 1.42  12 1.42
  18  0.039  0.734  0.001-  43 1.42  41 1.42  17 1.42
  19  0.572  0.600  0.000-  14 1.42  20 1.42  32 1.42
  20  0.639  0.734  0.001-  49 1.42  19 1.42  47 1.42
  21  0.172  0.400  0.000-  22 1.42   8 1.42   6 1.42
  22  0.239  0.534  0.000-  21 1.42  29 1.42  25 1.42
  23  0.372  0.200  0.000-  10 1.42   4 1.42  24 1.42
  24  0.439  0.334  0.000-  13 1.42  31 1.42  23 1.42
  25  0.172  0.600  0.001-  26 1.42  12 1.42  22 1.42
  26  0.239  0.734  0.001-  25 1.42  45 1.42  43 1.42
  27  0.572  0.200  0.000-  10 1.42  28 1.42  16 1.42
  28  0.639  0.334  0.000-  27 1.42  37 1.42  31 1.42
  29  0.372  0.600  0.000-  22 1.42  14 1.42  30 1.42
  30  0.439  0.734  0.000-  47 1.42  29 1.42  45 1.42
  31  0.572  0.400  0.000-  32 1.42  28 1.42  24 1.42
  32  0.639  0.534  0.000-  31 1.42  39 1.42  19 1.42
  33  0.772  0.000  0.001-  34 1.42  48 1.42  50 1.42
  34  0.839  0.134  0.001-  33 1.42   5 1.42  35 1.42
  35  0.772  0.200  0.001-  36 1.42  16 1.42  34 1.42
  36  0.839  0.334  0.001-  35 1.42  11 1.42  37 1.42
  37  0.772  0.400  0.001-  28 1.42  38 1.42  36 1.42
  38  0.839  0.534  0.001-  17 1.42  37 1.42  39 1.42
  39  0.772  0.600  0.001-  40 1.42  38 1.42  32 1.42
  40  0.839  0.734  0.001-  39 1.42  49 1.42  41 1.42
  41  0.972  0.800  0.001-  18 1.42  42 1.42  40 1.42
  42  0.039  0.934  0.001-   3 1.42  41 1.42   1 1.42
  43  0.172  0.800  0.001-  18 1.42  44 1.42  26 1.42
  44  0.239  0.934  0.001-   9 1.42  43 1.42   3 1.42
  45  0.372  0.800  0.001-  26 1.42  46 1.42  30 1.42
  46  0.439  0.934  0.001-  15 1.42  45 1.42   9 1.42
  47  0.572  0.800  0.001-  30 1.42  48 1.42  20 1.42
  48  0.639  0.934  0.001-  47 1.42  33 1.42  15 1.42
  49  0.772  0.800  0.001-  50 1.42  20 1.42  40 1.42
  50  0.839  0.934  0.001-  49 1.42   1 1.42  33 1.42
  51  0.373  0.251  0.267-  52 1.18  53 1.18
  52  0.421  0.189  0.270-  51 1.18
  53  0.325  0.313  0.265-  51 1.18
 
  LATTYP: Found a hexagonal cell.
 ALAT       =    12.3250000000
 C/A-ratio  =     2.0283975659
  
  Lattice vectors:
  
 A1 = (  12.3250000000,   0.0000000000,   0.0000000000)
 A2 = (  -6.1625000000,  10.6737631016,   0.0000000000)
 A3 = (   0.0000000000,   0.0000000000,  25.0000000000)


Analysis of symmetry for initial positions (statically):
=====================================================================
 Subroutine PRICEL returns:
 Original cell was already a primitive cell.
 

 Routine SETGRP: Setting up the symmetry group for a 
 hexagonal supercell.


 Subroutine GETGRP returns: Found  1 space group operations
 (whereof  1 operations were pure point group operations)
 out of a pool of 24 trial point group operations.


The static configuration has the point symmetry C_1 .


Analysis of symmetry for dynamics (positions and initial velocities):
=====================================================================
 Subroutine PRICEL returns:
 Original cell was already a primitive cell.
 

 Routine SETGRP: Setting up the symmetry group for a 
 hexagonal supercell.


 Subroutine GETGRP returns: Found  1 space group operations
 (whereof  1 operations were pure point group operations)
 out of a pool of 24 trial point group operations.


The dynamic configuration has the point symmetry C_1 .


 Subroutine INISYM returns: Found  1 space group operations
 (whereof  1 operations are pure point group operations),
 and found     1 'primitive' translations


----------------------------------------------------------------------------------------

                                     Primitive cell                                     

  volume of cell :    3288.8533

  direct lattice vectors                    reciprocal lattice vectors
    12.325000000  0.000000000  0.000000000     0.081135903  0.046843835  0.000000000
    -6.162500000 10.673763102  0.000000000     0.000000000  0.093687670  0.000000000
     0.000000000  0.000000000 25.000000000     0.000000000  0.000000000  0.040000000

  length of vectors
    12.325000000 12.325000000 25.000000000     0.093687670  0.093687670  0.040000000

  position of ions in fractional coordinates (direct lattice)
     0.972450841  0.000320818  0.000566711
     0.039118382  0.133659505  0.000440173
     0.172443627  0.000295449  0.000499628
     0.239096278  0.133647917  0.000256468
     0.972452058  0.200322012  0.000485219
     0.039128360  0.333643771  0.000444150
     0.172451764  0.200354552  0.000219167
     0.239124359  0.333665720  0.000072260
     0.372465565  0.000324403  0.000453913
     0.439137473  0.133619939  0.000258338
     0.972449824  0.400309362  0.000547611
     0.039124981  0.533636789  0.000573410
     0.372416176  0.400329481  0.000000000
     0.439099602  0.533638981  0.000232414
     0.572443676  0.000312125  0.000559580
     0.639110207  0.133631751  0.000547275
     0.972452703  0.600305653  0.000640289
     0.039124495  0.733640359  0.000654513
     0.572433471  0.600306242  0.000402895
     0.639111888  0.733641879  0.000527905
     0.172454630  0.400318228  0.000289045
     0.239120185  0.533636548  0.000378509
     0.372459750  0.200295993  0.000088997
     0.439107096  0.333673419  0.000055762
     0.172452155  0.600311506  0.000524340
     0.239123371  0.733638574  0.000575129
     0.572431082  0.200289171  0.000413296
     0.639112773  0.333618630  0.000462376
     0.372439808  0.600308022  0.000362844
     0.439116090  0.733637858  0.000494190
     0.572469358  0.400320504  0.000339918
     0.639119408  0.533650873  0.000459610
     0.772445723  0.000315427  0.000596161
     0.839116277  0.133640203  0.000575306
     0.772440513  0.200307432  0.000581033
     0.839120241  0.333635728  0.000585467
     0.772446320  0.400298367  0.000582978
     0.839118980  0.533633964  0.000621100
     0.772456143  0.600308173  0.000595712
     0.839115033  0.733643180  0.000631512
     0.972455313  0.800305582  0.000652233
     0.039114714  0.933643289  0.000598051
     0.172457971  0.800312211  0.000623372
     0.239134551  0.933647193  0.000544850
     0.372451396  0.800316674  0.000551399
     0.439124489  0.933644769  0.000541430
     0.572441101  0.800310054  0.000534535
     0.639115067  0.933638985  0.000587644
     0.772445098  0.800313187  0.000602062
     0.839116614  0.933644338  0.000606830
     0.373021009  0.251226878  0.266967971
     0.420879805  0.189313152  0.269544845
     0.325156981  0.313167186  0.264589776

  ion indices of the primitive-cell ions
   primitive index   ion index
                 1           1
                 2           2
                 3           3
                 4           4
                 5           5
                 6           6
                 7           7
                 8           8
                 9           9
                10          10
                11          11
                12          12
                13          13
                14          14
                15          15
                16          16
                17          17
                18          18
                19          19
                20          20
                21          21
                22          22
                23          23
                24          24
                25          25
                26          26
                27          27
                28          28
                29          29
                30          30
                31          31
                32          32
                33          33
                34          34
                35          35
                36          36
                37          37
                38          38
                39          39
                40          40
                41          41
                42          42
                43          43
                44          44
                45          45
                46          46
                47          47
                48          48
                49          49
                50          50
                51          51
                52          52
                53          53

----------------------------------------------------------------------------------------

 
 
 KPOINTS: auto                                    

Automatic generation of k-mesh.
 Grid dimensions read from file:
 generate k-points for:    1    1    1

 Generating k-lattice:

  Cartesian coordinates                     Fractional coordinates (reciprocal lattice)
     0.081135903  0.046843835  0.000000000     1.000000000 -0.000000000  0.000000000
     0.000000000  0.093687670  0.000000000     0.000000000  1.000000000  0.000000000
     0.000000000  0.000000000  0.040000000     0.000000000  0.000000000  1.000000000

  Length of vectors
     0.093687670  0.093687670  0.040000000

  Shift w.r.t. Gamma in fractional coordinates (k-lattice)
     0.000000000  0.000000000  0.000000000

 
 Subroutine IBZKPT returns following result:
 ===========================================
 
 Found      1 irreducible k-points:
 
 Following reciprocal coordinates:
            Coordinates               Weight
  0.000000  0.000000  0.000000      1.000000
 
 Following cartesian coordinates:
            Coordinates               Weight
  0.000000  0.000000  0.000000      1.000000
 


--------------------------------------------------------------------------------------------------------




 Dimension of arrays:
   k-points           NKPTS =      1   k-points in BZ     NKDIM =      1   number of bands    NBANDS=    168
   number of dos      NEDOS =    301   number of ions     NIONS =     53
   non local maximal  LDIM  =      4   non local SUM 2l+1 LMDIM =      8
   total plane-waves  NPLWV = ******
   max r-space proj   IRMAX =      1   max aug-charges    IRDMAX=  10008
   dimension x,y,z NGX =   128 NGY =  128 NGZ =  270
   dimension x,y,z NGXF=   256 NGYF=  256 NGZF=  540
   support grid    NGXF=   256 NGYF=  256 NGZF=  540
   ions per type =              51   2
   NGX,Y,Z   is equivalent  to a cutoff of  17.27, 17.27, 17.95 a.u.
   NGXF,Y,Z  is equivalent  to a cutoff of  34.53, 34.53, 35.91 a.u.

 SYSTEM =  unknown system                          
 POSCAR =   C  O                                   

 Startparameter for this run:
   NWRITE =      2    write-flag & timer
   PREC   = accura    normal or accurate (medium, high low for compatibility)
   ISTART =      0    job   : 0-new  1-cont  2-samecut
   ICHARG =      2    charge: 1-file 2-atom 10-const
   ISPIN  =      1    spin polarized calculation?
   LNONCOLLINEAR =      F non collinear calculations
   LSORBIT =      F    spin-orbit coupling
   INIWAV =      1    electr: 0-lowe 1-rand  2-diag
   LASPH  =      F    aspherical Exc in radial PAW
 Electronic Relaxation 1
   ENCUT  = 1000.0 eV  73.50 Ry    8.57 a.u.  31.78 31.78 64.46*2*pi/ulx,y,z
   ENINI  = 1000.0     initial cutoff
   ENAUG  =  946.8 eV  augmentation charge cutoff
   NELM   =     60;   NELMIN=  2; NELMDL= -5     # of ELM steps 
   EDIFF  = 0.1E-06   stopping-criterion for ELM
   LREAL  =      F    real-space projection
   NLSPLINE    = F    spline interpolate recip. space projectors
   LCOMPAT=      F    compatible to vasp.4.4
   GGA_COMPAT  = T    GGA compatible to vasp.4.4-vasp.4.6
   LMAXPAW     = -100 max onsite density
   LMAXMIX     =    2 max onsite mixed and CHGCAR
   VOSKOWN=      0    Vosko Wilk Nusair interpolation
   ROPT   =    0.00000   0.00000
 Ionic relaxation
   EDIFFG = 0.1E-05   stopping-criterion for IOM
   NSW    =      0    number of steps for IOM
   NBLOCK =      1;   KBLOCK =      1    inner block; outer block 
   IBRION =     -1    ionic relax: 0-MD 1-quasi-New 2-CG
   NFREE  =      0    steps in history (QN), initial steepest desc. (CG)
   ISIF   =      0    stress and relaxation
   IWAVPR =     10    prediction:  0-non 1-charg 2-wave 3-comb
   ISYM   =      2    0-nonsym 1-usesym 2-fastsym
   LCORR  =      T    Harris-Foulkes like correction to forces

   POTIM  = 0.5000    time-step for ionic-motion
   TEIN   =    0.0    initial temperature
   TEBEG  =    0.0;   TEEND  =   0.0 temperature during run
   SMASS  =  -3.00    Nose mass-parameter (am)
   estimated Nose-frequenzy (Omega)   =  0.10E-29 period in steps = 0.13E+47 mass=  -0.347E-26a.u.
   SCALEE = 1.0000    scale energy and forces
   NPACO  =    256;   APACO  = 16.0  distance and # of slots for P.C.
   PSTRESS=    0.0 pullay stress

  Mass of Ions in am
   POMASS =  12.01 16.00
  Ionic Valenz
   ZVAL   =   4.00  6.00
  Atomic Wigner-Seitz radii
   RWIGS  =  -1.00 -1.00
  virtual crystal weights 
   VCA    =   1.00  1.00
   NELECT =     216.0000    total number of electrons
   NUPDOWN=      -1.0000    fix difference up-down

 DOS related values:
   EMIN   =  10.00;   EMAX   =-10.00  energy-range for DOS
   EFERMI =   0.00
   ISMEAR =     0;   SIGMA  =   0.01  broadening in eV -4-tet -1-fermi 0-gaus

 Electronic relaxation 2 (details)
   IALGO  =     58    algorithm
   LDIAG  =      T    sub-space diagonalisation (order eigenvalues)
   LSUBROT=      F    optimize rotation matrix (better conditioning)
   TURBO    =      0    0=normal 1=particle mesh
   IRESTART =      0    0=no restart 2=restart with 2 vectors
   NREBOOT  =      0    no. of reboots
   NMIN     =      0    reboot dimension
   EREF     =   0.00    reference energy to select bands
   IMIX   =      4    mixing-type and parameters
     AMIX     =   0.40;   BMIX     =  1.00
     AMIX_MAG =   1.60;   BMIX_MAG =  1.00
     AMIN     =   0.10
     WC   =   100.;   INIMIX=   1;  MIXPRE=   1;  MAXMIX= -45

 Intra band minimization:
   WEIMIN = 0.0000     energy-eigenvalue tresh-hold
   EBREAK =  0.15E-09  absolut break condition
   DEPER  =   0.30     relativ break condition  

   TIME   =   0.40     timestep for ELM

  volume/ion in A,a.u.               =      62.05       418.76
  Fermi-wavevector in a.u.,A,eV,Ry     =   0.660508  1.248179  5.935820  0.436270
  Thomas-Fermi vector in A             =   1.732977
 
 Write flags
   LWAVE        =      F    write WAVECAR
   LDOWNSAMPLE  =      F    k-point downsampling of WAVECAR
   LCHARG       =      T    write CHGCAR
   LVTOT        =      F    write LOCPOT, total local potential
   LVHAR        =      F    write LOCPOT, Hartree potential only
   LELF         =      F    write electronic localiz. function (ELF)
   LORBIT       =      0    0 simple, 1 ext, 2 COOP (PROOUT), +10 PAW based schemes


 Dipole corrections
   LMONO  =      F    monopole corrections only (constant potential shift)
   LDIPOL =      F    correct potential (dipole corrections)
   IDIPOL =      0    1-x, 2-y, 3-z, 4-all directions 
   EPSILON=  1.0000000 bulk dielectric constant

 Exchange correlation treatment:
   GGA     =    PE    GGA type
   LEXCH   =     8    internal setting for exchange type
   VOSKOWN=      0    Vosko Wilk Nusair interpolation
   LHFCALC =     F    Hartree Fock is set to
   LHFONE  =     F    Hartree Fock one center treatment
   AEXX    =    0.0000 exact exchange contribution

 Linear response parameters
   LEPSILON=     F    determine dielectric tensor
   LRPA    =     F    only Hartree local field effects (RPA)
   LNABLA  =     F    use nabla operator in PAW spheres
   LVEL    =     F    velocity operator in full k-point grid
   LINTERFAST=   F  fast interpolation
   KINTER  =     0    interpolate to denser k-point grid
   CSHIFT  =0.1000    complex shift for real part using Kramers Kronig
   OMEGAMAX=  -1.0    maximum frequency
   DEG_THRESHOLD= 0.2000000E-02 threshold for treating states as degnerate
   RTIME   =   -0.100 relaxation time in fs
  (WPLASMAI=    0.000 imaginary part of plasma frequency in eV, 0.658/RTIME)
   DFIELD  = 0.0000000 0.0000000 0.0000000 field for delta impulse in time
 
 Orbital magnetization related:
   ORBITALMAG=     F  switch on orbital magnetization
   LCHIMAG   =     F  perturbation theory with respect to B field
   DQ        =  0.001000  dq finite difference perturbation B field
   LLRAUG    =     F  two centre corrections for induced B field



--------------------------------------------------------------------------------------------------------


 Static calculation
 charge density and potential will be updated during run
 non-spin polarized calculation
 Conjugate gradient for all bands (Freysoldt, et al. PRB 79, 241103 (2009))
 preconditioned conjugated gradient                                        
 perform sub-space diagonalisation
    before iterative eigenvector-optimisation
 modified Broyden-mixing scheme, WC =      100.0
 initial mixing is a Kerker type mixing with AMIX =  0.4000 and BMIX =      1.0000
 Hartree-type preconditioning will be used
 using additional bands           60
 reciprocal scheme for non local part
 use partial core corrections
 no Harris-corrections to forces 
 use gradient corrections 
 use of overlap-Matrix (Vanderbilt PP)
 Gauss-broadening in eV      SIGMA  =   0.01


--------------------------------------------------------------------------------------------------------


  energy-cutoff  :     1000.00
  volume of cell :     3288.85
      direct lattice vectors                 reciprocal lattice vectors
    12.325000000  0.000000000  0.000000000     0.081135903  0.046843835  0.000000000
    -6.162500000 10.673763102  0.000000000     0.000000000  0.093687670  0.000000000
     0.000000000  0.000000000 25.000000000     0.000000000  0.000000000  0.040000000

  length of vectors
    12.325000000 12.325000000 25.000000000     0.093687670  0.093687670  0.040000000


 
 k-points in units of 2pi/SCALE and weight: auto                                    
   0.00000000  0.00000000  0.00000000       1.000
 
 k-points in reciprocal lattice and weights: auto                                    
   0.00000000  0.00000000  0.00000000       1.000
 
 position of ions in fractional coordinates (direct lattice) 
   0.97245084  0.00032082  0.00056671
   0.03911838  0.13365950  0.00044017
   0.17244363  0.00029545  0.00049963
   0.23909628  0.13364792  0.00025647
   0.97245206  0.20032201  0.00048522
   0.03912836  0.33364377  0.00044415
   0.17245176  0.20035455  0.00021917
   0.23912436  0.33366572  0.00007226
   0.37246557  0.00032440  0.00045391
   0.43913747  0.13361994  0.00025834
   0.97244982  0.40030936  0.00054761
   0.03912498  0.53363679  0.00057341
   0.37241618  0.40032948  0.00000000
   0.43909960  0.53363898  0.00023241
   0.57244368  0.00031213  0.00055958
   0.63911021  0.13363175  0.00054727
   0.97245270  0.60030565  0.00064029
   0.03912449  0.73364036  0.00065451
   0.57243347  0.60030624  0.00040289
   0.63911189  0.73364188  0.00052791
   0.17245463  0.40031823  0.00028904
   0.23912018  0.53363655  0.00037851
   0.37245975  0.20029599  0.00008900
   0.43910710  0.33367342  0.00005576
   0.17245216  0.60031151  0.00052434
   0.23912337  0.73363857  0.00057513
   0.57243108  0.20028917  0.00041330
   0.63911277  0.33361863  0.00046238
   0.37243981  0.60030802  0.00036284
   0.43911609  0.73363786  0.00049419
   0.57246936  0.40032050  0.00033992
   0.63911941  0.53365087  0.00045961
   0.77244572  0.00031543  0.00059616
   0.83911628  0.13364020  0.00057531
   0.77244051  0.20030743  0.00058103
   0.83912024  0.33363573  0.00058547
   0.77244632  0.40029837  0.00058298
   0.83911898  0.53363396  0.00062110
   0.77245614  0.60030817  0.00059571
   0.83911503  0.73364318  0.00063151
   0.97245531  0.80030558  0.00065223
   0.03911471  0.93364329  0.00059805
   0.17245797  0.80031221  0.00062337
   0.23913455  0.93364719  0.00054485
   0.37245140  0.80031667  0.00055140
   0.43912449  0.93364477  0.00054143
   0.57244110  0.80031005  0.00053453
   0.63911507  0.93363899  0.00058764
   0.77244510  0.80031319  0.00060206
   0.83911661  0.93364434  0.00060683
   0.37302101  0.25122688  0.26696797
   0.42087980  0.18931315  0.26954485
   0.32515698  0.31316719  0.26458978
 
 position of ions in cartesian coordinates  (Angst):
  11.98347958  0.00342433  0.01416777
  -0.34154264  1.42664989  0.01100432
   2.12354700  0.00315355  0.01249070
   2.12325634  1.42652621  0.00641170
  10.75098721  2.13818970  0.01213047
  -1.57382270  3.56123457  0.01110375
   0.89078307  2.13853702  0.00547917
   0.89099273  3.56146885  0.00180651
   4.58863896  0.00346260  0.01134782
   4.58893648  1.42622757  0.00645846
   9.51853763  4.27280730  0.01369027
  -2.80632132  5.69591267  0.01433526
   2.12299894  4.27302204  0.00000000
   2.12335237  5.69593607  0.00581036
   7.05344483  0.00333155  0.01398950
   7.05352764  1.42635365  0.01368187
   8.28609598  6.40752033  0.01600723
  -4.03884931  7.83070339  0.01636283
   3.35585531  6.40752662  0.01007237
   3.35598594  7.83071962  0.01319763
  -0.34145776  4.27290193  0.00722612
  -0.34137895  5.69591010  0.00946273
   3.35624236  2.13791198  0.00222492
   3.35573251  3.56155103  0.00139405
  -1.57394684  6.40758280  0.01310850
  -1.57385216  7.83068434  0.01437823
   5.82093107  2.13783916  0.01033241
   5.82114012  3.56096622  0.01155939
   0.89092245  6.40754561  0.00907111
   0.89106251  7.83067670  0.01235474
   4.58870974  4.27292622  0.00849795
   4.58852320  5.69606300  0.01149026
   9.51844972  0.00336679  0.01490402
   9.51855036  1.42644387  0.01438264
   8.28593477  2.13803408  0.01452582
   8.28612680  3.56114872  0.01463668
   7.05356221  4.27268994  0.01457444
   7.05362213  5.69588251  0.01552751
   5.82112285  6.40754723  0.01489279
   5.82101669  7.83073350  0.01578780
   7.05362858  8.54227219  0.01630582
  -5.27148792  9.96548729  0.01495127
  -2.80637951  8.54234295  0.01558431
  -2.80626749  9.96552896  0.01362126
  -0.34148805  8.54239058  0.01378498
  -0.34137657  9.96550309  0.01353576
   2.12342586  8.54231992  0.01336337
   2.12354296  9.96544135  0.01469111
   4.58845581  8.54235337  0.01505154
   4.58852904  9.96549848  0.01517076
   3.04929830  2.68153618  6.67419927
   4.02070129  2.02068374  6.73862113
   2.07766701  3.34267235  6.61474440
 


--------------------------------------------------------------------------------------------------------


 k-point   1 :   0.0000 0.0000 0.0000  plane waves:  236157

 maximum and minimum number of plane-waves per node :    236157   236157

 maximum number of plane-waves:    236157
 maximum index in each direction: 
   IXMAX=   31   IYMAX=   31   IZMAX=   64
   IXMIN=  -31   IYMIN=  -31   IZMIN=  -64


 serial   3D FFT for wavefunctions
 parallel 3D FFT for charge:
    minimum data exchange during FFTs selected (reduces bandwidth)


 total amount of memory used by VASP MPI-rank0   551512. kBytes
=======================================================================

   base      :      30000. kBytes
   nonl-proj :     230539. kBytes
   fftplans  :      40716. kBytes
   grid      :     216018. kBytes
   one-center:        162. kBytes
   wavefun   :      34077. kBytes
 
     INWAV:  cpu time    0.0000: real time    0.0000
 Broyden mixing: mesh for mixing (old mesh)
   NGX = 63   NGY = 63   NGZ =129
  (NGX  =256   NGY  =256   NGZ  =540)
  gives a total of 512001 points

 initial charge density was supplied:
 charge density of overlapping atoms calculated
 number of electron     216.0000000 magnetization 
 keeping initial charge density in first step


--------------------------------------------------------------------------------------------------------


 Maximum index for augmentation-charges          471 (set IRDMAX)


--------------------------------------------------------------------------------------------------------


 First call to EWALD:  gamma=   0.119
 Maximum number of real-space cells 4x 4x 2
 Maximum number of reciprocal cells 2x 2x 4

    FEWALD:  cpu time    0.0036: real time    0.0036


--------------------------------------- Iteration      1(   1)  ---------------------------------------


    POTLOK:  cpu time    0.7887: real time    0.7951
    SETDIJ:  cpu time    0.0039: real time    0.0040
    TRIAL :  cpu time   15.4610: real time   15.5819
    CORREC:  cpu time    0.0008: real time    0.0009
    --------------------------------------------
      LOOP:  cpu time   16.2710: real time   16.4010

 eigenvalue-minimisations  :   336
 total energy-change (2. order) : 0.2584666E+04  (-0.1073473E+05)
 number of electron     216.0000000 magnetization 
 augmentation part      216.0000000 magnetization 

 Free energy of the ion-electron system (eV)
  ---------------------------------------------------
  alpha Z        PSCENC =        47.94900195
  Ewald energy   TEWEN  =     42826.26722571
  -Hartree energ DENC   =    -48895.46372349
  -exchange      EXHF   =         0.00000000
  -V(xc)+E(xc)   XCENC  =       420.79784240
  PAW double counting   =      6525.96553977    -6260.36035765
  entropy T*S    EENTRO =        -0.00000043
  eigenvalues    EBANDS =      -450.01321159
  atomic energy  EATOM  =      8369.52358910
  ---------------------------------------------------
  free energy    TOTEN  =      2584.66590578 eV

  energy without entropy =     2584.66590620  energy(sigma->0) =     2584.66590599


--------------------------------------------------------------------------------------------------------




--------------------------------------- Iteration      1(   2)  ---------------------------------------


    TRIAL :  cpu time   23.1938: real time   23.3754
    CORREC:  cpu time    0.0001: real time    0.0001
    --------------------------------------------
      LOOP:  cpu time   23.2563: real time   23.4389

 eigenvalue-minimisations  :   560
 total energy-change (2. order) :-0.2418374E+04  (-0.2254233E+04)
 number of electron     216.0000000 magnetization 
 augmentation part      216.0000000 magnetization 

 Free energy of the ion-electron system (eV)
  ---------------------------------------------------
  alpha Z        PSCENC =        47.94900195
  Ewald energy   TEWEN  =     42826.26722571
  -Hartree energ DENC   =    -48895.46372349
  -exchange      EXHF   =         0.00000000
  -V(xc)+E(xc)   XCENC  =       420.79784240
  PAW double counting   =      6525.96553977    -6260.36035765
  entropy T*S    EENTRO =        -0.00000000
  eigenvalues    EBANDS =     -2868.38709217
  atomic energy  EATOM  =      8369.52358910
  ---------------------------------------------------
  free energy    TOTEN  =       166.29202563 eV

  energy without entropy =      166.29202563  energy(sigma->0) =      166.29202563


--------------------------------------------------------------------------------------------------------




--------------------------------------- Iteration      1(   3)  ---------------------------------------


    TRIAL :  cpu time   19.2685: real time   19.4134
    CORREC:  cpu time    0.0001: real time    0.0001
    --------------------------------------------
      LOOP:  cpu time   19.3078: real time   19.4644

 eigenvalue-minimisations  :   448
 total energy-change (2. order) :-0.6596640E+03  (-0.6570956E+03)
 number of electron     216.0000000 magnetization 
 augmentation part      216.0000000 magnetization 

 Free energy of the ion-electron system (eV)
  ---------------------------------------------------
  alpha Z        PSCENC =        47.94900195
  Ewald energy   TEWEN  =     42826.26722571
  -Hartree energ DENC   =    -48895.46372349
  -exchange      EXHF   =         0.00000000
  -V(xc)+E(xc)   XCENC  =       420.79784240
  PAW double counting   =      6525.96553977    -6260.36035765
  entropy T*S    EENTRO =        -0.00000000
  eigenvalues    EBANDS =     -3528.05111252
  atomic energy  EATOM  =      8369.52358910
  ---------------------------------------------------
  free energy    TOTEN  =      -493.37199473 eV

  energy without entropy =     -493.37199473  energy(sigma->0) =     -493.37199473


--------------------------------------------------------------------------------------------------------




--------------------------------------- Iteration      1(   4)  ---------------------------------------


    TRIAL :  cpu time   19.2601: real time   19.4221
    CORREC:  cpu time    0.0001: real time    0.0001
    --------------------------------------------
      LOOP:  cpu time   19.3063: real time   19.4706

 eigenvalue-minimisations  :   448
 total energy-change (2. order) :-0.2384464E+02  (-0.2371949E+02)
 number of electron     216.0000000 magnetization 
 augmentation part      216.0000000 magnetization 

 Free energy of the ion-electron system (eV)
  ---------------------------------------------------
  alpha Z        PSCENC =        47.94900195
  Ewald energy   TEWEN  =     42826.26722571
  -Hartree energ DENC   =    -48895.46372349
  -exchange      EXHF   =         0.00000000
  -V(xc)+E(xc)   XCENC  =       420.79784240
  PAW double counting   =      6525.96553977    -6260.36035765
  entropy T*S    EENTRO =        -0.00000000
  eigenvalues    EBANDS =     -3551.89575440
  atomic energy  EATOM  =      8369.52358910
  ---------------------------------------------------
  free energy    TOTEN  =      -517.21663661 eV

  energy without entropy =     -517.21663661  energy(sigma->0) =     -517.21663661


--------------------------------------------------------------------------------------------------------




--------------------------------------- Iteration      1(   5)  ---------------------------------------


    TRIAL :  cpu time   17.3203: real time   17.4524
    CORREC:  cpu time    0.0001: real time    0.0001
    CHARGE:  cpu time    0.8202: real time    0.8260
    --------------------------------------------
      LOOP:  cpu time   18.1868: real time   18.3271

 eigenvalue-minimisations  :   392
 total energy-change (2. order) :-0.8041308E+00  (-0.8029277E+00)
 number of electron     216.0000000 magnetization 
 augmentation part       -0.2746775 magnetization 

 Free energy of the ion-electron system (eV)
  ---------------------------------------------------
  alpha Z        PSCENC =        47.94900195
  Ewald energy   TEWEN  =     42826.26722571
  -Hartree energ DENC   =    -48895.46372349
  -exchange      EXHF   =         0.00000000
  -V(xc)+E(xc)   XCENC  =       420.79784240
  PAW double counting   =      6525.96553977    -6260.36035765
  entropy T*S    EENTRO =        -0.00000000
  eigenvalues    EBANDS =     -3552.69988524
  atomic energy  EATOM  =      8369.52358910
  ---------------------------------------------------
  free energy    TOTEN  =      -518.02076744 eV

  energy without entropy =     -518.02076744  energy(sigma->0) =     -518.02076744


--------------------------------------------------------------------------------------------------------




--------------------------------------- Iteration      1(   6)  ---------------------------------------


    POTLOK:  cpu time    0.7435: real time    0.7483
    SETDIJ:  cpu time    0.0031: real time    0.0031
    TRIAL :  cpu time    6.9034: real time    6.9812
    CORREC:  cpu time    2.2705: real time    2.2871
    CHARGE:  cpu time    0.8285: real time    0.8364
    --------------------------------------------
      LOOP:  cpu time   10.7927: real time   10.9026

 eigenvalue-minimisations  :     0
 total energy-change (2. order) : 0.5127860E+02  (-0.1527657E+02)
 number of electron     216.0000000 magnetization 
 augmentation part       -0.3757868 magnetization 

 Free energy of the ion-electron system (eV)
  ---------------------------------------------------
  alpha Z        PSCENC =        47.94900195
  Ewald energy   TEWEN  =     42826.26722571
  -Hartree energ DENC   =    -50334.06670302
  -exchange      EXHF   =         0.00000000
  -V(xc)+E(xc)   XCENC  =       468.99937774
  PAW double counting   =     90230.97076610   -89973.63655718
  entropy T*S    EENTRO =        -0.00000000
  eigenvalues    EBANDS =     -2102.74886377
  atomic energy  EATOM  =      8369.52358910
  ---------------------------------------------------
  free energy    TOTEN  =      -466.74216338 eV

  energy without entropy =     -466.74216338  energy(sigma->0) =     -466.74216338


--------------------------------------------------------------------------------------------------------




--------------------------------------- Iteration      1(   7)  ---------------------------------------


    POTLOK:  cpu time    0.7549: real time    0.7597
    SETDIJ:  cpu time    0.0031: real time    0.0031
    TRIAL :  cpu time    6.9721: real time    7.0279
    CORREC:  cpu time    2.2684: real time    2.2848
    CHARGE:  cpu time    0.8105: real time    0.8160
    --------------------------------------------
      LOOP:  cpu time   10.8637: real time   10.9489

 eigenvalue-minimisations  :     0
 total energy-change (2. order) :-0.1530776E+02  (-0.1843180E+01)
 number of electron     216.0000000 magnetization 
 augmentation part       -0.4220856 magnetization 

 Free energy of the ion-electron system (eV)
  ---------------------------------------------------
  alpha Z        PSCENC =        47.94900195
  Ewald energy   TEWEN  =     42826.26722571
  -Hartree energ DENC   =    -49840.26989230
  -exchange      EXHF   =         0.00000000
  -V(xc)+E(xc)   XCENC  =       452.44895779
  PAW double counting   =    106241.38427286  -105981.24816688
  entropy T*S    EENTRO =        -0.00000000
  eigenvalues    EBANDS =     -2598.10490711
  atomic energy  EATOM  =      8369.52358910
  ---------------------------------------------------
  free energy    TOTEN  =      -482.04991888 eV

  energy without entropy =     -482.04991888  energy(sigma->0) =     -482.04991888


--------------------------------------------------------------------------------------------------------




--------------------------------------- Iteration      1(   8)  ---------------------------------------


    POTLOK:  cpu time    0.7449: real time    0.7498
    SETDIJ:  cpu time    0.0028: real time    0.0028
    TRIAL :  cpu time    6.9221: real time    6.9791
    CORREC:  cpu time    2.2784: real time    2.2957
    CHARGE:  cpu time    0.8090: real time    0.8184
    --------------------------------------------
      LOOP:  cpu time   10.8009: real time   10.9103

 eigenvalue-minimisations  :     0
 total energy-change (2. order) :-0.1843028E+01  (-0.5387735E+00)
 number of electron     216.0000000 magnetization 
 augmentation part       -0.4357572 magnetization 

 Free energy of the ion-electron system (eV)
  ---------------------------------------------------
  alpha Z        PSCENC =        47.94900195
  Ewald energy   TEWEN  =     42826.26722571
  -Hartree energ DENC   =    -49810.96890660
  -exchange      EXHF   =         0.00000000
  -V(xc)+E(xc)   XCENC  =       451.74462114
  PAW double counting   =    110650.64237923  -110390.07640574
  entropy T*S    EENTRO =        -0.00000000
  eigenvalues    EBANDS =     -2628.97445123
  atomic energy  EATOM  =      8369.52358910
  ---------------------------------------------------
  free energy    TOTEN  =      -483.89294645 eV

  energy without entropy =     -483.89294645  energy(sigma->0) =     -483.89294645


--------------------------------------------------------------------------------------------------------




--------------------------------------- Iteration      1(   9)  ---------------------------------------


    POTLOK:  cpu time    0.7452: real time    0.7509
    SETDIJ:  cpu time    0.0028: real time    0.0028
    TRIAL :  cpu time    6.9260: real time    6.9857
    CORREC:  cpu time    2.2718: real time    2.2890
    CHARGE:  cpu time    0.8112: real time    0.8170
    --------------------------------------------
      LOOP:  cpu time   10.7694: real time   10.8851

 eigenvalue-minimisations  :     0
 total energy-change (2. order) :-0.5386461E+00  (-0.2029968E+00)
 number of electron     216.0000000 magnetization 
 augmentation part       -0.4409853 magnetization 

 Free energy of the ion-electron system (eV)
  ---------------------------------------------------
  alpha Z        PSCENC =        47.94900195
  Ewald energy   TEWEN  =     42826.26722571
  -Hartree energ DENC   =    -49823.15520344
  -exchange      EXHF   =         0.00000000
  -V(xc)+E(xc)   XCENC  =       451.78536746
  PAW double counting   =    113545.08752392  -113284.35684921
  entropy T*S    EENTRO =        -0.00000000
  eigenvalues    EBANDS =     -2617.53224804
  atomic energy  EATOM  =      8369.52358910
  ---------------------------------------------------
  free energy    TOTEN  =      -484.43159254 eV

  energy without entropy =     -484.43159254  energy(sigma->0) =     -484.43159254


--------------------------------------------------------------------------------------------------------




--------------------------------------- Iteration      1(  10)  ---------------------------------------


    POTLOK:  cpu time    0.7408: real time    0.7456
    SETDIJ:  cpu time    0.0032: real time    0.0032
    TRIAL :  cpu time    6.9225: real time    6.9797
    CORREC:  cpu time    2.2749: real time    2.2916
    CHARGE:  cpu time    0.8112: real time    0.8169
    --------------------------------------------
      LOOP:  cpu time   10.8141: real time   10.9400

 eigenvalue-minimisations  :     0
 total energy-change (2. order) :-0.2024108E+00  (-0.8903014E-01)
 number of electron     216.0000000 magnetization 
 augmentation part       -0.4396190 magnetization 

 Free energy of the ion-electron system (eV)
  ---------------------------------------------------
  alpha Z        PSCENC =        47.94900195
  Ewald energy   TEWEN  =     42826.26722571
  -Hartree energ DENC   =    -49821.07659788
  -exchange      EXHF   =         0.00000000
  -V(xc)+E(xc)   XCENC  =       451.61783383
  PAW double counting   =    113863.21292890  -113602.39415652
  entropy T*S    EENTRO =        -0.00000000
  eigenvalues    EBANDS =     -2619.73382843
  atomic energy  EATOM  =      8369.52358910
  ---------------------------------------------------
  free energy    TOTEN  =      -484.63400333 eV

  energy without entropy =     -484.63400333  energy(sigma->0) =     -484.63400333


--------------------------------------------------------------------------------------------------------




--------------------------------------- Iteration      1(  11)  ---------------------------------------


    POTLOK:  cpu time    0.7440: real time    0.7488
    SETDIJ:  cpu time    0.0028: real time    0.0028
    TRIAL :  cpu time    6.9141: real time    6.9855
    CORREC:  cpu time    2.2674: real time    2.2848
    CHARGE:  cpu time    0.8080: real time    0.8153
    --------------------------------------------
      LOOP:  cpu time   10.7816: real time   10.8835

 eigenvalue-minimisations  :     0
 total energy-change (2. order) :-0.8858349E-01  (-0.3315016E-01)
 number of electron     216.0000000 magnetization 
 augmentation part       -0.4377317 magnetization 

 Free energy of the ion-electron system (eV)
  ---------------------------------------------------
  alpha Z        PSCENC =        47.94900195
  Ewald energy   TEWEN  =     42826.26722571
  -Hartree energ DENC   =    -49813.29955021
  -exchange      EXHF   =         0.00000000
  -V(xc)+E(xc)   XCENC  =       451.47999238
  PAW double counting   =    113087.58270249  -112826.77450292
  entropy T*S    EENTRO =        -0.00000000
  eigenvalues    EBANDS =     -2627.45104531
  atomic energy  EATOM  =      8369.52358910
  ---------------------------------------------------
  free energy    TOTEN  =      -484.72258682 eV

  energy without entropy =     -484.72258682  energy(sigma->0) =     -484.72258682


--------------------------------------------------------------------------------------------------------




--------------------------------------- Iteration      1(  12)  ---------------------------------------


    POTLOK:  cpu time    0.7434: real time    0.7482
    SETDIJ:  cpu time    0.0029: real time    0.0030
    TRIAL :  cpu time    6.9258: real time    6.9820
    CORREC:  cpu time    2.2598: real time    2.2777
    CHARGE:  cpu time    0.8086: real time    0.8143
    --------------------------------------------
      LOOP:  cpu time   10.7953: real time   10.8866

 eigenvalue-minimisations  :     0
 total energy-change (2. order) :-0.3306474E-01  (-0.1025579E-01)
 number of electron     216.0000000 magnetization 
 augmentation part       -0.4374130 magnetization 

 Free energy of the ion-electron system (eV)
  ---------------------------------------------------
  alpha Z        PSCENC =        47.94900195
  Ewald energy   TEWEN  =     42826.26722571
  -Hartree energ DENC   =    -49809.34720776
  -exchange      EXHF   =         0.00000000
  -V(xc)+E(xc)   XCENC  =       451.40669993
  PAW double counting   =    112583.46509849  -112322.68778628
  entropy T*S    EENTRO =        -0.00000000
  eigenvalues    EBANDS =     -2631.33227270
  atomic energy  EATOM  =      8369.52358910
  ---------------------------------------------------
  free energy    TOTEN  =      -484.75565156 eV

  energy without entropy =     -484.75565156  energy(sigma->0) =     -484.75565156


--------------------------------------------------------------------------------------------------------




--------------------------------------- Iteration      1(  13)  ---------------------------------------


    POTLOK:  cpu time    0.7390: real time    0.7448
    SETDIJ:  cpu time    0.0026: real time    0.0026
    TRIAL :  cpu time    6.9159: real time    6.9802
    CORREC:  cpu time    2.2555: real time    2.2765
    CHARGE:  cpu time    0.8100: real time    0.8164
    --------------------------------------------
      LOOP:  cpu time   10.7831: real time   10.8914

 eigenvalue-minimisations  :     0
 total energy-change (2. order) :-0.1024590E-01  (-0.2729992E-02)
 number of electron     216.0000000 magnetization 
 augmentation part       -0.4371855 magnetization 

 Free energy of the ion-electron system (eV)
  ---------------------------------------------------
  alpha Z        PSCENC =        47.94900195
  Ewald energy   TEWEN  =     42826.26722571
  -Hartree energ DENC   =    -49808.49792771
  -exchange      EXHF   =         0.00000000
  -V(xc)+E(xc)   XCENC  =       451.37900211
  PAW double counting   =    112430.26400681  -112169.49810872
  entropy T*S    EENTRO =        -0.00000000
  eigenvalues    EBANDS =     -2632.15268672
  atomic energy  EATOM  =      8369.52358910
  ---------------------------------------------------
  free energy    TOTEN  =      -484.76589746 eV

  energy without entropy =     -484.76589746  energy(sigma->0) =     -484.76589746


--------------------------------------------------------------------------------------------------------




--------------------------------------- Iteration      1(  14)  ---------------------------------------


    POTLOK:  cpu time    0.7358: real time    0.7420
    SETDIJ:  cpu time    0.0030: real time    0.0030
    TRIAL :  cpu time    6.9220: real time    6.9900
    CORREC:  cpu time    2.2567: real time    2.2742
    CHARGE:  cpu time    0.8130: real time    0.8188
    --------------------------------------------
      LOOP:  cpu time   10.7457: real time   10.8775

 eigenvalue-minimisations  :     0
 total energy-change (2. order) :-0.2729735E-02  (-0.7199139E-03)
 number of electron     216.0000000 magnetization 
 augmentation part       -0.4369720 magnetization 

 Free energy of the ion-electron system (eV)
  ---------------------------------------------------
  alpha Z        PSCENC =        47.94900195
  Ewald energy   TEWEN  =     42826.26722571
  -Hartree energ DENC   =    -49808.33111818
  -exchange      EXHF   =         0.00000000
  -V(xc)+E(xc)   XCENC  =       451.37355799
  PAW double counting   =    112453.11701808  -112192.35346928
  entropy T*S    EENTRO =        -0.00000000
  eigenvalues    EBANDS =     -2632.31443256
  atomic energy  EATOM  =      8369.52358910
  ---------------------------------------------------
  free energy    TOTEN  =      -484.76862719 eV

  energy without entropy =     -484.76862719  energy(sigma->0) =     -484.76862719


--------------------------------------------------------------------------------------------------------




--------------------------------------- Iteration      1(  15)  ---------------------------------------


    POTLOK:  cpu time    0.7328: real time    0.7376
    SETDIJ:  cpu time    0.0031: real time    0.0031
    TRIAL :  cpu time    6.9131: real time    6.9839
    CORREC:  cpu time    2.2461: real time    2.2735
    CHARGE:  cpu time    0.8089: real time    0.8174
    --------------------------------------------
      LOOP:  cpu time   10.7748: real time   10.9069

 eigenvalue-minimisations  :     0
 total energy-change (2. order) :-0.7208454E-03  (-0.2139491E-03)
 number of electron     216.0000000 magnetization 
 augmentation part       -0.4367924 magnetization 

 Free energy of the ion-electron system (eV)
  ---------------------------------------------------
  alpha Z        PSCENC =        47.94900195
  Ewald energy   TEWEN  =     42826.26722571
  -Hartree energ DENC   =    -49808.11799236
  -exchange      EXHF   =         0.00000000
  -V(xc)+E(xc)   XCENC  =       451.36719517
  PAW double counting   =    112485.56256915  -112224.79844632
  entropy T*S    EENTRO =        -0.00000000
  eigenvalues    EBANDS =     -2632.52249044
  atomic energy  EATOM  =      8369.52358910
  ---------------------------------------------------
  free energy    TOTEN  =      -484.76934804 eV

  energy without entropy =     -484.76934804  energy(sigma->0) =     -484.76934804


--------------------------------------------------------------------------------------------------------




--------------------------------------- Iteration      1(  16)  ---------------------------------------


    POTLOK:  cpu time    0.7333: real time    0.7380
    SETDIJ:  cpu time    0.0028: real time    0.0028
    TRIAL :  cpu time    6.9371: real time    6.9927
    CORREC:  cpu time    2.2554: real time    2.2723
    CHARGE:  cpu time    0.8116: real time    0.8172
    --------------------------------------------
      LOOP:  cpu time   10.7698: real time   10.8568

 eigenvalue-minimisations  :     0
 total energy-change (2. order) :-0.2147588E-03  (-0.7711713E-04)
 number of electron     216.0000000 magnetization 
 augmentation part       -0.4366454 magnetization 

 Free energy of the ion-electron system (eV)
  ---------------------------------------------------
  alpha Z        PSCENC =        47.94900195
  Ewald energy   TEWEN  =     42826.26722571
  -Hartree energ DENC   =    -49808.18415639
  -exchange      EXHF   =         0.00000000
  -V(xc)+E(xc)   XCENC  =       451.36838118
  PAW double counting   =    112476.15451499  -112215.39028589
  entropy T*S    EENTRO =        -0.00000000
  eigenvalues    EBANDS =     -2632.45783345
  atomic energy  EATOM  =      8369.52358910
  ---------------------------------------------------
  free energy    TOTEN  =      -484.76956280 eV

  energy without entropy =     -484.76956280  energy(sigma->0) =     -484.76956280


--------------------------------------------------------------------------------------------------------




--------------------------------------- Iteration      1(  17)  ---------------------------------------


    POTLOK:  cpu time    0.7320: real time    0.7368
    SETDIJ:  cpu time    0.0027: real time    0.0027
    TRIAL :  cpu time    6.9277: real time    6.9845
    CORREC:  cpu time    2.2584: real time    2.2754
    CHARGE:  cpu time    0.8119: real time    0.8175
    --------------------------------------------
      LOOP:  cpu time   10.7542: real time   10.8668

 eigenvalue-minimisations  :     0
 total energy-change (2. order) :-0.7766701E-04  (-0.2982882E-04)
 number of electron     216.0000000 magnetization 
 augmentation part       -0.4366284 magnetization 

 Free energy of the ion-electron system (eV)
  ---------------------------------------------------
  alpha Z        PSCENC =        47.94900195
  Ewald energy   TEWEN  =     42826.26722571
  -Hartree energ DENC   =    -49808.37341041
  -exchange      EXHF   =         0.00000000
  -V(xc)+E(xc)   XCENC  =       451.37424888
  PAW double counting   =    112457.19209254  -112196.42834010
  entropy T*S    EENTRO =        -0.00000000
  eigenvalues    EBANDS =     -2632.27404814
  atomic energy  EATOM  =      8369.52358910
  ---------------------------------------------------
  free energy    TOTEN  =      -484.76964047 eV

  energy without entropy =     -484.76964047  energy(sigma->0) =     -484.76964047


--------------------------------------------------------------------------------------------------------




--------------------------------------- Iteration      1(  18)  ---------------------------------------


    POTLOK:  cpu time    0.7314: real time    0.7360
    SETDIJ:  cpu time    0.0031: real time    0.0031
    TRIAL :  cpu time    6.9229: real time    6.9790
    CORREC:  cpu time    2.2595: real time    2.2765
    CHARGE:  cpu time    0.8111: real time    0.8167
    --------------------------------------------
      LOOP:  cpu time   10.7554: real time   10.8545

 eigenvalue-minimisations  :     0
 total energy-change (2. order) :-0.3015570E-04  (-0.1251460E-04)
 number of electron     216.0000000 magnetization 
 augmentation part       -0.4366534 magnetization 

 Free energy of the ion-electron system (eV)
  ---------------------------------------------------
  alpha Z        PSCENC =        47.94900195
  Ewald energy   TEWEN  =     42826.26722571
  -Hartree energ DENC   =    -49808.40201808
  -exchange      EXHF   =         0.00000000
  -V(xc)+E(xc)   XCENC  =       451.37435889
  PAW double counting   =    112453.68252122  -112192.91833983
  entropy T*S    EENTRO =        -0.00000000
  eigenvalues    EBANDS =     -2632.24600958
  atomic energy  EATOM  =      8369.52358910
  ---------------------------------------------------
  free energy    TOTEN  =      -484.76967062 eV

  energy without entropy =     -484.76967062  energy(sigma->0) =     -484.76967062


--------------------------------------------------------------------------------------------------------




--------------------------------------- Iteration      1(  19)  ---------------------------------------


    POTLOK:  cpu time    0.7298: real time    0.7345
    SETDIJ:  cpu time    0.0029: real time    0.0029
    TRIAL :  cpu time    6.9217: real time    6.9844
    CORREC:  cpu time    2.2524: real time    2.2701
    CHARGE:  cpu time    0.7994: real time    0.8139
    --------------------------------------------
      LOOP:  cpu time   10.7669: real time   10.8689

 eigenvalue-minimisations  :     0
 total energy-change (2. order) :-0.1239165E-04  (-0.5327459E-05)
 number of electron     216.0000000 magnetization 
 augmentation part       -0.4366956 magnetization 

 Free energy of the ion-electron system (eV)
  ---------------------------------------------------
  alpha Z        PSCENC =        47.94900195
  Ewald energy   TEWEN  =     42826.26722571
  -Hartree energ DENC   =    -49808.43402870
  -exchange      EXHF   =         0.00000000
  -V(xc)+E(xc)   XCENC  =       451.37537041
  PAW double counting   =    112460.07110129  -112199.30672509
  entropy T*S    EENTRO =        -0.00000000
  eigenvalues    EBANDS =     -2632.21521768
  atomic energy  EATOM  =      8369.52358910
  ---------------------------------------------------
  free energy    TOTEN  =      -484.76968301 eV

  energy without entropy =     -484.76968301  energy(sigma->0) =     -484.76968301


--------------------------------------------------------------------------------------------------------




--------------------------------------- Iteration      1(  20)  ---------------------------------------


    POTLOK:  cpu time    0.7273: real time    0.7320
    SETDIJ:  cpu time    0.0027: real time    0.0028
    TRIAL :  cpu time    6.9393: real time    6.9941
    CORREC:  cpu time    2.2592: real time    2.2764
    CHARGE:  cpu time    0.8119: real time    0.8175
    --------------------------------------------
      LOOP:  cpu time   10.8230: real time   10.9064

 eigenvalue-minimisations  :     0
 total energy-change (2. order) :-0.4976158E-05  (-0.2122552E-05)
 number of electron     216.0000000 magnetization 
 augmentation part       -0.4367115 magnetization 

 Free energy of the ion-electron system (eV)
  ---------------------------------------------------
  alpha Z        PSCENC =        47.94900195
  Ewald energy   TEWEN  =     42826.26722571
  -Hartree energ DENC   =    -49808.46296411
  -exchange      EXHF   =         0.00000000
  -V(xc)+E(xc)   XCENC  =       451.37597511
  PAW double counting   =    112466.66369735  -112205.89919598
  entropy T*S    EENTRO =        -0.00000000
  eigenvalues    EBANDS =     -2632.18701712
  atomic energy  EATOM  =      8369.52358910
  ---------------------------------------------------
  free energy    TOTEN  =      -484.76968799 eV

  energy without entropy =     -484.76968799  energy(sigma->0) =     -484.76968799


--------------------------------------------------------------------------------------------------------




--------------------------------------- Iteration      1(  21)  ---------------------------------------


    POTLOK:  cpu time    0.7293: real time    0.7341
    SETDIJ:  cpu time    0.0030: real time    0.0030
    TRIAL :  cpu time    6.9333: real time    6.9878
    CORREC:  cpu time    2.2579: real time    2.2774
    CHARGE:  cpu time    0.8091: real time    0.8157
    --------------------------------------------
      LOOP:  cpu time   10.7719: real time   10.8787

 eigenvalue-minimisations  :     0
 total energy-change (2. order) :-0.1903783E-05  (-0.9026857E-06)
 number of electron     216.0000000 magnetization 
 augmentation part       -0.4367066 magnetization 

 Free energy of the ion-electron system (eV)
  ---------------------------------------------------
  alpha Z        PSCENC =        47.94900195
  Ewald energy   TEWEN  =     42826.26722571
  -Hartree energ DENC   =    -49808.45791268
  -exchange      EXHF   =         0.00000000
  -V(xc)+E(xc)   XCENC  =       451.37571912
  PAW double counting   =    112468.17151260  -112207.40700425
  entropy T*S    EENTRO =        -0.00000000
  eigenvalues    EBANDS =     -2632.19182144
  atomic energy  EATOM  =      8369.52358910
  ---------------------------------------------------
  free energy    TOTEN  =      -484.76968989 eV

  energy without entropy =     -484.76968989  energy(sigma->0) =     -484.76968989


--------------------------------------------------------------------------------------------------------




--------------------------------------- Iteration      1(  22)  ---------------------------------------


    POTLOK:  cpu time    0.7298: real time    0.7350
    SETDIJ:  cpu time    0.0027: real time    0.0027
    TRIAL :  cpu time    6.9577: real time    7.0225
    CORREC:  cpu time    2.2569: real time    2.2755
    CHARGE:  cpu time    0.8101: real time    0.8164
    --------------------------------------------
      LOOP:  cpu time   10.8183: real time   10.9144

 eigenvalue-minimisations  :     0
 total energy-change (2. order) :-0.7871131E-06  (-0.4023379E-06)
 number of electron     216.0000000 magnetization 
 augmentation part       -0.4367027 magnetization 

 Free energy of the ion-electron system (eV)
  ---------------------------------------------------
  alpha Z        PSCENC =        47.94900195
  Ewald energy   TEWEN  =     42826.26722571
  -Hartree energ DENC   =    -49808.44911644
  -exchange      EXHF   =         0.00000000
  -V(xc)+E(xc)   XCENC  =       451.37547448
  PAW double counting   =    112466.17437461  -112205.40994517
  entropy T*S    EENTRO =        -0.00000000
  eigenvalues    EBANDS =     -2632.20029493
  atomic energy  EATOM  =      8369.52358910
  ---------------------------------------------------
  free energy    TOTEN  =      -484.76969068 eV

  energy without entropy =     -484.76969068  energy(sigma->0) =     -484.76969068


--------------------------------------------------------------------------------------------------------




--------------------------------------- Iteration      1(  23)  ---------------------------------------


    POTLOK:  cpu time    0.7301: real time    0.7350
    SETDIJ:  cpu time    0.0029: real time    0.0029
    TRIAL :  cpu time    6.9198: real time    6.9753
    CORREC:  cpu time    2.2533: real time    2.2706
    CHARGE:  cpu time    0.8121: real time    0.8178
    --------------------------------------------
      LOOP:  cpu time   10.7884: real time   10.8743

 eigenvalue-minimisations  :     0
 total energy-change (2. order) :-0.3057794E-06  (-0.1678811E-06)
 number of electron     216.0000000 magnetization 
 augmentation part       -0.4367030 magnetization 

 Free energy of the ion-electron system (eV)
  ---------------------------------------------------
  alpha Z        PSCENC =        47.94900195
  Ewald energy   TEWEN  =     42826.26722571
  -Hartree energ DENC   =    -49808.44232399
  -exchange      EXHF   =         0.00000000
  -V(xc)+E(xc)   XCENC  =       451.37534449
  PAW double counting   =    112464.26100595  -112203.49662639
  entropy T*S    EENTRO =        -0.00000000
  eigenvalues    EBANDS =     -2632.20690780
  atomic energy  EATOM  =      8369.52358910
  ---------------------------------------------------
  free energy    TOTEN  =      -484.76969099 eV

  energy without entropy =     -484.76969099  energy(sigma->0) =     -484.76969099


--------------------------------------------------------------------------------------------------------




--------------------------------------- Iteration      1(  24)  ---------------------------------------


    POTLOK:  cpu time    0.7323: real time    0.7371
    SETDIJ:  cpu time    0.0029: real time    0.0029
    TRIAL :  cpu time    6.9291: real time    6.9833
    CORREC:  cpu time    2.2503: real time    2.2676
    EDDIAG:  cpu time    1.1146: real time    1.1236
    CHARGE:  cpu time    0.8066: real time    0.8123
    --------------------------------------------
      LOOP:  cpu time   11.8749: real time   11.9698

 eigenvalue-minimisations  :     0
 total energy-change (2. order) :-0.7866765E-07  (-0.7595069E-07)
 number of electron     216.0000000 magnetization 
 augmentation part       -0.4367053 magnetization 

 Free energy of the ion-electron system (eV)
  ---------------------------------------------------
  alpha Z        PSCENC =        47.94900195
  Ewald energy   TEWEN  =     42826.26722571
  -Hartree energ DENC   =    -49808.43650325
  -exchange      EXHF   =         0.00000000
  -V(xc)+E(xc)   XCENC  =       451.37526180
  PAW double counting   =    112463.56585429  -112202.80147783
  entropy T*S    EENTRO =        -0.00000000
  eigenvalues    EBANDS =     -2632.21264284
  atomic energy  EATOM  =      8369.52358910
  ---------------------------------------------------
  free energy    TOTEN  =      -484.76969106 eV

  energy without entropy =     -484.76969106  energy(sigma->0) =     -484.76969106


--------------------------------------------------------------------------------------------------------


  average scaling for gradient   0.9429


 average (electrostatic) potential at core
  the test charge radii are     0.5770  0.5955
  (the norm of the test charge is              1.0000)
       1 -85.6358       2 -85.6352       3 -85.6362       4 -85.6371       5 -85.6343
       6 -85.6340       7 -85.6360       8 -85.6345       9 -85.6349      10 -85.6355
      11 -85.6340      12 -85.6342      13 -85.6354      14 -85.6348      15 -85.6339
      16 -85.6343      17 -85.6348      18 -85.6353      19 -85.6357      20 -85.6349
      21 -85.6339      22 -85.6337      23 -85.6376      24 -85.6375      25 -85.6338
      26 -85.6341      27 -85.6350      28 -85.6362      29 -85.6339      30 -85.6339
      31 -85.6366      32 -85.6358      33 -85.6344      34 -85.6341      35 -85.6342
      36 -85.6344      37 -85.6352      38 -85.6355      39 -85.6355      40 -85.6354
      41 -85.6354      42 -85.6356      43 -85.6349      44 -85.6358      45 -85.6339
      46 -85.6341      47 -85.6342      48 -85.6340      49 -85.6354      50 -85.6349
      51 -89.5729      52-120.3520      53-120.3514
 
 
 
 E-fermi :  -4.2544     XC(G=0):  -1.9408     alpha+bet : -1.6890

 Fermi energy:        -4.2543840726

 k-point     1 :       0.0000    0.0000    0.0000
  band No.  band energies     occupation 
      1     -27.6739      2.00000
      2     -26.6686      2.00000
      3     -22.3849      2.00000
      4     -21.4455      2.00000
      5     -21.4444      2.00000
      6     -21.4442      2.00000
      7     -21.4437      2.00000
      8     -21.4435      2.00000
      9     -21.4434      2.00000
     10     -19.6005      2.00000
     11     -19.6004      2.00000
     12     -19.6002      2.00000
     13     -19.5995      2.00000
     14     -19.5991      2.00000
     15     -19.5989      2.00000
     16     -18.7026      2.00000
     17     -18.7024      2.00000
     18     -18.7020      2.00000
     19     -18.7017      2.00000
     20     -18.7011      2.00000
     21     -18.7008      2.00000
     22     -16.5346      2.00000
     23     -16.5343      2.00000
     24     -16.5335      2.00000
     25     -16.5333      2.00000
     26     -16.5329      2.00000
     27     -16.5328      2.00000
     28     -15.5487      2.00000
     29     -15.5487      2.00000
     30     -15.5478      2.00000
     31     -15.5476      2.00000
     32     -15.5472      2.00000
     33     -15.5471      2.00000
     34     -14.1951      2.00000
     35     -14.1950      2.00000
     36     -14.1944      2.00000
     37     -14.1942      2.00000
     38     -14.1942      2.00000
     39     -14.1940      2.00000
     40     -12.4772      2.00000
     41     -11.8062      2.00000
     42     -11.8059      2.00000
     43     -11.8055      2.00000
     44     -11.8054      2.00000
     45     -11.8043      2.00000
     46     -11.8041      2.00000
     47     -11.7092      2.00000
     48     -11.7091      2.00000
     49     -11.7085      2.00000
     50     -11.7085      2.00000
     51     -11.7082      2.00000
     52     -11.7080      2.00000
     53     -11.2877      2.00000
     54     -11.2231      2.00000
     55     -11.2230      2.00000
     56     -10.4767      2.00000
     57     -10.3321      2.00000
     58     -10.3320      2.00000
     59     -10.3304      2.00000
     60     -10.3301      2.00000
     61     -10.3299      2.00000
     62     -10.3298      2.00000
     63      -9.3607      2.00000
     64      -9.3604      2.00000
     65      -9.3602      2.00000
     66      -9.3593      2.00000
     67      -9.3588      2.00000
     68      -9.3587      2.00000
     69      -9.0521      2.00000
     70      -9.0515      2.00000
     71      -9.0510      2.00000
     72      -9.0509      2.00000
     73      -9.0505      2.00000
     74      -9.0503      2.00000
     75      -9.0035      2.00000
     76      -9.0032      2.00000
     77      -9.0027      2.00000
     78      -9.0026      2.00000
     79      -9.0024      2.00000
     80      -9.0015      2.00000
     81      -7.6764      2.00000
     82      -7.6763      2.00000
     83      -7.3961      2.00000
     84      -7.3945      2.00000
     85      -7.3943      2.00000
     86      -7.3939      2.00000
     87      -7.3928      2.00000
     88      -7.3928      2.00000
     89      -7.2310      2.00000
     90      -7.2306      2.00000
     91      -7.2305      2.00000
     92      -7.2301      2.00000
     93      -7.2300      2.00000
     94      -7.2298      2.00000
     95      -6.3346      2.00000
     96      -6.3343      2.00000
     97      -6.3339      2.00000
     98      -6.3336      2.00000
     99      -6.3334      2.00000
    100      -6.3332      2.00000
    101      -5.9065      2.00000
    102      -5.9043      2.00000
    103      -4.3515      2.00000
    104      -4.3512      2.00000
    105      -4.3507      2.00000
    106      -4.3506      2.00000
    107      -4.3498      2.00000
    108      -4.3497      2.00000
    109      -1.5486      0.00000
    110      -1.5484      0.00000
    111      -1.5479      0.00000
    112      -1.5476      0.00000
    113      -1.5471      0.00000
    114      -1.5469      0.00000
    115       0.2072      0.00000
    116       0.3155      0.00000
    117       0.3159      0.00000
    118       0.3164      0.00000
    119       0.3165      0.00000
    120       0.3166      0.00000
    121       0.3183      0.00000
    122       0.5431      0.00000
    123       0.8061      0.00000
    124       0.8076      0.00000
    125       1.2472      0.00000
    126       1.5204      0.00000
    127       1.6227      0.00000
    128       1.6341      0.00000
    129       1.6735      0.00000
    130       1.6781      0.00000
    131       1.6842      0.00000
    132       1.6973      0.00000
    133       1.9866      0.00000
    134       2.0563      0.00000
    135       2.0566      0.00000
    136       2.0570      0.00000
    137       2.0575      0.00000
    138       2.0590      0.00000
    139       2.0604      0.00000
    140       2.2081      0.00000
[...]
     30     C        0.00016060
     31     C       -0.00022583
     32     C       -0.00014191
     33     C        0.00010110
     34     C        0.00012276
     35     C        0.00013348
     36     C        0.00009929
     37     C        0.00000105
     38     C       -0.00000164
     39     C       -0.00007288
     40     C       -0.00003645
     41     C       -0.00004503
     42     C       -0.00011040
     43     C        0.00004393
     44     C       -0.00003566
     45     C        0.00016195
     46     C        0.00013952
     47     C        0.00011561
     48     C        0.00014079
     49     C        0.00001465
     50     C        0.00002360
     51     C        0.29460338
     52     O       -0.14761008
     53     O       -0.14763908

  Atomic reference data used in the T-S method for vdW correction:
            C6at              R0at           ALPHAat      REFSTATE
            (au)              (au)            (au)                
   ---------------------------------------------------------------
   C          46.600          3.590         12.000         0
   O          15.600          3.194          5.400         0
 
 Nth order contribution to Edisp (eV)
 Edisp(N=2):  -4.52769139397457     
 Edisp(N=3):  0.341562860244486     
 Edisp(N=4): -0.524116324209550     
 Edisp(N=5):  0.243589179349532     
 Edisp(N=6): -0.235625233703368     
 Edisp(N=inf):  -4.61172186557627     

  Tkatchenko/Scheffler method for vdW energy calculation
  ---------------------------------------------------------------------------------------------

  Parameters of vdW forcefield:
            C6ts              R0ts          ALPHAts         R0scs        ALPHAscs        RELVOL 
            (au)              (au)           (au)            (au)          (au)                 
   ---------------------------------------------------------------------------------------------
   C          32.900          3.388         10.083          3.266          9.032          0.840
   C          32.903          3.388         10.083          3.266          9.031          0.840
   C          32.913          3.388         10.085          3.266          9.034          0.840
   C          32.928          3.389         10.087          3.266          9.032          0.841
   C          32.892          3.388         10.082          3.266          9.030          0.840
   C          32.890          3.388         10.081          3.266          9.029          0.840
   C          32.919          3.388         10.086          3.266          9.036          0.840
   C          32.916          3.388         10.085          3.267          9.037          0.840
   C          32.907          3.388         10.084          3.266          9.034          0.840
   C          32.921          3.388         10.086          3.267          9.038          0.841
   C          32.887          3.388         10.081          3.266          9.032          0.840
   C          32.887          3.388         10.081          3.266          9.031          0.840
   C          32.923          3.388         10.086          3.267          9.037          0.841
   C          32.906          3.388         10.084          3.266          9.032          0.840
   C          32.889          3.388         10.081          3.265          9.027          0.840
   C          32.894          3.388         10.082          3.266          9.029          0.840
   C          32.891          3.388         10.082          3.266          9.031          0.840
   C          32.894          3.388         10.082          3.266          9.030          0.840
   C          32.903          3.388         10.083          3.266          9.032          0.840
   C          32.893          3.388         10.082          3.266          9.031          0.840
   C          32.897          3.388         10.082          3.266          9.029          0.840
   C          32.889          3.388         10.081          3.265          9.028          0.840
   C          32.935          3.389         10.088          3.266          9.032          0.841
   C          32.933          3.389         10.088          3.266          9.033          0.841
   C          32.885          3.388         10.081          3.266          9.032          0.840
   C          32.887          3.388         10.081          3.266          9.031          0.840
   C          32.910          3.388         10.084          3.267          9.036          0.840
   C          32.911          3.388         10.085          3.266          9.034          0.840
   C          32.892          3.388         10.082          3.266          9.029          0.840
   C          32.886          3.388         10.081          3.266          9.032          0.840
   C          32.920          3.388         10.086          3.266          9.033          0.840
   C          32.908          3.388         10.084          3.266          9.033          0.840
   C          32.888          3.388         10.081          3.266          9.031          0.840
   C          32.888          3.388         10.081          3.266          9.032          0.840
   C          32.889          3.388         10.081          3.266          9.031          0.840
   C          32.890          3.388         10.081          3.266          9.031          0.840
   C          32.898          3.388         10.083          3.266          9.031          0.840
   C          32.896          3.388         10.082          3.266          9.031          0.840
   C          32.900          3.388         10.083          3.266          9.033          0.840
   C          32.897          3.388         10.082          3.266          9.032          0.840
   C          32.898          3.388         10.083          3.266          9.032          0.840
   C          32.903          3.388         10.083          3.266          9.034          0.840
   C          32.894          3.388         10.082          3.266          9.030          0.840
   C          32.905          3.388         10.084          3.266          9.033          0.840
   C          32.886          3.388         10.081          3.266          9.031          0.840
   C          32.892          3.388         10.082          3.266          9.029          0.840
   C          32.888          3.388         10.081          3.266          9.031          0.840
   C          32.886          3.388         10.081          3.266          9.032          0.840
   C          32.894          3.388         10.082          3.266          9.031          0.840
   C          32.893          3.388         10.082          3.266          9.031          0.840
   C          26.358          3.265          9.025          3.199          8.491          0.752
   O          12.452          3.076          4.824          3.035          4.636          0.893
   O          12.450          3.076          4.824          3.035          4.636          0.893

  vdW correction parametrized for the method pbe       

  IVDW = 202
  VDW_RADIUS =    50.000 A
  VDW_SR =     0.830
  VDW_D =     6.000
  SCSRAD =   120.000 A
  LVDWSCS = T
  LSCSGRAD = T
  LSCALER0 = T
  ITIM = -1
  Edisp (eV):   -4.61172
    FORVDW:  cpu time   18.8265: real time   18.9573

 VOLUME and BASIS-vectors are now :
 -----------------------------------------------------------------------------
  energy-cutoff  :     1000.00
  volume of cell :     3288.85
      direct lattice vectors                 reciprocal lattice vectors
    12.325000000  0.000000000  0.000000000     0.081135903  0.046843835  0.000000000
    -6.162500000 10.673763102  0.000000000     0.000000000  0.093687670  0.000000000
     0.000000000  0.000000000 25.000000000     0.000000000  0.000000000  0.040000000

  length of vectors
    12.325000000 12.325000000 25.000000000     0.093687670  0.093687670  0.040000000


 FORCES acting on ions:
    Electron-Ion                     Ewald-Force                    Non-Local-Force
 -----------------------------------------------------------------------------------------------
   0.174E+01 0.151E+01 0.193E+02   -.174E+01 -.151E+01 -.193E+02   0.547E-02 -.778E-03 0.644E-02
   0.244E+01 0.122E+01 0.211E+02   -.244E+01 -.122E+01 -.211E+02   0.458E-02 -.350E-02 -.551E-02
   0.999E+00 0.272E+01 0.218E+02   -.100E+01 -.272E+01 -.218E+02   -.204E-03 0.128E-01 0.429E-03
   0.127E+01 0.184E+01 0.254E+02   -.127E+01 -.184E+01 -.254E+02   0.126E-01 0.119E-02 -.123E-01
   0.187E+01 0.457E+00 0.197E+02   -.187E+01 -.457E+00 -.197E+02   0.298E-03 -.603E-02 0.268E-02
   0.191E+01 -.403E+00 0.199E+02   -.191E+01 0.404E+00 -.199E+02   -.625E-02 0.309E-02 -.386E-02
   0.245E+01 0.928E+00 0.249E+02   -.245E+01 -.927E+00 -.249E+02   0.135E-01 -.198E-01 -.515E-02
   0.241E+01 -.842E+00 0.261E+02   -.242E+01 0.846E+00 -.261E+02   -.533E-02 -.643E-02 -.550E-02
   -.121E+01 0.250E+01 0.221E+02   0.122E+01 -.251E+01 -.221E+02   -.133E-02 -.117E-01 -.497E-02
   -.171E+01 0.145E+01 0.254E+02   0.171E+01 -.145E+01 -.254E+02   -.275E-01 0.160E-01 0.350E-02
   0.493E+00 -.508E+00 0.184E+02   -.490E+00 0.508E+00 -.184E+02   0.337E-02 -.274E-02 -.736E-03
   0.451E+00 -.380E+00 0.180E+02   -.450E+00 0.379E+00 -.180E+02   -.744E-02 0.360E-02 0.537E-02
   0.884E+00 -.198E+01 0.273E+02   -.886E+00 0.198E+01 -.273E+02   0.282E-01 -.887E-02 -.112E-02
   0.533E+00 -.278E+01 0.233E+02   -.538E+00 0.278E+01 -.232E+02   0.499E-02 0.554E-02 -.160E-01
   -.171E+01 0.104E+01 0.192E+02   0.172E+01 -.104E+01 -.192E+02   0.724E-02 -.370E-02 0.628E-02
   -.225E+01 0.663E+00 0.199E+02   0.225E+01 -.664E+00 -.199E+02   -.265E-02 0.592E-02 -.576E-02
   -.316E+00 -.125E+00 0.175E+02   0.320E+00 0.123E+00 -.175E+02   -.101E-02 0.626E-03 0.180E-02
   0.140E+00 0.108E+01 0.178E+02   -.138E+00 -.108E+01 -.178E+02   -.341E-02 0.195E-02 0.919E-02
   -.441E+00 -.267E+01 0.211E+02   0.440E+00 0.267E+01 -.211E+02   0.682E-02 -.247E-02 0.657E-03
   -.251E+00 -.160E+01 0.187E+02   0.247E+00 0.160E+01 -.187E+02   0.679E-03 -.161E-02 -.858E-03
   0.246E+01 -.108E+01 0.221E+02   -.246E+01 0.108E+01 -.221E+02   -.700E-03 -.301E-02 -.176E-01
   0.171E+01 -.139E+01 0.205E+02   -.171E+01 0.139E+01 -.205E+02   -.663E-02 0.517E-02 -.336E-02
   -.447E+00 0.814E+00 0.280E+02   0.444E+00 -.813E+00 -.280E+02   -.108E-01 0.110E-01 0.388E-02
   -.603E+00 -.128E+01 0.278E+02   0.605E+00 0.128E+01 -.278E+02   0.125E-01 -.156E-01 -.770E-02
   0.931E+00 -.351E+00 0.185E+02   -.928E+00 0.349E+00 -.185E+02   0.329E-02 -.248E-02 -.407E-02
   0.239E+00 0.805E+00 0.184E+02   -.238E+00 -.805E+00 -.184E+02   -.578E-02 0.383E-02 0.483E-02
   -.276E+01 0.356E+00 0.228E+02   0.276E+01 -.359E+00 -.228E+02   0.103E-01 0.857E-02 -.213E-02
   -.263E+01 -.105E+01 0.220E+02   0.263E+01 0.105E+01 -.221E+02   -.998E-02 0.941E-02 0.154E-02
   0.982E+00 -.198E+01 0.208E+02   -.982E+00 0.198E+01 -.208E+02   0.529E-02 0.179E-02 -.771E-02
   0.847E-01 -.869E+00 0.190E+02   -.873E-01 0.870E+00 -.190E+02   -.450E-02 0.236E-02 -.312E-02
   -.189E+01 -.194E+01 0.238E+02   0.189E+01 0.194E+01 -.238E+02   -.126E-01 -.860E-02 -.109E-01
   -.135E+01 -.253E+01 0.212E+02   0.135E+01 0.253E+01 -.212E+02   0.649E-03 -.205E-02 0.300E-02
   0.118E+00 0.508E+00 0.179E+02   -.119E+00 -.508E+00 -.179E+02   0.564E-02 -.490E-02 0.663E-02
   0.314E+00 0.480E+00 0.183E+02   -.317E+00 -.479E+00 -.183E+02   -.208E-02 0.448E-02 -.174E-02
   -.118E+01 0.208E+00 0.187E+02   0.118E+01 -.209E+00 -.187E+02   0.389E-02 -.228E-02 0.520E-02
   -.105E+01 -.465E+00 0.186E+02   0.105E+01 0.464E+00 -.186E+02   -.472E-02 0.267E-02 0.324E-02
   -.200E+01 -.106E+01 0.193E+02   0.201E+01 0.106E+01 -.193E+02   -.214E-02 0.111E-02 0.335E-02
   -.132E+01 -.105E+01 0.184E+02   0.132E+01 0.105E+01 -.184E+02   -.458E-02 0.129E-02 0.911E-02
   -.119E+01 -.152E+01 0.188E+02   0.119E+01 0.152E+01 -.188E+02   -.341E-02 -.985E-04 0.517E-02
   -.181E+00 -.409E+00 0.179E+02   0.181E+00 0.409E+00 -.179E+02   0.201E-02 0.414E-03 0.755E-02
   0.449E+00 0.113E+01 0.180E+02   -.450E+00 -.113E+01 -.180E+02   -.409E-02 0.214E-02 0.713E-02
   0.136E+01 0.210E+01 0.195E+02   -.136E+01 -.211E+01 -.195E+02   -.131E-03 -.401E-03 0.823E-02
   0.138E+00 0.187E+01 0.185E+02   -.133E+00 -.187E+01 -.185E+02   -.922E-03 0.155E-02 0.197E-02
   -.290E-01 0.278E+01 0.208E+02   0.311E-01 -.279E+01 -.208E+02   -.887E-02 0.275E-02 0.549E-02
   -.356E+00 0.670E+00 0.187E+02   0.358E+00 -.672E+00 -.187E+02   0.388E-02 -.280E-02 0.513E-03
   -.133E+01 0.164E+01 0.198E+02   0.133E+01 -.165E+01 -.198E+02   -.695E-02 0.832E-03 -.232E-02
   -.339E+00 -.815E+00 0.185E+02   0.338E+00 0.815E+00 -.185E+02   0.682E-02 -.155E-02 0.532E-02
   -.733E+00 0.265E+00 0.179E+02   0.731E+00 -.264E+00 -.179E+02   -.330E-02 0.319E-02 -.369E-02
   0.778E-01 -.505E+00 0.179E+02   -.787E-01 0.506E+00 -.179E+02   0.466E-02 -.333E-02 0.575E-02
   0.802E+00 0.571E+00 0.179E+02   -.805E+00 -.569E+00 -.179E+02   0.490E-03 0.151E-02 0.314E-02
   0.503E-02 0.189E-01 -.256E+03   -.906E-02 -.153E-01 0.256E+03   -.294E-02 0.191E-02 -.293E-02
   -.229E+03 0.156E+03 -.397E+03   0.279E+03 -.190E+03 0.400E+03   -.511E+02 0.348E+02 -.343E+01
   0.229E+03 -.156E+03 -.375E+03   -.279E+03 0.190E+03 0.372E+03   0.511E+02 -.348E+02 0.309E+01
 -----------------------------------------------------------------------------------------------
   -.661E-02 0.134E-01 0.343E+00   0.114E-12 -.114E-12 0.455E-12   0.676E-02 -.137E-01 -.343E+00
 
 
 POSITION                                       TOTAL-FORCE (eV/Angst)
 -----------------------------------------------------------------------------------
     11.98348      0.00342      0.01417         0.003108     -0.001587     -0.001129
     -0.34154      1.42665      0.01100        -0.000831     -0.000045     -0.003409
      2.12355      0.00315      0.01249        -0.001646      0.010543     -0.006436
      2.12326      1.42653      0.00641         0.013105      0.001243     -0.008041
     10.75099      2.13819      0.01213         0.000216     -0.005609     -0.000082
     -1.57382      3.56123      0.01110        -0.008847      0.004877     -0.001437
      0.89078      2.13854      0.00548         0.009339     -0.018841      0.002636
      0.89099      3.56147      0.00181        -0.012086     -0.002304      0.012197
      4.58864      0.00346      0.01135         0.003777     -0.016020     -0.003482
      4.58894      1.42623      0.00646        -0.023331      0.013135      0.014117
      9.51854      4.27281      0.01369         0.006623     -0.003159      0.000092
     -2.80632      5.69591      0.01434        -0.006418      0.003352      0.000683
      2.12300      4.27302      0.00000         0.024765     -0.004887      0.020906
      2.12335      5.69594      0.00581        -0.000662      0.009317     -0.002460
      7.05344      0.00333      0.01399         0.009349     -0.005282     -0.000422
      7.05353      1.42635      0.01368        -0.001572      0.004937     -0.003928
      8.28610      6.40752      0.01601         0.003055     -0.001525     -0.000973
     -4.03885      7.83070      0.01636        -0.002123      0.000838     -0.000251
      3.35586      6.40753      0.01007         0.005280      0.000575     -0.001209
      3.35599      7.83072      0.01320        -0.003282      0.000106     -0.000738
     -0.34146      4.27290      0.00723        -0.001983     -0.001388     -0.004383
     -0.34138      5.69591      0.00946        -0.009202      0.006454     -0.001001
      3.35624      2.13791      0.00222        -0.013342      0.011826      0.016510
      3.35573      3.56155      0.00139         0.013391     -0.015726      0.008967
     -1.57395      6.40758      0.01311         0.005524     -0.003971     -0.000689
     -1.57385      7.83068      0.01438        -0.004731      0.003673     -0.000057
      5.82093      2.13784      0.01033         0.016264      0.005102     -0.002828
      5.82114      3.56097      0.01156        -0.006162      0.008369     -0.003670
      0.89092      6.40755      0.00907         0.004448      0.002390     -0.002184
      0.89106      7.83068      0.01235        -0.006914      0.003798      0.000288
      4.58871      4.27293      0.00850        -0.012704     -0.006473     -0.010672
      4.58852      5.69606      0.01149         0.001919     -0.000908     -0.003956
      9.51845      0.00337      0.01490         0.004633     -0.004614      0.000078
      9.51855      1.42644      0.01438        -0.005119      0.005515     -0.000464
      8.28593      2.13803      0.01453         0.006660     -0.003466      0.000509
      8.28613      3.56115      0.01464        -0.004177      0.002175     -0.000160
      7.05356      4.27269      0.01457         0.002775     -0.001127     -0.000776
      7.05362      5.69588      0.01553        -0.002392      0.001531     -0.000210
      5.82112      6.40755      0.01489        -0.002869      0.001630     -0.000201
      5.82102      7.83073      0.01579         0.002689      0.000328     -0.000425
      7.05363      8.54227      0.01631        -0.004648      0.001200      0.000886
     -5.27149      9.96549      0.01495        -0.000012     -0.002094     -0.002277
     -2.80638      8.54234      0.01558         0.003258     -0.001457     -0.001379
     -2.80627      9.96553      0.01362        -0.006551     -0.000186     -0.003875
     -0.34149      8.54239      0.01378         0.005842     -0.004837      0.000130
     -0.34138      9.96550      0.01354        -0.005828     -0.000168     -0.001370
      2.12343      8.54232      0.01336         0.005745     -0.001474      0.000727
      2.12354      9.96544      0.01469        -0.005247      0.003841     -0.002025
      4.58846      8.54235      0.01505         0.003615     -0.002777      0.000861
      4.58853      9.96550      0.01517        -0.002901      0.003379     -0.000005
      3.04930      2.68154      6.67420        -0.006784      0.005498      0.033065
      4.02070      2.02068      6.73862        -0.530519      0.360509     -0.052124
      2.07767      3.34267      6.61474         0.537504     -0.366217      0.016076
 -----------------------------------------------------------------------------------
    total drift:                                0.000143     -0.000241      0.000399


--------------------------------------------------------------------------------------------------------



  FREE ENERGIE OF THE ION-ELECTRON SYSTEM (eV)
  ---------------------------------------------------
  free  energy   TOTEN  =      -489.38141293 eV

  energy  without entropy=     -489.38141293  energy(sigma->0) =     -489.38141293
 


--------------------------------------------------------------------------------------------------------


    POTLOK:  cpu time    0.7387: real time    0.7436


--------------------------------------------------------------------------------------------------------


     LOOP+:  cpu time  354.9346: real time  358.2652
    4ORBIT:  cpu time    0.0000: real time    0.0000

 total amount of memory used by VASP MPI-rank0   551512. kBytes
=======================================================================

   base      :      30000. kBytes
   nonl-proj :     230539. kBytes
   fftplans  :      40716. kBytes
   grid      :     216018. kBytes
   one-center:        162. kBytes
   wavefun   :      34077. kBytes
 
  
  
 General timing and accounting informations for this job:
 ========================================================
  
                  Total CPU time used (sec):      397.436
                            User time (sec):      376.933
                          System time (sec):       20.503
                         Elapsed time (sec):      402.414
  
                   Maximum memory used (kb):     1042812.
                   Average memory used (kb):          N/A
  
                          Minor page faults:       104365
                          Major page faults:           91
                 Voluntary context switches:         3276
