 vasp.6.2.1 16May21 (build Nov 06 2021 14:46:37) complex                        
  
 executed on             LinuxIFC date 2025.04.16  17:43:57
 running on  112 total cores
 distrk:  each k-point on  112 cores,    1 groups
 distr:  one band on NCORE=  28 cores,    4 groups


--------------------------------------------------------------------------------------------------------


 INCAR:
   ALGO = Conjugate
   NPAR = 4
   ISMEAR = 0
   SIGMA = 0.01
   PREC = Accurate
   EDIFF = 1E-7
   ENCUT = 1000
   ISIF = 0
   GGA = MK
   PARAM1 = 0.1234
   PARAM2 = 1.0000
   LUSE_VDW = .TRUE.
   AGGAC = 0.0000
   LASPH = .TRUE.
   SYMPREC = 1E-7

 POTCAR:    PAW_PBE C_h 06Feb2004                 
 POTCAR:    PAW_PBE O_h 06Feb2004                 
 -----------------------------------------------------------------------------
|                                                                             |
|           W    W    AA    RRRRR   N    N  II  N    N   GGGG   !!!           |
|           W    W   A  A   R    R  NN   N  II  NN   N  G    G  !!!           |
|           W    W  A    A  R    R  N N  N  II  N N  N  G       !!!           |
|           W WW W  AAAAAA  RRRRR   N  N N  II  N  N N  G  GGG   !            |
|           WW  WW  A    A  R   R   N   NN  II  N   NN  G    G                |
|           W    W  A    A  R    R  N    N  II  N    N   GGGG   !!!           |
|                                                                             |
|     For optimal performance we recommend to set                             |
|       NCORE = 2 up to number-of-cores-per-socket                            |
|     NCORE specifies how many cores store one orbital (NPAR=cpu/NCORE).      |
|     This setting can greatly improve the performance of VASP for DFT.       |
|     The default, NCORE=1 might be grossly inefficient on modern             |
|     multi-core architectures or massively parallel machines. Do your        |
|     own testing! More info at https://www.vasp.at/wiki/index.php/NCORE      |
|     Unfortunately you need to use the default for GW and RPA                |
|     calculations (for HF NCORE is supported but not extensively tested      |
|     yet).                                                                   |
|                                                                             |
 -----------------------------------------------------------------------------

 -----------------------------------------------------------------------------
|                                                                             |
|               ----> ADVICE to this user running VASP <----                  |
|                                                                             |
|     You have switched on vdW-DFT.                                           |
|     This routine was written and supplied by Jiri Klimes. We recommend      |
|     that you carefully read and cite the following publications:            |
|       J. Klimes, D.R. Bowler, A. Michelides                                 |
|          J. Phys.: Cond Matt. 22 022201 (2010)                              |
|       J. Klimes, D.R. Bowler, A. Michelides                                 |
|          Phys. Rev. B. 83, 195131 (2011)                                    |
|     and references therein.                                                 |
|                                                                             |
 -----------------------------------------------------------------------------

 POTCAR:    PAW_PBE C_h 06Feb2004                 
   VRHFIN =C: s2p2                                                                                  
   LEXCH  = PE                                                                                      
   EATOM  =   147.1560 eV,   10.8157 Ry                                                             
                                                                                                    
   TITEL  = PAW_PBE C_h 06Feb2004                                                                   
   LULTRA =        F    use ultrasoft PP ?                                                          
   IUNSCR =        1    unscreen: 0-lin 1-nonlin 2-no                                               
   RPACOR =    0.800    partial core radius                                                         
   POMASS =   12.011; ZVAL   =    4.000    mass and valenz                                          
   RCORE  =    1.100    outmost cutoff radius                                                       
   RWIGS  =    1.630; RWIGS  =    0.863    wigner-seitz radius (au A)                               
   ENMAX  =  700.000; ENMIN  =  500.000 eV                                                          
   ICORE  =        2    local potential                                                             
   LCOR   =        T    correct aug charges                                                         
   LPAW   =        T    paw PP                                                                      
   EAUG   =  946.768                                                                                
   DEXC   =    0.000                                                                                
   RMAX   =    1.128    core radius for proj-oper                                                   
   RAUG   =    1.300    factor for augmentation sphere                                              
   RDEP   =    1.162    radius for radial grids                                                     
   RDEPT  =    1.088    core radius for aug-charge                                                  
                                                                                                    
   Atomic configuration                                                                             
    4 entries                                                                                       
     n  l   j            E        occ.                                                              
     1  0  0.50      -273.3789   2.0000                                                             
     2  0  0.50       -13.7508   2.0000                                                             
     2  1  0.50        -5.2854   2.0000                                                             
     3  2  1.50        -5.4423   0.0000                                                             
   Description                                                                                      
     l       E           TYP  RCUT    TYP  RCUT                                                     
     0    -13.7508458     23  1.100                                                                 
     0     -8.2022199     23  1.100                                                                 
     1     -5.2854383     23  1.100                                                                 
     1      1.1560700     23  1.100                                                                 
     2     -5.4423304      7  1.100                                                                 
  local pseudopotential read in
  partial core-charges read in
  partial kinetic energy density read in
  atomic valenz-charges read in
  non local Contribution for L=           0  read in
    real space projection operators read in
  non local Contribution for L=           0  read in
    real space projection operators read in
  non local Contribution for L=           1  read in
    real space projection operators read in
  non local Contribution for L=           1  read in
    real space projection operators read in
    PAW grid and wavefunctions read in
 
   number of l-projection  operators is LMAX  =           4
   number of lm-projection operators is LMMAX =           8
 
 POTCAR:    PAW_PBE O_h 06Feb2004                 
   VRHFIN =O: s2p4                                                                                  
   LEXCH  = PE                                                                                      
   EATOM  =   432.3788 eV,   31.7789 Ry                                                             
                                                                                                    
   TITEL  = PAW_PBE O_h 06Feb2004                                                                   
   LULTRA =        F    use ultrasoft PP ?                                                          
   IUNSCR =        1    unscreen: 0-lin 1-nonlin 2-no                                               
   RPACOR =    0.800    partial core radius                                                         
   POMASS =   16.000; ZVAL   =    6.000    mass and valenz                                          
   RCORE  =    1.100    outmost cutoff radius                                                       
   RWIGS  =    1.400; RWIGS  =    0.741    wigner-seitz radius (au A)                               
   ENMAX  =  700.000; ENMIN  =  500.000 eV                                                          
   ICORE  =        2    local potential                                                             
   LCOR   =        T    correct aug charges                                                         
   LPAW   =        T    paw PP                                                                      
   EAUG   =  888.804                                                                                
   DEXC   =    0.000                                                                                
   RMAX   =    1.128    core radius for proj-oper                                                   
   RAUG   =    1.300    factor for augmentation sphere                                              
   RDEP   =    1.125    radius for radial grids                                                     
   RDEPT  =    1.088    core radius for aug-charge                                                  
                                                                                                    
   Atomic configuration                                                                             
    4 entries                                                                                       
     n  l   j            E        occ.                                                              
     1  0  0.50      -514.6923   2.0000                                                             
     2  0  0.50       -23.9615   2.0000                                                             
     2  1  0.50        -9.0305   4.0000                                                             
     3  2  1.50        -9.5241   0.0000                                                             
   Description                                                                                      
     l       E           TYP  RCUT    TYP  RCUT                                                     
     0    -23.9615319     23  1.100                                                                 
     0    -25.3221145     23  1.100                                                                 
     1     -9.0304911     23  1.100                                                                 
     1     -5.4802209     23  1.100                                                                 
     2     -9.5240782      7  1.100                                                                 
  local pseudopotential read in
  partial core-charges read in
  partial kinetic energy density read in
  atomic valenz-charges read in
  non local Contribution for L=           0  read in
    real space projection operators read in
  non local Contribution for L=           0  read in
    real space projection operators read in
  non local Contribution for L=           1  read in
    real space projection operators read in
  non local Contribution for L=           1  read in
    real space projection operators read in
    PAW grid and wavefunctions read in
 
   number of l-projection  operators is LMAX  =           4
   number of lm-projection operators is LMMAX =           8
 
 -----------------------------------------------------------------------------
|                                                                             |
|               ----> ADVICE to this user running VASP <----                  |
|                                                                             |
|     You have a (more or less) 'large supercell' and for larger cells it     |
|     might be more efficient to use real-space projection operators.         |
|     Therefore, try LREAL= Auto in the INCAR file.                           |
|     Mind: For very accurate calculation, you might also keep the            |
|     reciprocal projection scheme (i.e. LREAL=.FALSE.).                      |
|                                                                             |
 -----------------------------------------------------------------------------

 -----------------------------------------------------------------------------
|                                                                             |
|               ----> ADVICE to this user running VASP <----                  |
|                                                                             |
|     You enforced a specific xc type in the INCAR file but a different       |
|     type was found in the POTCAR file.                                      |
|     I HOPE YOU KNOW WHAT YOU ARE DOING!                                     |
|                                                                             |
 -----------------------------------------------------------------------------

  PAW_PBE C_h 06Feb2004                 :
 energy of atom  1       EATOM= -147.1560
 kinetic energy error for atom=    0.0031 (will be added to EATOM!!)
  PAW_PBE O_h 06Feb2004                 :
 energy of atom  2       EATOM= -432.3788
 kinetic energy error for atom=    0.0171 (will be added to EATOM!!)
 
 
 POSCAR:  C  O
  positions in cartesian coordinates
  No initial velocities read in
 exchange correlation table for  LEXCH =       43
   RHO(1)=    0.500       N(1)  =     2000
   RHO(2)=  100.500       N(2)  =     4000
 


--------------------------------------------------------------------------------------------------------


 ion  position               nearest neighbor table
   1  0.972  0.000  0.001-  50 1.42   2 1.42  42 1.42
   2  0.039  0.134  0.000-   5 1.42   7 1.42   1 1.42
   3  0.172  0.000  0.000-  42 1.42  44 1.42   4 1.42
   4  0.239  0.134  0.000-   7 1.42   3 1.42  23 1.42
   5  0.972  0.200  0.000-   6 1.42   2 1.42  34 1.42
   6  0.039  0.334  0.000-   5 1.42  21 1.42  11 1.42
   7  0.172  0.200  0.000-   8 1.42   2 1.42   4 1.42
   8  0.239  0.334  0.000-  13 1.42   7 1.42  21 1.42
   9  0.372  0.000  0.000-  10 1.42  44 1.42  46 1.42
  10  0.439  0.134  0.000-  27 1.42   9 1.42  23 1.42
  11  0.972  0.400  0.001-  12 1.42  36 1.42   6 1.42
  12  0.039  0.534  0.001-  25 1.42  11 1.42  17 1.42
  13  0.372  0.400  0.000-   8 1.42  14 1.42  24 1.42
  14  0.439  0.534  0.000-  13 1.42  29 1.42  19 1.42
  15  0.572  0.000  0.001-  46 1.42  16 1.42  48 1.42
  16  0.639  0.134  0.001-  15 1.42  35 1.42  27 1.42
  17  0.972  0.600  0.001-  38 1.42  18 1.42  12 1.42
  18  0.039  0.734  0.001-  43 1.42  41 1.42  17 1.42
  19  0.572  0.600  0.000-  14 1.42  20 1.42  32 1.42
  20  0.639  0.734  0.001-  49 1.42  19 1.42  47 1.42
  21  0.172  0.400  0.000-  22 1.42   8 1.42   6 1.42
  22  0.239  0.534  0.000-  21 1.42  29 1.42  25 1.42
  23  0.372  0.200  0.000-  10 1.42   4 1.42  24 1.42
  24  0.439  0.334  0.000-  13 1.42  31 1.42  23 1.42
  25  0.172  0.600  0.001-  26 1.42  12 1.42  22 1.42
  26  0.239  0.734  0.001-  25 1.42  45 1.42  43 1.42
  27  0.572  0.200  0.000-  10 1.42  28 1.42  16 1.42
  28  0.639  0.334  0.000-  27 1.42  37 1.42  31 1.42
  29  0.372  0.600  0.000-  22 1.42  14 1.42  30 1.42
  30  0.439  0.734  0.000-  47 1.42  29 1.42  45 1.42
  31  0.572  0.400  0.000-  32 1.42  28 1.42  24 1.42
  32  0.639  0.534  0.000-  31 1.42  39 1.42  19 1.42
  33  0.772  0.000  0.001-  34 1.42  48 1.42  50 1.42
  34  0.839  0.134  0.001-  33 1.42   5 1.42  35 1.42
  35  0.772  0.200  0.001-  36 1.42  16 1.42  34 1.42
  36  0.839  0.334  0.001-  35 1.42  11 1.42  37 1.42
  37  0.772  0.400  0.001-  28 1.42  38 1.42  36 1.42
  38  0.839  0.534  0.001-  17 1.42  37 1.42  39 1.42
  39  0.772  0.600  0.001-  40 1.42  38 1.42  32 1.42
  40  0.839  0.734  0.001-  39 1.42  49 1.42  41 1.42
  41  0.972  0.800  0.001-  18 1.42  42 1.42  40 1.42
  42  0.039  0.934  0.001-   3 1.42  41 1.42   1 1.42
  43  0.172  0.800  0.001-  18 1.42  44 1.42  26 1.42
  44  0.239  0.934  0.001-   9 1.42  43 1.42   3 1.42
  45  0.372  0.800  0.001-  26 1.42  46 1.42  30 1.42
  46  0.439  0.934  0.001-  15 1.42  45 1.42   9 1.42
  47  0.572  0.800  0.001-  30 1.42  48 1.42  20 1.42
  48  0.639  0.934  0.001-  47 1.42  33 1.42  15 1.42
  49  0.772  0.800  0.001-  50 1.42  20 1.42  40 1.42
  50  0.839  0.934  0.001-  49 1.42   1 1.42  33 1.42
  51  0.373  0.251  0.178-  52 1.18  53 1.18
  52  0.421  0.189  0.181-  51 1.18
  53  0.325  0.313  0.176-  51 1.18
 
  LATTYP: Found a hexagonal cell.
 ALAT       =    12.3250000000
 C/A-ratio  =     2.0283975659
  
  Lattice vectors:
  
 A1 = (  12.3250000000,   0.0000000000,   0.0000000000)
 A2 = (  -6.1625000000,  10.6737631016,   0.0000000000)
 A3 = (   0.0000000000,   0.0000000000,  25.0000000000)


Analysis of symmetry for initial positions (statically):
=====================================================================
 Subroutine PRICEL returns:
 Original cell was already a primitive cell.
 

 Routine SETGRP: Setting up the symmetry group for a 
 hexagonal supercell.


 Subroutine GETGRP returns: Found  1 space group operations
 (whereof  1 operations were pure point group operations)
 out of a pool of 24 trial point group operations.


The static configuration has the point symmetry C_1 .


Analysis of symmetry for dynamics (positions and initial velocities):
=====================================================================
 Subroutine PRICEL returns:
 Original cell was already a primitive cell.
 

 Routine SETGRP: Setting up the symmetry group for a 
 hexagonal supercell.


 Subroutine GETGRP returns: Found  1 space group operations
 (whereof  1 operations were pure point group operations)
 out of a pool of 24 trial point group operations.


The dynamic configuration has the point symmetry C_1 .


 Subroutine INISYM returns: Found  1 space group operations
 (whereof  1 operations are pure point group operations),
 and found     1 'primitive' translations


----------------------------------------------------------------------------------------

                                     Primitive cell                                     

  volume of cell :    3288.8533

  direct lattice vectors                    reciprocal lattice vectors
    12.325000000  0.000000000  0.000000000     0.081135903  0.046843835  0.000000000
    -6.162500000 10.673763102  0.000000000     0.000000000  0.093687670  0.000000000
     0.000000000  0.000000000 25.000000000     0.000000000  0.000000000  0.040000000

  length of vectors
    12.325000000 12.325000000 25.000000000     0.093687670  0.093687670  0.040000000

  position of ions in fractional coordinates (direct lattice)
     0.972450841  0.000320818  0.000566711
     0.039118382  0.133659505  0.000440173
     0.172443627  0.000295449  0.000499628
     0.239096278  0.133647917  0.000256468
     0.972452058  0.200322012  0.000485219
     0.039128360  0.333643771  0.000444150
     0.172451764  0.200354552  0.000219167
     0.239124359  0.333665720  0.000072260
     0.372465565  0.000324403  0.000453913
     0.439137473  0.133619939  0.000258338
     0.972449824  0.400309362  0.000547611
     0.039124981  0.533636789  0.000573410
     0.372416176  0.400329481  0.000000000
     0.439099602  0.533638981  0.000232414
     0.572443676  0.000312125  0.000559580
     0.639110207  0.133631751  0.000547275
     0.972452703  0.600305653  0.000640289
     0.039124495  0.733640359  0.000654513
     0.572433471  0.600306242  0.000402895
     0.639111888  0.733641879  0.000527905
     0.172454630  0.400318228  0.000289045
     0.239120185  0.533636548  0.000378509
     0.372459750  0.200295993  0.000088997
     0.439107096  0.333673419  0.000055762
     0.172452155  0.600311506  0.000524340
     0.239123371  0.733638574  0.000575129
     0.572431082  0.200289171  0.000413296
     0.639112773  0.333618630  0.000462376
     0.372439808  0.600308022  0.000362844
     0.439116090  0.733637858  0.000494190
     0.572469358  0.400320504  0.000339918
     0.639119408  0.533650873  0.000459610
     0.772445723  0.000315427  0.000596161
     0.839116277  0.133640203  0.000575306
     0.772440513  0.200307432  0.000581033
     0.839120241  0.333635728  0.000585467
     0.772446320  0.400298367  0.000582978
     0.839118980  0.533633964  0.000621100
     0.772456143  0.600308173  0.000595712
     0.839115033  0.733643180  0.000631512
     0.972455313  0.800305582  0.000652233
     0.039114714  0.933643289  0.000598051
     0.172457971  0.800312211  0.000623372
     0.239134551  0.933647193  0.000544850
     0.372451396  0.800316674  0.000551399
     0.439124489  0.933644769  0.000541430
     0.572441101  0.800310054  0.000534535
     0.639115067  0.933638985  0.000587644
     0.772445098  0.800313187  0.000602062
     0.839116614  0.933644338  0.000606830
     0.373021009  0.251226878  0.178179744
     0.420879805  0.189313152  0.180756618
     0.325156981  0.313167186  0.175801549

  ion indices of the primitive-cell ions
   primitive index   ion index
                 1           1
                 2           2
                 3           3
                 4           4
                 5           5
                 6           6
                 7           7
                 8           8
                 9           9
                10          10
                11          11
                12          12
                13          13
                14          14
                15          15
                16          16
                17          17
                18          18
                19          19
                20          20
                21          21
                22          22
                23          23
                24          24
                25          25
                26          26
                27          27
                28          28
                29          29
                30          30
                31          31
                32          32
                33          33
                34          34
                35          35
                36          36
                37          37
                38          38
                39          39
                40          40
                41          41
                42          42
                43          43
                44          44
                45          45
                46          46
                47          47
                48          48
                49          49
                50          50
                51          51
                52          52
                53          53

----------------------------------------------------------------------------------------

 
 
 KPOINTS: auto                                    

Automatic generation of k-mesh.
 Grid dimensions read from file:
 generate k-points for:    1    1    1

 Generating k-lattice:

  Cartesian coordinates                     Fractional coordinates (reciprocal lattice)
     0.081135903  0.046843835  0.000000000     1.000000000 -0.000000000  0.000000000
     0.000000000  0.093687670  0.000000000     0.000000000  1.000000000  0.000000000
     0.000000000  0.000000000  0.040000000     0.000000000  0.000000000  1.000000000

  Length of vectors
     0.093687670  0.093687670  0.040000000

  Shift w.r.t. Gamma in fractional coordinates (k-lattice)
     0.000000000  0.000000000  0.000000000

 
 Subroutine IBZKPT returns following result:
 ===========================================
 
 Found      1 irreducible k-points:
 
 Following reciprocal coordinates:
            Coordinates               Weight
  0.000000  0.000000  0.000000      1.000000
 
 Following cartesian coordinates:
            Coordinates               Weight
  0.000000  0.000000  0.000000      1.000000
 


--------------------------------------------------------------------------------------------------------




 Dimension of arrays:
   k-points           NKPTS =      1   k-points in BZ     NKDIM =      1   number of bands    NBANDS=    136
   number of dos      NEDOS =    301   number of ions     NIONS =     53
   non local maximal  LDIM  =      4   non local SUM 2l+1 LMDIM =      8
   total plane-waves  NPLWV = ******
   max r-space proj   IRMAX =      1   max aug-charges    IRDMAX=  10008
   dimension x,y,z NGX =   128 NGY =  128 NGZ =  270
   dimension x,y,z NGXF=   256 NGYF=  256 NGZF=  540
   support grid    NGXF=   256 NGYF=  256 NGZF=  540
   ions per type =              51   2
   NGX,Y,Z   is equivalent  to a cutoff of  17.27, 17.27, 17.95 a.u.
   NGXF,Y,Z  is equivalent  to a cutoff of  34.53, 34.53, 35.91 a.u.

 SYSTEM =  unknown system                          
 POSCAR =   C  O                                   

 Startparameter for this run:
   NWRITE =      2    write-flag & timer
   PREC   = accura    normal or accurate (medium, high low for compatibility)
   ISTART =      0    job   : 0-new  1-cont  2-samecut
   ICHARG =      2    charge: 1-file 2-atom 10-const
   ISPIN  =      1    spin polarized calculation?
   LNONCOLLINEAR =      F non collinear calculations
   LSORBIT =      F    spin-orbit coupling
   INIWAV =      1    electr: 0-lowe 1-rand  2-diag
   LASPH  =      T    aspherical Exc in radial PAW
 Electronic Relaxation 1
   ENCUT  = 1000.0 eV  73.50 Ry    8.57 a.u.  31.78 31.78 64.46*2*pi/ulx,y,z
   ENINI  = 1000.0     initial cutoff
   ENAUG  =  946.8 eV  augmentation charge cutoff
   NELM   =     60;   NELMIN=  2; NELMDL= -5     # of ELM steps 
   EDIFF  = 0.1E-06   stopping-criterion for ELM
   LREAL  =      F    real-space projection
   NLSPLINE    = F    spline interpolate recip. space projectors
   LCOMPAT=      F    compatible to vasp.4.4
   GGA_COMPAT  = T    GGA compatible to vasp.4.4-vasp.4.6
   LMAXPAW     = -100 max onsite density
   LMAXMIX     =    2 max onsite mixed and CHGCAR
   VOSKOWN=      0    Vosko Wilk Nusair interpolation
   ROPT   =    0.00000   0.00000
 Ionic relaxation
   EDIFFG = 0.1E-05   stopping-criterion for IOM
   NSW    =      0    number of steps for IOM
   NBLOCK =      1;   KBLOCK =      1    inner block; outer block 
   IBRION =     -1    ionic relax: 0-MD 1-quasi-New 2-CG
   NFREE  =      0    steps in history (QN), initial steepest desc. (CG)
   ISIF   =      0    stress and relaxation
   IWAVPR =     10    prediction:  0-non 1-charg 2-wave 3-comb
   ISYM   =      2    0-nonsym 1-usesym 2-fastsym
   LCORR  =      T    Harris-Foulkes like correction to forces

   POTIM  = 0.5000    time-step for ionic-motion
   TEIN   =    0.0    initial temperature
   TEBEG  =    0.0;   TEEND  =   0.0 temperature during run
   SMASS  =  -3.00    Nose mass-parameter (am)
   estimated Nose-frequenzy (Omega)   =  0.10E-29 period in steps = 0.13E+47 mass=  -0.347E-26a.u.
   SCALEE = 1.0000    scale energy and forces
   NPACO  =    256;   APACO  = 16.0  distance and # of slots for P.C.
   PSTRESS=    0.0 pullay stress

  Mass of Ions in am
   POMASS =  12.01 16.00
  Ionic Valenz
   ZVAL   =   4.00  6.00
  Atomic Wigner-Seitz radii
   RWIGS  =  -1.00 -1.00
  virtual crystal weights 
   VCA    =   1.00  1.00
   NELECT =     216.0000    total number of electrons
   NUPDOWN=      -1.0000    fix difference up-down

 DOS related values:
   EMIN   =  10.00;   EMAX   =-10.00  energy-range for DOS
   EFERMI =   0.00
   ISMEAR =     0;   SIGMA  =   0.01  broadening in eV -4-tet -1-fermi 0-gaus

 Electronic relaxation 2 (details)
   IALGO  =     58    algorithm
   LDIAG  =      T    sub-space diagonalisation (order eigenvalues)
   LSUBROT=      F    optimize rotation matrix (better conditioning)
   TURBO    =      0    0=normal 1=particle mesh
   IRESTART =      0    0=no restart 2=restart with 2 vectors
   NREBOOT  =      0    no. of reboots
   NMIN     =      0    reboot dimension
   EREF     =   0.00    reference energy to select bands
   IMIX   =      4    mixing-type and parameters
     AMIX     =   0.40;   BMIX     =  1.00
     AMIX_MAG =   1.60;   BMIX_MAG =  1.00
     AMIN     =   0.10
     WC   =   100.;   INIMIX=   1;  MIXPRE=   1;  MAXMIX= -45

 Intra band minimization:
   WEIMIN = 0.0000     energy-eigenvalue tresh-hold
   EBREAK =  0.18E-09  absolut break condition
   DEPER  =   0.30     relativ break condition  

   TIME   =   0.40     timestep for ELM

  volume/ion in A,a.u.               =      62.05       418.76
  Fermi-wavevector in a.u.,A,eV,Ry     =   0.660508  1.248179  5.935820  0.436270
  Thomas-Fermi vector in A             =   1.732977
 
 Write flags
   LWAVE        =      T    write WAVECAR
   LDOWNSAMPLE  =      F    k-point downsampling of WAVECAR
   LCHARG       =      T    write CHGCAR
   LVTOT        =      F    write LOCPOT, total local potential
   LVHAR        =      F    write LOCPOT, Hartree potential only
   LELF         =      F    write electronic localiz. function (ELF)
   LORBIT       =      0    0 simple, 1 ext, 2 COOP (PROOUT), +10 PAW based schemes


 Dipole corrections
   LMONO  =      F    monopole corrections only (constant potential shift)
   LDIPOL =      F    correct potential (dipole corrections)
   IDIPOL =      0    1-x, 2-y, 3-z, 4-all directions 
   EPSILON=  1.0000000 bulk dielectric constant

 Exchange correlation treatment:
   GGA     =    MK    GGA type
   LEXCH   =    43    internal setting for exchange type
   VOSKOWN=      0    Vosko Wilk Nusair interpolation
   LHFCALC =     F    Hartree Fock is set to
   LHFONE  =     F    Hartree Fock one center treatment
   AEXX    =    0.0000 exact exchange contribution

 vdW DFT:
   LUSE_VDW   =     T    switch on vdW DFT
   Zab_VDW    =-.8491    correlation parameter
   PARAM1     =0.1234
   PARAM2     =1.0000
   PARAM3     =0.0000
   -- rVV10 --
   BPARAM     = 6.3000
   CPARAM     = 0.0093

 Linear response parameters
   LEPSILON=     F    determine dielectric tensor
   LRPA    =     F    only Hartree local field effects (RPA)
   LNABLA  =     F    use nabla operator in PAW spheres
   LVEL    =     F    velocity operator in full k-point grid
   LINTERFAST=   F  fast interpolation
   KINTER  =     0    interpolate to denser k-point grid
   CSHIFT  =0.1000    complex shift for real part using Kramers Kronig
   OMEGAMAX=  -1.0    maximum frequency
   DEG_THRESHOLD= 0.2000000E-02 threshold for treating states as degnerate
   RTIME   =   -0.100 relaxation time in fs
  (WPLASMAI=    0.000 imaginary part of plasma frequency in eV, 0.658/RTIME)
   DFIELD  = 0.0000000 0.0000000 0.0000000 field for delta impulse in time
 
 Orbital magnetization related:
   ORBITALMAG=     F  switch on orbital magnetization
   LCHIMAG   =     F  perturbation theory with respect to B field
   DQ        =  0.001000  dq finite difference perturbation B field
   LLRAUG    =     F  two centre corrections for induced B field



--------------------------------------------------------------------------------------------------------


 Static calculation
 charge density and potential will be updated during run
 non-spin polarized calculation
 Conjugate gradient for all bands (Freysoldt, et al. PRB 79, 241103 (2009))
 preconditioned conjugated gradient                                        
 perform sub-space diagonalisation
    before iterative eigenvector-optimisation
 modified Broyden-mixing scheme, WC =      100.0
 initial mixing is a Kerker type mixing with AMIX =  0.4000 and BMIX =      1.0000
 Hartree-type preconditioning will be used
 using additional bands           28
 reciprocal scheme for non local part
 use partial core corrections
 no Harris-corrections to forces 
 use gradient corrections 
 use of overlap-Matrix (Vanderbilt PP)
 Gauss-broadening in eV      SIGMA  =   0.01


--------------------------------------------------------------------------------------------------------


  energy-cutoff  :     1000.00
  volume of cell :     3288.85
      direct lattice vectors                 reciprocal lattice vectors
    12.325000000  0.000000000  0.000000000     0.081135903  0.046843835  0.000000000
    -6.162500000 10.673763102  0.000000000     0.000000000  0.093687670  0.000000000
     0.000000000  0.000000000 25.000000000     0.000000000  0.000000000  0.040000000

  length of vectors
    12.325000000 12.325000000 25.000000000     0.093687670  0.093687670  0.040000000


 
 k-points in units of 2pi/SCALE and weight: auto                                    
   0.00000000  0.00000000  0.00000000       1.000
 
 k-points in reciprocal lattice and weights: auto                                    
   0.00000000  0.00000000  0.00000000       1.000
 
 position of ions in fractional coordinates (direct lattice) 
   0.97245084  0.00032082  0.00056671
   0.03911838  0.13365950  0.00044017
   0.17244363  0.00029545  0.00049963
   0.23909628  0.13364792  0.00025647
   0.97245206  0.20032201  0.00048522
   0.03912836  0.33364377  0.00044415
   0.17245176  0.20035455  0.00021917
   0.23912436  0.33366572  0.00007226
   0.37246557  0.00032440  0.00045391
   0.43913747  0.13361994  0.00025834
   0.97244982  0.40030936  0.00054761
   0.03912498  0.53363679  0.00057341
   0.37241618  0.40032948  0.00000000
   0.43909960  0.53363898  0.00023241
   0.57244368  0.00031213  0.00055958
   0.63911021  0.13363175  0.00054727
   0.97245270  0.60030565  0.00064029
   0.03912449  0.73364036  0.00065451
   0.57243347  0.60030624  0.00040289
   0.63911189  0.73364188  0.00052791
   0.17245463  0.40031823  0.00028904
   0.23912018  0.53363655  0.00037851
   0.37245975  0.20029599  0.00008900
   0.43910710  0.33367342  0.00005576
   0.17245216  0.60031151  0.00052434
   0.23912337  0.73363857  0.00057513
   0.57243108  0.20028917  0.00041330
   0.63911277  0.33361863  0.00046238
   0.37243981  0.60030802  0.00036284
   0.43911609  0.73363786  0.00049419
   0.57246936  0.40032050  0.00033992
   0.63911941  0.53365087  0.00045961
   0.77244572  0.00031543  0.00059616
   0.83911628  0.13364020  0.00057531
   0.77244051  0.20030743  0.00058103
   0.83912024  0.33363573  0.00058547
   0.77244632  0.40029837  0.00058298
   0.83911898  0.53363396  0.00062110
   0.77245614  0.60030817  0.00059571
   0.83911503  0.73364318  0.00063151
   0.97245531  0.80030558  0.00065223
   0.03911471  0.93364329  0.00059805
   0.17245797  0.80031221  0.00062337
   0.23913455  0.93364719  0.00054485
   0.37245140  0.80031667  0.00055140
   0.43912449  0.93364477  0.00054143
   0.57244110  0.80031005  0.00053453
   0.63911507  0.93363899  0.00058764
   0.77244510  0.80031319  0.00060206
   0.83911661  0.93364434  0.00060683
   0.37302101  0.25122688  0.17817974
   0.42087980  0.18931315  0.18075662
   0.32515698  0.31316719  0.17580155
 
 position of ions in cartesian coordinates  (Angst):
  11.98347958  0.00342433  0.01416777
  -0.34154264  1.42664989  0.01100432
   2.12354700  0.00315355  0.01249070
   2.12325634  1.42652621  0.00641170
  10.75098721  2.13818970  0.01213047
  -1.57382270  3.56123457  0.01110375
   0.89078307  2.13853702  0.00547917
   0.89099273  3.56146885  0.00180651
   4.58863896  0.00346260  0.01134782
   4.58893648  1.42622757  0.00645846
   9.51853763  4.27280730  0.01369027
  -2.80632132  5.69591267  0.01433526
   2.12299894  4.27302204  0.00000000
   2.12335237  5.69593607  0.00581036
   7.05344483  0.00333155  0.01398950
   7.05352764  1.42635365  0.01368187
   8.28609598  6.40752033  0.01600723
  -4.03884931  7.83070339  0.01636283
   3.35585531  6.40752662  0.01007237
   3.35598594  7.83071962  0.01319763
  -0.34145776  4.27290193  0.00722612
  -0.34137895  5.69591010  0.00946273
   3.35624236  2.13791198  0.00222492
   3.35573251  3.56155103  0.00139405
  -1.57394684  6.40758280  0.01310850
  -1.57385216  7.83068434  0.01437823
   5.82093107  2.13783916  0.01033241
   5.82114012  3.56096622  0.01155939
   0.89092245  6.40754561  0.00907111
   0.89106251  7.83067670  0.01235474
   4.58870974  4.27292622  0.00849795
   4.58852320  5.69606300  0.01149026
   9.51844972  0.00336679  0.01490402
   9.51855036  1.42644387  0.01438264
   8.28593477  2.13803408  0.01452582
   8.28612680  3.56114872  0.01463668
   7.05356221  4.27268994  0.01457444
   7.05362213  5.69588251  0.01552751
   5.82112285  6.40754723  0.01489279
   5.82101669  7.83073350  0.01578780
   7.05362858  8.54227219  0.01630582
  -5.27148792  9.96548729  0.01495127
  -2.80637951  8.54234295  0.01558431
  -2.80626749  9.96552896  0.01362126
  -0.34148805  8.54239058  0.01378498
  -0.34137657  9.96550309  0.01353576
   2.12342586  8.54231992  0.01336337
   2.12354296  9.96544135  0.01469111
   4.58845581  8.54235337  0.01505154
   4.58852904  9.96549848  0.01517076
   3.04929830  2.68153618  4.45449359
   4.02070129  2.02068374  4.51891545
   2.07766701  3.34267235  4.39503872
 


--------------------------------------------------------------------------------------------------------


 k-point   1 :   0.0000 0.0000 0.0000  plane waves:  236157

 maximum and minimum number of plane-waves per node :      8440     8428

 maximum number of plane-waves:    236157
 maximum index in each direction: 
   IXMAX=   31   IYMAX=   31   IZMAX=   64
   IXMIN=  -31   IYMIN=  -31   IZMIN=  -64


 parallel 3D FFT for wavefunctions:
    minimum data exchange during FFTs selected (reduces bandwidth)
 parallel 3D FFT for charge:
    minimum data exchange during FFTs selected (reduces bandwidth)


 total amount of memory used by VASP MPI-rank0   100580. kBytes
=======================================================================

   base      :      30000. kBytes
   nonl-proj :       8229. kBytes
   fftplans  :      18352. kBytes
   grid      :      30208. kBytes
   one-center:          6. kBytes
   wavefun   :      13785. kBytes
 
     INWAV:  cpu time    0.0000: real time    0.0000
 Broyden mixing: mesh for mixing (old mesh)
   NGX = 63   NGY = 63   NGZ =129
  (NGX  =256   NGY  =256   NGZ  =540)
  gives a total of 512001 points

 initial charge density was supplied:
 charge density of overlapping atoms calculated
 number of electron     216.0000000 magnetization 
 keeping initial charge density in first step


--------------------------------------------------------------------------------------------------------


 Maximum index for augmentation-charges          471 (set IRDMAX)


--------------------------------------------------------------------------------------------------------


 First call to EWALD:  gamma=   0.119
 Maximum number of real-space cells 4x 4x 2
 Maximum number of reciprocal cells 2x 2x 4

    FEWALD:  cpu time    0.0024: real time    0.0024


--------------------------------------- Iteration      1(   1)  ---------------------------------------


vdW kernel read from vdw_kernel.bindat
  0.0000  0.2424  0.5071  0.7962  1.1119  1.4567  1.8333  2.2446  2.6937  3.1842
  3.7199  4.3049  4.9438  5.6415  6.4036  7.2358  8.1446  9.1372 10.2212 11.4050
 12.6979 14.1099 15.6519 17.3360 19.1751 21.1837 23.3773 25.7729 28.3892 31.2465
 34.3669 37.7748 41.4965 45.5611 50.0000
 
    POTLOK:  cpu time    4.4382: real time    4.5057
    SETDIJ:  cpu time    0.0557: real time    0.0559
    TRIAL :  cpu time    2.1183: real time    2.1388
    CORREC:  cpu time    0.0003: real time    0.0005
    --------------------------------------------
      LOOP:  cpu time    6.6185: real time    6.7139

 eigenvalue-minimisations  :   296
 total energy-change (2. order) : 0.2721322E+04  (-0.1022298E+05)
 number of electron     216.0000000 magnetization 
 augmentation part      216.0000000 magnetization 

 Free energy of the ion-electron system (eV)
  ---------------------------------------------------
  alpha Z        PSCENC =        47.94900195
  Ewald energy   TEWEN  =     45539.65285635
  -Hartree energ DENC   =    -51608.79285844
  -exchange      EXHF   =         0.00000000
  -V(xc)+E(xc)   XCENC  =       414.09909009
  PAW double counting   =      6552.85433684    -6257.21772958
  entropy T*S    EENTRO =        -0.00000000
  eigenvalues    EBANDS =      -382.25802375
  atomic energy  EATOM  =      8415.03548706
  ---------------------------------------------------
  free energy    TOTEN  =      2721.32216053 eV

  energy without entropy =     2721.32216053  energy(sigma->0) =     2721.32216053


--------------------------------------------------------------------------------------------------------




--------------------------------------- Iteration      1(   2)  ---------------------------------------


    TRIAL :  cpu time    2.8573: real time    2.8818
    CORREC:  cpu time    0.0001: real time    0.0001
    --------------------------------------------
      LOOP:  cpu time    2.9073: real time    2.9362

 eigenvalue-minimisations  :   448
 total energy-change (2. order) :-0.2288309E+04  (-0.2137091E+04)
 number of electron     216.0000000 magnetization 
 augmentation part      216.0000000 magnetization 

 Free energy of the ion-electron system (eV)
  ---------------------------------------------------
  alpha Z        PSCENC =        47.94900195
  Ewald energy   TEWEN  =     45539.65285635
  -Hartree energ DENC   =    -51608.79285844
  -exchange      EXHF   =         0.00000000
  -V(xc)+E(xc)   XCENC  =       414.09909009
  PAW double counting   =      6552.85433684    -6257.21772958
  entropy T*S    EENTRO =        -0.00000000
  eigenvalues    EBANDS =     -2670.56719811
  atomic energy  EATOM  =      8415.03548706
  ---------------------------------------------------
  free energy    TOTEN  =       433.01298617 eV

  energy without entropy =      433.01298617  energy(sigma->0) =      433.01298617


--------------------------------------------------------------------------------------------------------




--------------------------------------- Iteration      1(   3)  ---------------------------------------


    TRIAL :  cpu time    2.3662: real time    2.3869
    CORREC:  cpu time    0.0001: real time    0.0001
    --------------------------------------------
      LOOP:  cpu time    2.4191: real time    2.4409

 eigenvalue-minimisations  :   352
 total energy-change (2. order) :-0.8070102E+03  (-0.7934571E+03)
 number of electron     216.0000000 magnetization 
 augmentation part      216.0000000 magnetization 

 Free energy of the ion-electron system (eV)
  ---------------------------------------------------
  alpha Z        PSCENC =        47.94900195
  Ewald energy   TEWEN  =     45539.65285635
  -Hartree energ DENC   =    -51608.79285844
  -exchange      EXHF   =         0.00000000
  -V(xc)+E(xc)   XCENC  =       414.09909009
  PAW double counting   =      6552.85433684    -6257.21772958
  entropy T*S    EENTRO =        -0.00000000
  eigenvalues    EBANDS =     -3477.57734944
  atomic energy  EATOM  =      8415.03548706
  ---------------------------------------------------
  free energy    TOTEN  =      -373.99716516 eV

  energy without entropy =     -373.99716516  energy(sigma->0) =     -373.99716516


--------------------------------------------------------------------------------------------------------




--------------------------------------- Iteration      1(   4)  ---------------------------------------


    TRIAL :  cpu time    2.2886: real time    2.3082
    CORREC:  cpu time    0.0000: real time    0.0000
    --------------------------------------------
      LOOP:  cpu time    2.3339: real time    2.3565

 eigenvalue-minimisations  :   336
 total energy-change (2. order) :-0.7371353E+02  (-0.7261012E+02)
 number of electron     216.0000000 magnetization 
 augmentation part      216.0000000 magnetization 

 Free energy of the ion-electron system (eV)
  ---------------------------------------------------
  alpha Z        PSCENC =        47.94900195
  Ewald energy   TEWEN  =     45539.65285635
  -Hartree energ DENC   =    -51608.79285844
  -exchange      EXHF   =         0.00000000
  -V(xc)+E(xc)   XCENC  =       414.09909009
  PAW double counting   =      6552.85433684    -6257.21772958
  entropy T*S    EENTRO =        -0.00000000
  eigenvalues    EBANDS =     -3551.29087739
  atomic energy  EATOM  =      8415.03548706
  ---------------------------------------------------
  free energy    TOTEN  =      -447.71069311 eV

  energy without entropy =     -447.71069311  energy(sigma->0) =     -447.71069311


--------------------------------------------------------------------------------------------------------




--------------------------------------- Iteration      1(   5)  ---------------------------------------


    TRIAL :  cpu time    2.4264: real time    2.4473
    CORREC:  cpu time    0.0001: real time    0.0001
    CHARGE:  cpu time    0.1781: real time    0.1802
    --------------------------------------------
      LOOP:  cpu time    2.6741: real time    2.6990

 eigenvalue-minimisations  :   360
 total energy-change (2. order) :-0.2296573E+01  (-0.2282824E+01)
 number of electron     216.0000000 magnetization 
 augmentation part       -0.2538403 magnetization 

 Free energy of the ion-electron system (eV)
  ---------------------------------------------------
  alpha Z        PSCENC =        47.94900195
  Ewald energy   TEWEN  =     45539.65285635
  -Hartree energ DENC   =    -51608.79285844
  -exchange      EXHF   =         0.00000000
  -V(xc)+E(xc)   XCENC  =       414.09909009
  PAW double counting   =      6552.85433684    -6257.21772958
  entropy T*S    EENTRO =        -0.00000000
  eigenvalues    EBANDS =     -3553.58745025
  atomic energy  EATOM  =      8415.03548706
  ---------------------------------------------------
  free energy    TOTEN  =      -450.00726597 eV

  energy without entropy =     -450.00726597  energy(sigma->0) =     -450.00726597


--------------------------------------------------------------------------------------------------------




--------------------------------------- Iteration      1(   6)  ---------------------------------------


    POTLOK:  cpu time    4.1419: real time    4.1709
    SETDIJ:  cpu time    0.0541: real time    0.0543
    TRIAL :  cpu time    1.1648: real time    1.1756
    CORREC:  cpu time    4.6259: real time    4.6606
    CHARGE:  cpu time    0.1779: real time    0.1795
    --------------------------------------------
      LOOP:  cpu time   10.1870: real time   10.2676

 eigenvalue-minimisations  :     0
 total energy-change (2. order) : 0.5099261E+02  (-0.1574554E+02)
 number of electron     216.0000000 magnetization 
 augmentation part       -0.3466519 magnetization 

 Free energy of the ion-electron system (eV)
  ---------------------------------------------------
  alpha Z        PSCENC =        47.94900195
  Ewald energy   TEWEN  =     45539.65285635
  -Hartree energ DENC   =    -53040.79231648
  -exchange      EXHF   =         0.00000000
  -V(xc)+E(xc)   XCENC  =       461.61283793
  PAW double counting   =     86012.64384827   -85722.00103943
  entropy T*S    EENTRO =        -0.00000000
  eigenvalues    EBANDS =     -2113.11532838
  atomic energy  EATOM  =      8415.03548706
  ---------------------------------------------------
  free energy    TOTEN  =      -399.01465272 eV

  energy without entropy =     -399.01465272  energy(sigma->0) =     -399.01465272


--------------------------------------------------------------------------------------------------------




--------------------------------------- Iteration      1(   7)  ---------------------------------------


    POTLOK:  cpu time    4.1395: real time    4.1695
    SETDIJ:  cpu time    0.0542: real time    0.0543
    TRIAL :  cpu time    1.1773: real time    1.1888
    CORREC:  cpu time    4.6363: real time    4.6723
    CHARGE:  cpu time    0.1776: real time    0.1793
    --------------------------------------------
      LOOP:  cpu time   10.2450: real time   10.3266

 eigenvalue-minimisations  :     0
 total energy-change (2. order) :-0.1579121E+02  (-0.1840089E+01)
 number of electron     216.0000000 magnetization 
 augmentation part       -0.3910345 magnetization 

 Free energy of the ion-electron system (eV)
  ---------------------------------------------------
  alpha Z        PSCENC =        47.94900195
  Ewald energy   TEWEN  =     45539.65285635
  -Hartree energ DENC   =    -52528.22602149
  -exchange      EXHF   =         0.00000000
  -V(xc)+E(xc)   XCENC  =       444.64117514
  PAW double counting   =    101174.43600949  -100881.38698374
  entropy T*S    EENTRO =        -0.00000000
  eigenvalues    EBANDS =     -2626.90738462
  atomic energy  EATOM  =      8415.03548706
  ---------------------------------------------------
  free energy    TOTEN  =      -414.80585986 eV

  energy without entropy =     -414.80585986  energy(sigma->0) =     -414.80585986


--------------------------------------------------------------------------------------------------------




--------------------------------------- Iteration      1(   8)  ---------------------------------------


    POTLOK:  cpu time    4.1472: real time    4.1773
    SETDIJ:  cpu time    0.0544: real time    0.0547
    TRIAL :  cpu time    1.1591: real time    1.1699
    CORREC:  cpu time    4.6382: real time    4.6734
    CHARGE:  cpu time    0.1776: real time    0.1792
    --------------------------------------------
      LOOP:  cpu time   10.2059: real time   10.2845

 eigenvalue-minimisations  :     0
 total energy-change (2. order) :-0.1839290E+01  (-0.5072025E+00)
 number of electron     216.0000000 magnetization 
 augmentation part       -0.4080553 magnetization 

 Free energy of the ion-electron system (eV)
  ---------------------------------------------------
  alpha Z        PSCENC =        47.94900195
  Ewald energy   TEWEN  =     45539.65285635
  -Hartree energ DENC   =    -52501.68456213
  -exchange      EXHF   =         0.00000000
  -V(xc)+E(xc)   XCENC  =       444.13546466
  PAW double counting   =    105148.25649112  -104854.92945541
  entropy T*S    EENTRO =        -0.00000000
  eigenvalues    EBANDS =     -2655.06043360
  atomic energy  EATOM  =      8415.03548706
  ---------------------------------------------------
  free energy    TOTEN  =      -416.64514998 eV

  energy without entropy =     -416.64514998  energy(sigma->0) =     -416.64514998


--------------------------------------------------------------------------------------------------------




--------------------------------------- Iteration      1(   9)  ---------------------------------------


    POTLOK:  cpu time    4.1387: real time    4.1683
    SETDIJ:  cpu time    0.0542: real time    0.0544
    TRIAL :  cpu time    1.1597: real time    1.1712
    CORREC:  cpu time    4.6402: real time    4.6782
    CHARGE:  cpu time    0.1783: real time    0.1799
    --------------------------------------------
      LOOP:  cpu time   10.2105: real time   10.2924

 eigenvalue-minimisations  :     0
 total energy-change (2. order) :-0.5070541E+00  (-0.1918594E+00)
 number of electron     216.0000000 magnetization 
 augmentation part       -0.4159925 magnetization 

 Free energy of the ion-electron system (eV)
  ---------------------------------------------------
  alpha Z        PSCENC =        47.94900195
  Ewald energy   TEWEN  =     45539.65285635
  -Hartree energ DENC   =    -52517.65390123
  -exchange      EXHF   =         0.00000000
  -V(xc)+E(xc)   XCENC  =       444.30790619
  PAW double counting   =    107752.66769681  -107459.21987028
  entropy T*S    EENTRO =        -0.00000000
  eigenvalues    EBANDS =     -2639.89138090
  atomic energy  EATOM  =      8415.03548706
  ---------------------------------------------------
  free energy    TOTEN  =      -417.15220405 eV

  energy without entropy =     -417.15220405  energy(sigma->0) =     -417.15220405


--------------------------------------------------------------------------------------------------------




--------------------------------------- Iteration      1(  10)  ---------------------------------------


    POTLOK:  cpu time    4.1786: real time    4.2093
    SETDIJ:  cpu time    0.0544: real time    0.0546
    TRIAL :  cpu time    1.1735: real time    1.1863
    CORREC:  cpu time    4.6500: real time    4.6862
    CHARGE:  cpu time    0.1777: real time    0.1792
    --------------------------------------------
      LOOP:  cpu time   10.3144: real time   10.3975

 eigenvalue-minimisations  :     0
 total energy-change (2. order) :-0.1912913E+00  (-0.9229622E-01)
 number of electron     216.0000000 magnetization 
 augmentation part       -0.4158726 magnetization 

 Free energy of the ion-electron system (eV)
  ---------------------------------------------------
  alpha Z        PSCENC =        47.94900195
  Ewald energy   TEWEN  =     45539.65285635
  -Hartree energ DENC   =    -52515.30410265
  -exchange      EXHF   =         0.00000000
  -V(xc)+E(xc)   XCENC  =       444.14804939
  PAW double counting   =    108177.76474616  -107884.23789409
  entropy T*S    EENTRO =        -0.00000000
  eigenvalues    EBANDS =     -2642.35163958
  atomic energy  EATOM  =      8415.03548706
  ---------------------------------------------------
  free energy    TOTEN  =      -417.34349540 eV

  energy without entropy =     -417.34349540  energy(sigma->0) =     -417.34349540


--------------------------------------------------------------------------------------------------------




--------------------------------------- Iteration      1(  11)  ---------------------------------------


    POTLOK:  cpu time    4.1721: real time    4.2100
    SETDIJ:  cpu time    0.0541: real time    0.0542
    TRIAL :  cpu time    1.1579: real time    1.1688
    CORREC:  cpu time    4.6397: real time    4.6743
    CHARGE:  cpu time    0.1762: real time    0.1778
    --------------------------------------------
      LOOP:  cpu time   10.2380: real time   10.3262

 eigenvalue-minimisations  :     0
 total energy-change (2. order) :-0.9179693E-01  (-0.3720222E-01)
 number of electron     216.0000000 magnetization 
 augmentation part       -0.4151053 magnetization 

 Free energy of the ion-electron system (eV)
  ---------------------------------------------------
  alpha Z        PSCENC =        47.94900195
  Ewald energy   TEWEN  =     45539.65285635
  -Hartree energ DENC   =    -52507.93365003
  -exchange      EXHF   =         0.00000000
  -V(xc)+E(xc)   XCENC  =       444.03620203
  PAW double counting   =    107637.52123235  -107344.00079713
  entropy T*S    EENTRO =        -0.00000000
  eigenvalues    EBANDS =     -2649.69562492
  atomic energy  EATOM  =      8415.03548706
  ---------------------------------------------------
  free energy    TOTEN  =      -417.43529233 eV

  energy without entropy =     -417.43529233  energy(sigma->0) =     -417.43529233


--------------------------------------------------------------------------------------------------------




--------------------------------------- Iteration      1(  12)  ---------------------------------------


    POTLOK:  cpu time    4.1409: real time    4.1799
    SETDIJ:  cpu time    0.0544: real time    0.0546
    TRIAL :  cpu time    1.1600: real time    1.1713
    CORREC:  cpu time    4.6057: real time    4.6401
    CHARGE:  cpu time    0.1774: real time    0.1789
    --------------------------------------------
      LOOP:  cpu time   10.2018: real time   10.2887

 eigenvalue-minimisations  :     0
 total energy-change (2. order) :-0.3709074E-01  (-0.1137839E-01)
 number of electron     216.0000000 magnetization 
 augmentation part       -0.4148248 magnetization 

 Free energy of the ion-electron system (eV)
  ---------------------------------------------------
  alpha Z        PSCENC =        47.94900195
  Ewald energy   TEWEN  =     45539.65285635
  -Hartree energ DENC   =    -52504.66265318
  -exchange      EXHF   =         0.00000000
  -V(xc)+E(xc)   XCENC  =       443.96058671
  PAW double counting   =    107251.68622406  -106958.18579939
  entropy T*S    EENTRO =        -0.00000000
  eigenvalues    EBANDS =     -2652.90808665
  atomic energy  EATOM  =      8415.03548706
  ---------------------------------------------------
  free energy    TOTEN  =      -417.47238307 eV

  energy without entropy =     -417.47238307  energy(sigma->0) =     -417.47238307


--------------------------------------------------------------------------------------------------------




--------------------------------------- Iteration      1(  13)  ---------------------------------------


    POTLOK:  cpu time    4.1440: real time    4.1922
    SETDIJ:  cpu time    0.0541: real time    0.0543
    TRIAL :  cpu time    1.1586: real time    1.1696
    CORREC:  cpu time    4.6613: real time    4.6993
    CHARGE:  cpu time    0.1774: real time    0.1792
    --------------------------------------------
      LOOP:  cpu time   10.2743: real time   10.3772

 eigenvalue-minimisations  :     0
 total energy-change (2. order) :-0.1137193E-01  (-0.3368764E-02)
 number of electron     216.0000000 magnetization 
 augmentation part       -0.4141360 magnetization 

 Free energy of the ion-electron system (eV)
  ---------------------------------------------------
  alpha Z        PSCENC =        47.94900195
  Ewald energy   TEWEN  =     45539.65285635
  -Hartree energ DENC   =    -52504.58992450
  -exchange      EXHF   =         0.00000000
  -V(xc)+E(xc)   XCENC  =       443.95401655
  PAW double counting   =    107115.95372500  -106822.46356354
  entropy T*S    EENTRO =        -0.00000000
  eigenvalues    EBANDS =     -2652.97535388
  atomic energy  EATOM  =      8415.03548706
  ---------------------------------------------------
  free energy    TOTEN  =      -417.48375500 eV

  energy without entropy =     -417.48375500  energy(sigma->0) =     -417.48375500


--------------------------------------------------------------------------------------------------------




--------------------------------------- Iteration      1(  14)  ---------------------------------------


    POTLOK:  cpu time    4.1418: real time    4.1781
    SETDIJ:  cpu time    0.0544: real time    0.0546
    TRIAL :  cpu time    1.1674: real time    1.1784
    CORREC:  cpu time    4.6216: real time    4.6572
    CHARGE:  cpu time    0.1786: real time    0.1803
    --------------------------------------------
      LOOP:  cpu time   10.2267: real time   10.3152

 eigenvalue-minimisations  :     0
 total energy-change (2. order) :-0.3370275E-02  (-0.1270719E-02)
 number of electron     216.0000000 magnetization 
 augmentation part       -0.4137596 magnetization 

 Free energy of the ion-electron system (eV)
  ---------------------------------------------------
  alpha Z        PSCENC =        47.94900195
  Ewald energy   TEWEN  =     45539.65285635
  -Hartree energ DENC   =    -52504.60368099
  -exchange      EXHF   =         0.00000000
  -V(xc)+E(xc)   XCENC  =       443.95332129
  PAW double counting   =    107104.67149314  -106811.18545204
  entropy T*S    EENTRO =        -0.00000000
  eigenvalues    EBANDS =     -2652.96015205
  atomic energy  EATOM  =      8415.03548706
  ---------------------------------------------------
  free energy    TOTEN  =      -417.48712528 eV

  energy without entropy =     -417.48712528  energy(sigma->0) =     -417.48712528


--------------------------------------------------------------------------------------------------------




--------------------------------------- Iteration      1(  15)  ---------------------------------------


    POTLOK:  cpu time    4.1396: real time    4.1688
    SETDIJ:  cpu time    0.0542: real time    0.0543
    TRIAL :  cpu time    1.1576: real time    1.1685
    CORREC:  cpu time    4.6327: real time    4.6671
    CHARGE:  cpu time    0.1779: real time    0.1794
    --------------------------------------------
      LOOP:  cpu time   10.2087: real time   10.2885

 eigenvalue-minimisations  :     0
 total energy-change (2. order) :-0.1272888E-02  (-0.6498604E-03)
 number of electron     216.0000000 magnetization 
 augmentation part       -0.4132899 magnetization 

 Free energy of the ion-electron system (eV)
  ---------------------------------------------------
  alpha Z        PSCENC =        47.94900195
  Ewald energy   TEWEN  =     45539.65285635
  -Hartree energ DENC   =    -52504.30449706
  -exchange      EXHF   =         0.00000000
  -V(xc)+E(xc)   XCENC  =       443.93645961
  PAW double counting   =    107086.60528096  -106793.11797649
  entropy T*S    EENTRO =        -0.00000000
  eigenvalues    EBANDS =     -2653.24501055
  atomic energy  EATOM  =      8415.03548706
  ---------------------------------------------------
  free energy    TOTEN  =      -417.48839816 eV

  energy without entropy =     -417.48839816  energy(sigma->0) =     -417.48839816


--------------------------------------------------------------------------------------------------------




--------------------------------------- Iteration      1(  16)  ---------------------------------------


    POTLOK:  cpu time    4.1630: real time    4.1939
    SETDIJ:  cpu time    0.0543: real time    0.0545
    TRIAL :  cpu time    1.1636: real time    1.1750
    CORREC:  cpu time    4.6051: real time    4.6448
    CHARGE:  cpu time    0.1784: real time    0.1800
    --------------------------------------------
      LOOP:  cpu time   10.2120: real time   10.2962

 eigenvalue-minimisations  :     0
 total energy-change (2. order) :-0.6513863E-03  (-0.3425448E-03)
 number of electron     216.0000000 magnetization 
 augmentation part       -0.4131707 magnetization 

 Free energy of the ion-electron system (eV)
  ---------------------------------------------------
  alpha Z        PSCENC =        47.94900195
  Ewald energy   TEWEN  =     45539.65285635
  -Hartree energ DENC   =    -52504.79194343
  -exchange      EXHF   =         0.00000000
  -V(xc)+E(xc)   XCENC  =       443.95247639
  PAW double counting   =    107020.94068659  -106727.45535932
  entropy T*S    EENTRO =        -0.00000000
  eigenvalues    EBANDS =     -2652.77225514
  atomic energy  EATOM  =      8415.03548706
  ---------------------------------------------------
  free energy    TOTEN  =      -417.48904955 eV

  energy without entropy =     -417.48904955  energy(sigma->0) =     -417.48904955


--------------------------------------------------------------------------------------------------------




--------------------------------------- Iteration      1(  17)  ---------------------------------------


    POTLOK:  cpu time    4.1557: real time    4.1850
    SETDIJ:  cpu time    0.0542: real time    0.0543
    TRIAL :  cpu time    1.1611: real time    1.1719
    CORREC:  cpu time    4.6229: real time    4.6575
    CHARGE:  cpu time    0.1781: real time    0.1796
    --------------------------------------------
      LOOP:  cpu time   10.2180: real time   10.2978

 eigenvalue-minimisations  :     0
 total energy-change (2. order) :-0.3437603E-03  (-0.1370809E-03)
 number of electron     216.0000000 magnetization 
 augmentation part       -0.4132768 magnetization 

 Free energy of the ion-electron system (eV)
  ---------------------------------------------------
  alpha Z        PSCENC =        47.94900195
  Ewald energy   TEWEN  =     45539.65285635
  -Hartree energ DENC   =    -52504.97858566
  -exchange      EXHF   =         0.00000000
  -V(xc)+E(xc)   XCENC  =       443.95492149
  PAW double counting   =    106964.51555183  -106671.02940266
  entropy T*S    EENTRO =        -0.00000000
  eigenvalues    EBANDS =     -2652.58922367
  atomic energy  EATOM  =      8415.03548706
  ---------------------------------------------------
  free energy    TOTEN  =      -417.48939331 eV

  energy without entropy =     -417.48939331  energy(sigma->0) =     -417.48939331


--------------------------------------------------------------------------------------------------------




--------------------------------------- Iteration      1(  18)  ---------------------------------------


    POTLOK:  cpu time    4.1415: real time    4.1720
    SETDIJ:  cpu time    0.0542: real time    0.0543
    TRIAL :  cpu time    1.1555: real time    1.1664
    CORREC:  cpu time    4.6160: real time    4.6572
    CHARGE:  cpu time    0.1770: real time    0.1790
    --------------------------------------------
      LOOP:  cpu time   10.1857: real time   10.2769

 eigenvalue-minimisations  :     0
 total energy-change (2. order) :-0.1370962E-03  (-0.5180914E-04)
 number of electron     216.0000000 magnetization 
 augmentation part       -0.4134672 magnetization 

 Free energy of the ion-electron system (eV)
  ---------------------------------------------------
  alpha Z        PSCENC =        47.94900195
  Ewald energy   TEWEN  =     45539.65285635
  -Hartree energ DENC   =    -52505.02908200
  -exchange      EXHF   =         0.00000000
  -V(xc)+E(xc)   XCENC  =       443.95737142
  PAW double counting   =    106959.00070504  -106665.51397665
  entropy T*S    EENTRO =        -0.00000000
  eigenvalues    EBANDS =     -2652.54189358
  atomic energy  EATOM  =      8415.03548706
  ---------------------------------------------------
  free energy    TOTEN  =      -417.48953041 eV

  energy without entropy =     -417.48953041  energy(sigma->0) =     -417.48953041


--------------------------------------------------------------------------------------------------------




--------------------------------------- Iteration      1(  19)  ---------------------------------------


    POTLOK:  cpu time    4.1593: real time    4.1897
    SETDIJ:  cpu time    0.0586: real time    0.0588
    TRIAL :  cpu time    1.1582: real time    1.1692
    CORREC:  cpu time    4.6196: real time    4.6543
    CHARGE:  cpu time    0.1775: real time    0.1791
    --------------------------------------------
      LOOP:  cpu time   10.2310: real time   10.3117

 eigenvalue-minimisations  :     0
 total energy-change (2. order) :-0.5151227E-04  (-0.2258992E-04)
 number of electron     216.0000000 magnetization 
 augmentation part       -0.4135682 magnetization 

 Free energy of the ion-electron system (eV)
  ---------------------------------------------------
  alpha Z        PSCENC =        47.94900195
  Ewald energy   TEWEN  =     45539.65285635
  -Hartree energ DENC   =    -52505.01504559
  -exchange      EXHF   =         0.00000000
  -V(xc)+E(xc)   XCENC  =       443.95654700
  PAW double counting   =    106975.01373484  -106681.52625372
  entropy T*S    EENTRO =        -0.00000000
  eigenvalues    EBANDS =     -2652.55590981
  atomic energy  EATOM  =      8415.03548706
  ---------------------------------------------------
  free energy    TOTEN  =      -417.48958192 eV

  energy without entropy =     -417.48958192  energy(sigma->0) =     -417.48958192


--------------------------------------------------------------------------------------------------------




--------------------------------------- Iteration      1(  20)  ---------------------------------------


    POTLOK:  cpu time    4.1547: real time    4.1890
    SETDIJ:  cpu time    0.0543: real time    0.0545
    TRIAL :  cpu time    1.1581: real time    1.1695
    CORREC:  cpu time    4.6035: real time    4.6428
    CHARGE:  cpu time    0.1774: real time    0.1792
    --------------------------------------------
      LOOP:  cpu time   10.1726: real time   10.2630

 eigenvalue-minimisations  :     0
 total energy-change (2. order) :-0.2235395E-04  (-0.1367669E-04)
 number of electron     216.0000000 magnetization 
 augmentation part       -0.4136034 magnetization 

 Free energy of the ion-electron system (eV)
  ---------------------------------------------------
  alpha Z        PSCENC =        47.94900195
  Ewald energy   TEWEN  =     45539.65285635
  -Hartree energ DENC   =    -52505.03070970
  -exchange      EXHF   =         0.00000000
  -V(xc)+E(xc)   XCENC  =       443.95695342
  PAW double counting   =    106989.01103845  -106695.52343763
  entropy T*S    EENTRO =        -0.00000000
  eigenvalues    EBANDS =     -2652.54079419
  atomic energy  EATOM  =      8415.03548706
  ---------------------------------------------------
  free energy    TOTEN  =      -417.48960427 eV

  energy without entropy =     -417.48960427  energy(sigma->0) =     -417.48960427


--------------------------------------------------------------------------------------------------------




--------------------------------------- Iteration      1(  21)  ---------------------------------------


    POTLOK:  cpu time    4.1580: real time    4.1912
    SETDIJ:  cpu time    0.0543: real time    0.0544
    TRIAL :  cpu time    1.1563: real time    1.1671
    CORREC:  cpu time    4.6367: real time    4.6754
    CHARGE:  cpu time    0.1775: real time    0.1796
    --------------------------------------------
      LOOP:  cpu time   10.2434: real time   10.3312

 eigenvalue-minimisations  :     0
 total energy-change (2. order) :-0.1348797E-04  (-0.7107275E-05)
 number of electron     216.0000000 magnetization 
 augmentation part       -0.4135946 magnetization 

 Free energy of the ion-electron system (eV)
  ---------------------------------------------------
  alpha Z        PSCENC =        47.94900195
  Ewald energy   TEWEN  =     45539.65285635
  -Hartree energ DENC   =    -52505.02092505
  -exchange      EXHF   =         0.00000000
  -V(xc)+E(xc)   XCENC  =       443.95667036
  PAW double counting   =    106996.56933770  -106703.08186078
  entropy T*S    EENTRO =        -0.00000000
  eigenvalues    EBANDS =     -2652.55018537
  atomic energy  EATOM  =      8415.03548706
  ---------------------------------------------------
  free energy    TOTEN  =      -417.48961776 eV

  energy without entropy =     -417.48961776  energy(sigma->0) =     -417.48961776


--------------------------------------------------------------------------------------------------------




--------------------------------------- Iteration      1(  22)  ---------------------------------------


    POTLOK:  cpu time    4.1777: real time    4.2085
    SETDIJ:  cpu time    0.0541: real time    0.0543
    TRIAL :  cpu time    1.1566: real time    1.1679
    CORREC:  cpu time    4.5999: real time    4.6361
    CHARGE:  cpu time    0.1786: real time    0.1802
    --------------------------------------------
      LOOP:  cpu time   10.1946: real time   10.3020

 eigenvalue-minimisations  :     0
 total energy-change (2. order) :-0.7096984E-05  (-0.2840135E-05)
 number of electron     216.0000000 magnetization 
 augmentation part       -0.4135623 magnetization 

 Free energy of the ion-electron system (eV)
  ---------------------------------------------------
  alpha Z        PSCENC =        47.94900195
  Ewald energy   TEWEN  =     45539.65285635
  -Hartree energ DENC   =    -52504.97969381
  -exchange      EXHF   =         0.00000000
  -V(xc)+E(xc)   XCENC  =       443.95519500
  PAW double counting   =    106995.85485888  -106702.36742984
  entropy T*S    EENTRO =        -0.00000000
  eigenvalues    EBANDS =     -2652.58990045
  atomic energy  EATOM  =      8415.03548706
  ---------------------------------------------------
  free energy    TOTEN  =      -417.48962486 eV

  energy without entropy =     -417.48962486  energy(sigma->0) =     -417.48962486


--------------------------------------------------------------------------------------------------------




--------------------------------------- Iteration      1(  23)  ---------------------------------------


    POTLOK:  cpu time    4.1442: real time    4.1755
    SETDIJ:  cpu time    0.0543: real time    0.0545
    TRIAL :  cpu time    1.1627: real time    1.1741
    CORREC:  cpu time    4.5969: real time    4.6322
    CHARGE:  cpu time    0.1776: real time    0.1792
    --------------------------------------------
      LOOP:  cpu time   10.1972: real time   10.2789

 eigenvalue-minimisations  :     0
 total energy-change (2. order) :-0.2862464E-05  (-0.1101544E-05)
 number of electron     216.0000000 magnetization 
 augmentation part       -0.4135556 magnetization 

 Free energy of the ion-electron system (eV)
  ---------------------------------------------------
  alpha Z        PSCENC =        47.94900195
  Ewald energy   TEWEN  =     45539.65285635
  -Hartree energ DENC   =    -52504.98403150
  -exchange      EXHF   =         0.00000000
  -V(xc)+E(xc)   XCENC  =       443.95569947
  PAW double counting   =    106993.62504646  -106700.13780555
  entropy T*S    EENTRO =        -0.00000000
  eigenvalues    EBANDS =     -2652.58588197
  atomic energy  EATOM  =      8415.03548706
  ---------------------------------------------------
  free energy    TOTEN  =      -417.48962772 eV

  energy without entropy =     -417.48962772  energy(sigma->0) =     -417.48962772


--------------------------------------------------------------------------------------------------------




--------------------------------------- Iteration      1(  24)  ---------------------------------------


    POTLOK:  cpu time    4.1544: real time    4.1858
    SETDIJ:  cpu time    0.0541: real time    0.0543
    TRIAL :  cpu time    1.1576: real time    1.1683
    CORREC:  cpu time    4.6318: real time    4.6672
    CHARGE:  cpu time    0.1775: real time    0.1794
    --------------------------------------------
      LOOP:  cpu time   10.2579: real time   10.3413

 eigenvalue-minimisations  :     0
 total energy-change (2. order) :-0.1117805E-05  (-0.4915759E-06)
 number of electron     216.0000000 magnetization 
 augmentation part       -0.4135515 magnetization 

 Free energy of the ion-electron system (eV)
  ---------------------------------------------------
  alpha Z        PSCENC =        47.94900195
  Ewald energy   TEWEN  =     45539.65285635
  -Hartree energ DENC   =    -52504.97448046
  -exchange      EXHF   =         0.00000000
  -V(xc)+E(xc)   XCENC  =       443.95540475
  PAW double counting   =    106992.67487264  -106699.18757867
  entropy T*S    EENTRO =        -0.00000000
  eigenvalues    EBANDS =     -2652.59519246
  atomic energy  EATOM  =      8415.03548706
  ---------------------------------------------------
  free energy    TOTEN  =      -417.48962884 eV

  energy without entropy =     -417.48962884  energy(sigma->0) =     -417.48962884


--------------------------------------------------------------------------------------------------------




--------------------------------------- Iteration      1(  25)  ---------------------------------------


    POTLOK:  cpu time    4.1502: real time    4.1788
    SETDIJ:  cpu time    0.0542: real time    0.0544
    TRIAL :  cpu time    1.1542: real time    1.1670
    CORREC:  cpu time    4.6102: real time    4.6449
    CHARGE:  cpu time    0.1772: real time    0.1791
    --------------------------------------------
      LOOP:  cpu time   10.1694: real time   10.2615

 eigenvalue-minimisations  :     0
 total energy-change (2. order) :-0.5065667E-06  (-0.2302647E-06)
 number of electron     216.0000000 magnetization 
 augmentation part       -0.4135496 magnetization 

 Free energy of the ion-electron system (eV)
  ---------------------------------------------------
  alpha Z        PSCENC =        47.94900195
  Ewald energy   TEWEN  =     45539.65285635
  -Hartree energ DENC   =    -52504.97486573
  -exchange      EXHF   =         0.00000000
  -V(xc)+E(xc)   XCENC  =       443.95554889
  PAW double counting   =    106992.62338490  -106699.13607929
  entropy T*S    EENTRO =        -0.00000000
  eigenvalues    EBANDS =     -2652.59496349
  atomic energy  EATOM  =      8415.03548706
  ---------------------------------------------------
  free energy    TOTEN  =      -417.48962934 eV

  energy without entropy =     -417.48962934  energy(sigma->0) =     -417.48962934


--------------------------------------------------------------------------------------------------------




--------------------------------------- Iteration      1(  26)  ---------------------------------------


    POTLOK:  cpu time    4.1457: real time    4.1774
    SETDIJ:  cpu time    0.0556: real time    0.0558
    TRIAL :  cpu time    1.1757: real time    1.1864
    CORREC:  cpu time    4.6067: real time    4.6407
    CHARGE:  cpu time    0.1782: real time    0.1798
    --------------------------------------------
      LOOP:  cpu time   10.2139: real time   10.2987

 eigenvalue-minimisations  :     0
 total energy-change (2. order) :-0.2376764E-06  (-0.1098922E-06)
 number of electron     216.0000000 magnetization 
 augmentation part       -0.4135477 magnetization 

 Free energy of the ion-electron system (eV)
  ---------------------------------------------------
  alpha Z        PSCENC =        47.94900195
  Ewald energy   TEWEN  =     45539.65285635
  -Hartree energ DENC   =    -52504.97751909
  -exchange      EXHF   =         0.00000000
  -V(xc)+E(xc)   XCENC  =       443.95562597
  PAW double counting   =    106992.63444625  -106699.14712840
  entropy T*S    EENTRO =        -0.00000000
  eigenvalues    EBANDS =     -2652.59239968
  atomic energy  EATOM  =      8415.03548706
  ---------------------------------------------------
  free energy    TOTEN  =      -417.48962958 eV

  energy without entropy =     -417.48962958  energy(sigma->0) =     -417.48962958


--------------------------------------------------------------------------------------------------------




--------------------------------------- Iteration      1(  27)  ---------------------------------------


    POTLOK:  cpu time    4.1849: real time    4.2223
    SETDIJ:  cpu time    0.0543: real time    0.0545
    TRIAL :  cpu time    1.1573: real time    1.1683
    CORREC:  cpu time    4.6598: real time    4.6950
    CHARGE:  cpu time    0.1782: real time    0.1797
    --------------------------------------------
      LOOP:  cpu time   10.2979: real time   10.3875

 eigenvalue-minimisations  :     0
 total energy-change (2. order) :-0.1134613E-06  (-0.5452535E-07)
 number of electron     216.0000000 magnetization 
 augmentation part       -0.4135443 magnetization 

 Free energy of the ion-electron system (eV)
  ---------------------------------------------------
  alpha Z        PSCENC =        47.94900195
  Ewald energy   TEWEN  =     45539.65285635
  -Hartree energ DENC   =    -52504.97834377
  -exchange      EXHF   =         0.00000000
  -V(xc)+E(xc)   XCENC  =       443.95560019
  PAW double counting   =    106992.59893722  -106699.11161419
  entropy T*S    EENTRO =        -0.00000000
  eigenvalues    EBANDS =     -2652.59155451
  atomic energy  EATOM  =      8415.03548706
  ---------------------------------------------------
  free energy    TOTEN  =      -417.48962970 eV

  energy without entropy =     -417.48962970  energy(sigma->0) =     -417.48962970


--------------------------------------------------------------------------------------------------------




--------------------------------------- Iteration      1(  28)  ---------------------------------------


    POTLOK:  cpu time    4.1315: real time    4.1641
    SETDIJ:  cpu time    0.0542: real time    0.0544
    TRIAL :  cpu time    1.1616: real time    1.1725
    CORREC:  cpu time    4.6214: real time    4.6573
    EDDIAG:  cpu time    0.4348: real time    0.4401
    CHARGE:  cpu time    0.1767: real time    0.1786
[...]
      21 -86.0206      22 -86.0203      23 -86.0339      24 -86.0335      25 -86.0210
      26 -86.0223      27 -86.0246      28 -86.0282      29 -86.0212      30 -86.0212
      31 -86.0310      32 -86.0280      33 -86.0234      34 -86.0220      35 -86.0218
      36 -86.0229      37 -86.0246      38 -86.0259      39 -86.0261      40 -86.0254
      41 -86.0256      42 -86.0269      43 -86.0237      44 -86.0268      45 -86.0211
      46 -86.0215      47 -86.0227      48 -86.0216      49 -86.0254      50 -86.0241
      51 -89.9312      52-120.4502      53-120.4505
 
 
 
 E-fermi :  -4.3799     XC(G=0):  -2.2346     alpha+bet : -1.6890

 Fermi energy:        -4.3799314430

 k-point     1 :       0.0000    0.0000    0.0000
  band No.  band energies     occupation 
      1     -27.6574      2.00000
      2     -26.6643      2.00000
      3     -22.4392      2.00000
      4     -21.5042      2.00000
      5     -21.5031      2.00000
      6     -21.5013      2.00000
      7     -21.5004      2.00000
      8     -21.4990      2.00000
      9     -21.4989      2.00000
     10     -19.6630      2.00000
     11     -19.6629      2.00000
     12     -19.6629      2.00000
     13     -19.6624      2.00000
     14     -19.6623      2.00000
     15     -19.6620      2.00000
     16     -18.7680      2.00000
     17     -18.7677      2.00000
     18     -18.7674      2.00000
     19     -18.7674      2.00000
     20     -18.7672      2.00000
     21     -18.7668      2.00000
     22     -16.6075      2.00000
     23     -16.6074      2.00000
     24     -16.6069      2.00000
     25     -16.6065      2.00000
     26     -16.6048      2.00000
     27     -16.6047      2.00000
     28     -15.6283      2.00000
     29     -15.6282      2.00000
     30     -15.6278      2.00000
     31     -15.6277      2.00000
     32     -15.6270      2.00000
     33     -15.6269      2.00000
     34     -14.2795      2.00000
     35     -14.2794      2.00000
     36     -14.2790      2.00000
     37     -14.2788      2.00000
     38     -14.2788      2.00000
     39     -14.2782      2.00000
     40     -12.5006      2.00000
     41     -11.9033      2.00000
     42     -11.9032      2.00000
     43     -11.9027      2.00000
     44     -11.9026      2.00000
     45     -11.9020      2.00000
     46     -11.9019      2.00000
     47     -11.8111      2.00000
     48     -11.8111      2.00000
     49     -11.8103      2.00000
     50     -11.8103      2.00000
     51     -11.8090      2.00000
     52     -11.8087      2.00000
     53     -11.3439      2.00000
     54     -11.2829      2.00000
     55     -11.2806      2.00000
     56     -10.5960      2.00000
     57     -10.4403      2.00000
     58     -10.4402      2.00000
     59     -10.4392      2.00000
     60     -10.4388      2.00000
     61     -10.4385      2.00000
     62     -10.4384      2.00000
     63      -9.4845      2.00000
     64      -9.4823      2.00000
     65      -9.4783      2.00000
     66      -9.4778      2.00000
     67      -9.4754      2.00000
     68      -9.4752      2.00000
     69      -9.1771      2.00000
     70      -9.1757      2.00000
     71      -9.1755      2.00000
     72      -9.1745      2.00000
     73      -9.1744      2.00000
     74      -9.1742      2.00000
     75      -9.1169      2.00000
     76      -9.1167      2.00000
     77      -9.1166      2.00000
     78      -9.1162      2.00000
     79      -9.1155      2.00000
     80      -9.1147      2.00000
     81      -7.7462      2.00000
     82      -7.7443      2.00000
     83      -7.5269      2.00000
     84      -7.5262      2.00000
     85      -7.5259      2.00000
     86      -7.5254      2.00000
     87      -7.5234      2.00000
     88      -7.5233      2.00000
     89      -7.3504      2.00000
     90      -7.3503      2.00000
     91      -7.3480      2.00000
     92      -7.3474      2.00000
     93      -7.3472      2.00000
     94      -7.3471      2.00000
     95      -6.4536      2.00000
     96      -6.4522      2.00000
     97      -6.4519      2.00000
     98      -6.4504      2.00000
     99      -6.4500      2.00000
    100      -6.4494      2.00000
    101      -6.0475      2.00000
    102      -6.0453      2.00000
    103      -4.4689      2.00000
    104      -4.4684      2.00000
    105      -4.4676      2.00000
    106      -4.4671      2.00000
    107      -4.4641      2.00000
    108      -4.4640      2.00000
    109      -1.6688      0.00000
    110      -1.6685      0.00000
    111      -1.6659      0.00000
    112      -1.6656      0.00000
    113      -1.6651      0.00000
    114      -1.6649      0.00000
    115      -0.3145      0.00000
    116       0.1918      0.00000
    117       0.1930      0.00000
    118       0.1937      0.00000
    119       0.1953      0.00000
    120       0.1956      0.00000
    121       0.1983      0.00000
    122       0.2694      0.00000
    123       0.8540      0.00000
    124       1.0026      0.00000
    125       1.0914      0.00000
    126       1.1172      0.00000
    127       1.1342      0.00000
    128       1.1559      0.00000
    129       1.1729      0.00000
    130       1.4638      0.00000
    131       1.5989      0.00000
    132       1.6407      0.00000
    133       1.7467      0.00000
    134       1.8675      0.00000
    135       1.8760      0.00000
    136       1.9218      0.00000


--------------------------------------------------------------------------------------------------------


 soft charge-density along one line, spin component           1
         0         1         2         3         4         5         6         7         8         9
 total charge-density along one line
 
 pseudopotential strength for first ion, spin component:           1
 12.721  21.408  -0.000   0.000   0.000  -0.000   0.000   0.000
 21.408  36.024  -0.000   0.000   0.000  -0.000   0.000   0.000
 -0.000  -0.000  -3.197  -0.000   0.000  -5.729  -0.000   0.000
  0.000   0.000  -0.000  -3.199  -0.000  -0.000  -5.733  -0.000
  0.000   0.000   0.000  -0.000  -3.197   0.000  -0.000  -5.729
 -0.000  -0.000  -5.729  -0.000   0.000 -10.246  -0.000   0.000
  0.000   0.000  -0.000  -5.733  -0.000  -0.000 -10.253  -0.000
  0.000   0.000   0.000  -0.000  -5.729   0.000  -0.000 -10.246
 total augmentation occupancy for first ion, spin component:           1
  7.652  -2.660  -0.000  -0.002  -0.000   0.000   0.001  -0.000
 -2.660   0.962   0.000   0.001  -0.000  -0.000  -0.000   0.000
 -0.000   0.000   7.068  -0.008   0.000  -2.370   0.003  -0.000
 -0.002   0.001  -0.008   3.114  -0.000   0.003  -0.813   0.000
 -0.000  -0.000   0.000  -0.000   7.068  -0.000   0.000  -2.369
  0.000  -0.000  -2.370   0.003  -0.000   0.809  -0.001   0.000
  0.001  -0.000   0.003  -0.813   0.000  -0.001   0.219  -0.000
 -0.000   0.000  -0.000   0.000  -2.369   0.000  -0.000   0.809


------------------------ aborting loop because EDIFF is reached ----------------------------------------


    FORLOC:  cpu time    0.0712: real time    0.0718
    FORNL :  cpu time    0.8461: real time    0.8508
    FORCOR:  cpu time    4.2087: real time    4.2379
    OFIELD:  cpu time    0.0017: real time    0.0018

 VOLUME and BASIS-vectors are now :
 -----------------------------------------------------------------------------
  energy-cutoff  :     1000.00
  volume of cell :     3288.85
      direct lattice vectors                 reciprocal lattice vectors
    12.325000000  0.000000000  0.000000000     0.081135903  0.046843835  0.000000000
    -6.162500000 10.673763102  0.000000000     0.000000000  0.093687670  0.000000000
     0.000000000  0.000000000 25.000000000     0.000000000  0.000000000  0.040000000

  length of vectors
    12.325000000 12.325000000 25.000000000     0.093687670  0.093687670  0.040000000


 FORCES acting on ions:
    Electron-Ion                     Ewald-Force                    Non-Local-Force
 -----------------------------------------------------------------------------------------------
   0.591E+01 0.515E+01 0.250E+02   -.592E+01 -.515E+01 -.250E+02   0.101E-01 -.176E-02 0.931E-02
   0.893E+01 0.435E+01 0.296E+02   -.894E+01 -.434E+01 -.296E+02   0.124E-01 -.637E-02 -.452E-02
   0.399E+01 0.106E+02 0.333E+02   -.399E+01 -.106E+02 -.334E+02   -.114E-02 0.234E-01 0.143E-01
   0.555E+01 0.805E+01 0.441E+02   -.556E+01 -.805E+01 -.441E+02   0.224E-01 0.601E-02 0.187E-01
   0.633E+01 0.149E+01 0.252E+02   -.634E+01 -.149E+01 -.252E+02   0.359E-02 -.103E-01 -.119E-02
   0.654E+01 -.122E+01 0.255E+02   -.654E+01 0.123E+01 -.255E+02   -.850E-02 0.742E-03 -.989E-02
   0.102E+02 0.381E+01 0.405E+02   -.102E+02 -.379E+01 -.405E+02   0.271E-01 -.284E-01 0.441E-02
   0.989E+01 -.351E+01 0.421E+02   -.991E+01 0.352E+01 -.421E+02   0.615E-02 -.149E-01 -.118E-01
   -.467E+01 0.952E+01 0.336E+02   0.468E+01 -.953E+01 -.335E+02   -.971E-02 -.550E-02 -.917E-02
   -.744E+01 0.627E+01 0.428E+02   0.746E+01 -.628E+01 -.428E+02   -.432E-01 0.265E-01 0.925E-02
   0.162E+01 -.154E+01 0.220E+02   -.161E+01 0.154E+01 -.220E+02   0.462E-03 -.134E-02 -.422E-02
   0.136E+01 -.112E+01 0.210E+02   -.135E+01 0.112E+01 -.210E+02   -.112E-01 0.501E-02 0.258E-02
   0.396E+01 -.862E+01 0.457E+02   -.398E+01 0.863E+01 -.457E+02   0.445E-01 -.193E-01 0.421E-02
   0.211E+01 -.106E+02 0.343E+02   -.213E+01 0.106E+02 -.343E+02   0.134E-01 0.771E-04 -.193E-01
   -.568E+01 0.353E+01 0.246E+02   0.568E+01 -.353E+01 -.246E+02   0.850E-02 -.403E-02 -.526E-03
   -.797E+01 0.233E+01 0.269E+02   0.798E+01 -.234E+01 -.269E+02   -.546E-02 0.936E-02 -.131E-01
   -.956E+00 -.382E+00 0.203E+02   0.964E+00 0.379E+00 -.203E+02   -.469E-02 0.173E-02 0.118E-02
   0.471E+00 0.339E+01 0.212E+02   -.467E+00 -.339E+01 -.212E+02   -.610E-02 0.357E-02 0.914E-02
   -.157E+01 -.956E+01 0.289E+02   0.156E+01 0.957E+01 -.289E+02   0.133E-01 -.655E-02 0.338E-02
   -.778E+00 -.514E+01 0.228E+02   0.770E+00 0.515E+01 -.228E+02   0.414E-02 -.451E-02 -.144E-02
   0.898E+01 -.395E+01 0.311E+02   -.898E+01 0.396E+01 -.310E+02   0.183E-02 -.624E-02 -.283E-01
   0.578E+01 -.487E+01 0.268E+02   -.578E+01 0.487E+01 -.267E+02   -.741E-02 0.694E-02 -.114E-01
   -.191E+01 0.377E+01 0.508E+02   0.192E+01 -.378E+01 -.508E+02   -.192E-01 0.186E-01 0.429E-01
   -.273E+01 -.593E+01 0.495E+02   0.272E+01 0.595E+01 -.495E+02   0.176E-01 -.261E-01 0.287E-01
   0.292E+01 -.121E+01 0.221E+02   -.292E+01 0.121E+01 -.221E+02   -.554E-03 -.948E-03 -.816E-02
   0.614E+00 0.259E+01 0.222E+02   -.610E+00 -.259E+01 -.222E+02   -.944E-02 0.562E-02 0.124E-02
   -.107E+02 0.144E+01 0.356E+02   0.108E+02 -.145E+01 -.356E+02   0.537E-03 0.150E-01 -.520E-02
   -.102E+02 -.413E+01 0.337E+02   0.102E+02 0.412E+01 -.337E+02   -.208E-01 0.147E-01 0.855E-02
   0.347E+01 -.698E+01 0.276E+02   -.347E+01 0.698E+01 -.276E+02   0.994E-02 0.175E-02 -.148E-01
   0.313E+00 -.283E+01 0.231E+02   -.318E+00 0.283E+01 -.231E+02   -.230E-02 0.361E-02 -.741E-02
   -.775E+01 -.817E+01 0.387E+02   0.776E+01 0.818E+01 -.387E+02   -.220E-01 -.139E-01 0.113E-01
   -.500E+01 -.919E+01 0.301E+02   0.500E+01 0.920E+01 -.301E+02   0.578E-03 -.107E-01 0.119E-01
   0.373E+00 0.148E+01 0.209E+02   -.377E+00 -.148E+01 -.209E+02   0.904E-02 -.646E-02 0.450E-02
   0.989E+00 0.147E+01 0.219E+02   -.994E+00 -.147E+01 -.219E+02   -.684E-03 0.256E-02 -.470E-02
   -.399E+01 0.580E+00 0.232E+02   0.399E+01 -.584E+00 -.232E+02   0.470E-02 -.788E-03 0.816E-03
   -.350E+01 -.144E+01 0.228E+02   0.350E+01 0.144E+01 -.228E+02   -.852E-02 0.510E-02 0.153E-03
   -.690E+01 -.358E+01 0.253E+02   0.691E+01 0.358E+01 -.253E+02   -.882E-02 0.236E-02 0.348E-02
   -.424E+01 -.340E+01 0.225E+02   0.425E+01 0.340E+01 -.225E+02   -.835E-02 0.180E-02 0.101E-01
   -.391E+01 -.506E+01 0.236E+02   0.391E+01 0.507E+01 -.236E+02   -.704E-02 -.273E-02 0.786E-02
   -.589E+00 -.127E+01 0.212E+02   0.589E+00 0.127E+01 -.213E+02   0.272E-02 -.999E-03 0.850E-02
   0.147E+01 0.360E+01 0.218E+02   -.147E+01 -.361E+01 -.218E+02   -.474E-02 0.534E-02 0.841E-02
   0.465E+01 0.728E+01 0.260E+02   -.465E+01 -.729E+01 -.260E+02   0.425E-02 0.379E-02 0.134E-01
   0.395E+00 0.620E+01 0.233E+02   -.387E+00 -.620E+01 -.233E+02   -.494E-02 0.542E-02 0.757E-03
   -.792E-01 0.103E+02 0.302E+02   0.915E-01 -.103E+02 -.302E+02   -.169E-01 0.843E-02 0.830E-02
   -.117E+01 0.228E+01 0.230E+02   0.117E+01 -.228E+01 -.230E+02   0.258E-02 -.343E-02 -.420E-02
   -.468E+01 0.583E+01 0.263E+02   0.468E+01 -.583E+01 -.263E+02   -.106E-01 0.198E-02 -.955E-02
   -.941E+00 -.252E+01 0.219E+02   0.936E+00 0.252E+01 -.219E+02   0.106E-01 -.264E-02 0.242E-02
   -.230E+01 0.896E+00 0.211E+02   0.229E+01 -.894E+00 -.211E+02   0.185E-03 0.205E-02 -.693E-02
   0.218E+00 -.157E+01 0.210E+02   -.221E+00 0.158E+01 -.210E+02   0.683E-02 -.413E-02 0.599E-02
   0.249E+01 0.180E+01 0.211E+02   -.249E+01 -.180E+01 -.211E+02   0.444E-02 0.964E-03 0.312E-02
   0.435E-01 -.230E-01 -.353E+03   -.429E-01 0.235E-01 0.353E+03   -.392E-02 0.262E-02 -.189E-01
   -.229E+03 0.156E+03 -.543E+03   0.279E+03 -.190E+03 0.546E+03   -.511E+02 0.348E+02 -.348E+01
   0.229E+03 -.156E+03 -.521E+03   -.279E+03 0.190E+03 0.518E+03   0.511E+02 -.348E+02 0.304E+01
 -----------------------------------------------------------------------------------------------
   0.875E-03 0.819E-02 0.374E+00   0.114E-12 -.114E-12 -.227E-12   -.962E-03 -.821E-02 -.376E+00
 
 
 POSITION                                       TOTAL-FORCE (eV/Angst)
 -----------------------------------------------------------------------------------
     11.98348      0.00342      0.01417         0.002701     -0.000900     -0.000465
     -0.34154      1.42665      0.01100        -0.002172     -0.000031     -0.001394
      2.12355      0.00315      0.01249        -0.000878      0.006939     -0.002841
      2.12326      1.42653      0.00641         0.009364      0.000566     -0.000913
     10.75099      2.13819      0.01213         0.000186     -0.004834      0.000758
     -1.57382      3.56123      0.01110        -0.007221      0.005349     -0.000640
      0.89078      2.13854      0.00548         0.006469     -0.014614      0.006452
      0.89099      3.56147      0.00181        -0.012833     -0.000703      0.014981
      4.58864      0.00346      0.01135         0.004687     -0.015986     -0.001044
      4.58894      1.42623      0.00646        -0.018173      0.010246      0.018284
      9.51854      4.27281      0.01369         0.006929     -0.003697      0.000468
     -2.80632      5.69591      0.01434        -0.006274      0.003305      0.000955
      2.12300      4.27302      0.00000         0.018981     -0.003113      0.024747
      2.12335      5.69594      0.00581        -0.001758      0.009444      0.000003
      7.05344      0.00333      0.01399         0.008296     -0.004539      0.000353
      7.05353      1.42635      0.01368        -0.001824      0.004371     -0.002303
      8.28610      6.40752      0.01601         0.003477     -0.001558     -0.000526
     -4.03885      7.83070      0.01636        -0.001794      0.001018      0.000014
      3.35586      6.40753      0.01007         0.003501      0.000387     -0.000107
      3.35599      7.83072      0.01320        -0.003450      0.000786     -0.000097
     -0.34146      4.27290      0.00723        -0.001231     -0.001353     -0.002309
     -0.34138      5.69591      0.00946        -0.008266      0.005110     -0.000033
      3.35624      2.13791      0.00222        -0.009664      0.009041      0.025056
      3.35573      3.56155      0.00139         0.010334     -0.012144      0.016910
     -1.57395      6.40758      0.01311         0.006489     -0.004211     -0.000310
     -1.57385      7.83068      0.01438        -0.004547      0.003748      0.000363
      5.82093      2.13784      0.01033         0.016569      0.003789     -0.000229
      5.82114      3.56097      0.01156        -0.004252      0.005812     -0.001000
      0.89092      6.40755      0.00907         0.004018      0.001571     -0.000882
      0.89106      7.83068      0.01235        -0.007167      0.002868      0.000693
      4.58871      4.27293      0.00850        -0.008986     -0.005197     -0.005348
      4.58852      5.69606      0.01149         0.001658      0.001475     -0.001906
      9.51845      0.00337      0.01490         0.004533     -0.004588      0.000326
      9.51855      1.42644      0.01438        -0.004940      0.006051     -0.000043
      8.28593      2.13803      0.01453         0.005582     -0.003865      0.000989
      8.28613      3.56115      0.01464        -0.004069      0.001815      0.000409
      7.05356      4.27269      0.01457         0.003894     -0.000803      0.000419
      7.05362      5.69588      0.01553        -0.002235      0.001088      0.000108
      5.82112      6.40755      0.01489        -0.001896      0.002015      0.000472
      5.82102      7.83073      0.01579         0.002505      0.000651     -0.000151
      7.05363      8.54227      0.01631        -0.004399      0.000457      0.001357
     -5.27149      9.96549      0.01495        -0.001142     -0.002796     -0.001151
     -2.80638      8.54234      0.01558         0.003452     -0.002137     -0.000468
     -2.80627      9.96553      0.01362        -0.004252     -0.000193     -0.002069
     -0.34149      8.54239      0.01378         0.005844     -0.003897      0.000606
     -0.34138      9.96550      0.01354        -0.005604      0.000460     -0.000040
      2.12343      8.54232      0.01336         0.005601     -0.001522      0.000981
      2.12354      9.96544      0.01469        -0.006077      0.004160     -0.001608
      4.58846      8.54235      0.01505         0.003467     -0.002855      0.001091
      4.58853      9.96550      0.01517        -0.003502      0.003208      0.000486
      3.04930      2.68154      4.45449        -0.003139      0.002973     -0.006763
      4.02070      2.02068      4.51892        -0.533502      0.362630     -0.073674
      2.07767      3.34267      4.39504         0.536708     -0.365796     -0.008968
 -----------------------------------------------------------------------------------
    total drift:                               -0.000087     -0.000019     -0.001185


--------------------------------------------------------------------------------------------------------



  FREE ENERGIE OF THE ION-ELECTRON SYSTEM (eV)
  ---------------------------------------------------
  free  energy   TOTEN  =      -417.48962975 eV

  energy  without entropy=     -417.48962975  energy(sigma->0) =     -417.48962975
 


--------------------------------------------------------------------------------------------------------


    POTLOK:  cpu time    4.2137: real time    4.2470


--------------------------------------------------------------------------------------------------------


 writing wavefunctions
     LOOP+:  cpu time  291.0990: real time  293.9141
    4ORBIT:  cpu time    0.0000: real time    0.0000

 total amount of memory used by VASP MPI-rank0   100580. kBytes
=======================================================================

   base      :      30000. kBytes
   nonl-proj :       8229. kBytes
   fftplans  :      18352. kBytes
   grid      :      30208. kBytes
   one-center:          6. kBytes
   wavefun   :      13785. kBytes
 
  
  
 General timing and accounting informations for this job:
 ========================================================
  
                  Total CPU time used (sec):      333.723
                            User time (sec):      311.142
                          System time (sec):       22.581
                         Elapsed time (sec):      337.952
  
                   Maximum memory used (kb):      815484.
                   Average memory used (kb):          N/A
  
                          Minor page faults:       415237
                          Major page faults:           85
                 Voluntary context switches:         3701
