 vasp.6.2.1 16May21 (build Nov 06 2021 14:46:37) complex                        
  
 executed on             LinuxIFC date 2025.04.16  19:03:02
 running on  112 total cores
 distrk:  each k-point on  112 cores,    1 groups
 distr:  one band on NCORE=  28 cores,    4 groups


--------------------------------------------------------------------------------------------------------


 INCAR:
   ALGO = Conjugate
   NPAR = 4
   ISMEAR = 0
   SIGMA = 0.01
   PREC = Accurate
   EDIFF = 1E-7
   ENCUT = 1000
   ISIF = 0
   GGA = MK
   PARAM1 = 0.1234
   PARAM2 = 1.0000
   LUSE_VDW = .TRUE.
   AGGAC = 0.0000
   LASPH = .TRUE.
   SYMPREC = 1E-7

 POTCAR:    PAW_PBE C_h 06Feb2004                 
 POTCAR:    PAW_PBE O_h 06Feb2004                 
 -----------------------------------------------------------------------------
|                                                                             |
|           W    W    AA    RRRRR   N    N  II  N    N   GGGG   !!!           |
|           W    W   A  A   R    R  NN   N  II  NN   N  G    G  !!!           |
|           W    W  A    A  R    R  N N  N  II  N N  N  G       !!!           |
|           W WW W  AAAAAA  RRRRR   N  N N  II  N  N N  G  GGG   !            |
|           WW  WW  A    A  R   R   N   NN  II  N   NN  G    G                |
|           W    W  A    A  R    R  N    N  II  N    N   GGGG   !!!           |
|                                                                             |
|     For optimal performance we recommend to set                             |
|       NCORE = 2 up to number-of-cores-per-socket                            |
|     NCORE specifies how many cores store one orbital (NPAR=cpu/NCORE).      |
|     This setting can greatly improve the performance of VASP for DFT.       |
|     The default, NCORE=1 might be grossly inefficient on modern             |
|     multi-core architectures or massively parallel machines. Do your        |
|     own testing! More info at https://www.vasp.at/wiki/index.php/NCORE      |
|     Unfortunately you need to use the default for GW and RPA                |
|     calculations (for HF NCORE is supported but not extensively tested      |
|     yet).                                                                   |
|                                                                             |
 -----------------------------------------------------------------------------

 -----------------------------------------------------------------------------
|                                                                             |
|               ----> ADVICE to this user running VASP <----                  |
|                                                                             |
|     You have switched on vdW-DFT.                                           |
|     This routine was written and supplied by Jiri Klimes. We recommend      |
|     that you carefully read and cite the following publications:            |
|       J. Klimes, D.R. Bowler, A. Michelides                                 |
|          J. Phys.: Cond Matt. 22 022201 (2010)                              |
|       J. Klimes, D.R. Bowler, A. Michelides                                 |
|          Phys. Rev. B. 83, 195131 (2011)                                    |
|     and references therein.                                                 |
|                                                                             |
 -----------------------------------------------------------------------------

 POTCAR:    PAW_PBE C_h 06Feb2004                 
   VRHFIN =C: s2p2                                                                                  
   LEXCH  = PE                                                                                      
   EATOM  =   147.1560 eV,   10.8157 Ry                                                             
                                                                                                    
   TITEL  = PAW_PBE C_h 06Feb2004                                                                   
   LULTRA =        F    use ultrasoft PP ?                                                          
   IUNSCR =        1    unscreen: 0-lin 1-nonlin 2-no                                               
   RPACOR =    0.800    partial core radius                                                         
   POMASS =   12.011; ZVAL   =    4.000    mass and valenz                                          
   RCORE  =    1.100    outmost cutoff radius                                                       
   RWIGS  =    1.630; RWIGS  =    0.863    wigner-seitz radius (au A)                               
   ENMAX  =  700.000; ENMIN  =  500.000 eV                                                          
   ICORE  =        2    local potential                                                             
   LCOR   =        T    correct aug charges                                                         
   LPAW   =        T    paw PP                                                                      
   EAUG   =  946.768                                                                                
   DEXC   =    0.000                                                                                
   RMAX   =    1.128    core radius for proj-oper                                                   
   RAUG   =    1.300    factor for augmentation sphere                                              
   RDEP   =    1.162    radius for radial grids                                                     
   RDEPT  =    1.088    core radius for aug-charge                                                  
                                                                                                    
   Atomic configuration                                                                             
    4 entries                                                                                       
     n  l   j            E        occ.                                                              
     1  0  0.50      -273.3789   2.0000                                                             
     2  0  0.50       -13.7508   2.0000                                                             
     2  1  0.50        -5.2854   2.0000                                                             
     3  2  1.50        -5.4423   0.0000                                                             
   Description                                                                                      
     l       E           TYP  RCUT    TYP  RCUT                                                     
     0    -13.7508458     23  1.100                                                                 
     0     -8.2022199     23  1.100                                                                 
     1     -5.2854383     23  1.100                                                                 
     1      1.1560700     23  1.100                                                                 
     2     -5.4423304      7  1.100                                                                 
  local pseudopotential read in
  partial core-charges read in
  partial kinetic energy density read in
  atomic valenz-charges read in
  non local Contribution for L=           0  read in
    real space projection operators read in
  non local Contribution for L=           0  read in
    real space projection operators read in
  non local Contribution for L=           1  read in
    real space projection operators read in
  non local Contribution for L=           1  read in
    real space projection operators read in
    PAW grid and wavefunctions read in
 
   number of l-projection  operators is LMAX  =           4
   number of lm-projection operators is LMMAX =           8
 
 POTCAR:    PAW_PBE O_h 06Feb2004                 
   VRHFIN =O: s2p4                                                                                  
   LEXCH  = PE                                                                                      
   EATOM  =   432.3788 eV,   31.7789 Ry                                                             
                                                                                                    
   TITEL  = PAW_PBE O_h 06Feb2004                                                                   
   LULTRA =        F    use ultrasoft PP ?                                                          
   IUNSCR =        1    unscreen: 0-lin 1-nonlin 2-no                                               
   RPACOR =    0.800    partial core radius                                                         
   POMASS =   16.000; ZVAL   =    6.000    mass and valenz                                          
   RCORE  =    1.100    outmost cutoff radius                                                       
   RWIGS  =    1.400; RWIGS  =    0.741    wigner-seitz radius (au A)                               
   ENMAX  =  700.000; ENMIN  =  500.000 eV                                                          
   ICORE  =        2    local potential                                                             
   LCOR   =        T    correct aug charges                                                         
   LPAW   =        T    paw PP                                                                      
   EAUG   =  888.804                                                                                
   DEXC   =    0.000                                                                                
   RMAX   =    1.128    core radius for proj-oper                                                   
   RAUG   =    1.300    factor for augmentation sphere                                              
   RDEP   =    1.125    radius for radial grids                                                     
   RDEPT  =    1.088    core radius for aug-charge                                                  
                                                                                                    
   Atomic configuration                                                                             
    4 entries                                                                                       
     n  l   j            E        occ.                                                              
     1  0  0.50      -514.6923   2.0000                                                             
     2  0  0.50       -23.9615   2.0000                                                             
     2  1  0.50        -9.0305   4.0000                                                             
     3  2  1.50        -9.5241   0.0000                                                             
   Description                                                                                      
     l       E           TYP  RCUT    TYP  RCUT                                                     
     0    -23.9615319     23  1.100                                                                 
     0    -25.3221145     23  1.100                                                                 
     1     -9.0304911     23  1.100                                                                 
     1     -5.4802209     23  1.100                                                                 
     2     -9.5240782      7  1.100                                                                 
  local pseudopotential read in
  partial core-charges read in
  partial kinetic energy density read in
  atomic valenz-charges read in
  non local Contribution for L=           0  read in
    real space projection operators read in
  non local Contribution for L=           0  read in
    real space projection operators read in
  non local Contribution for L=           1  read in
    real space projection operators read in
  non local Contribution for L=           1  read in
    real space projection operators read in
    PAW grid and wavefunctions read in
 
   number of l-projection  operators is LMAX  =           4
   number of lm-projection operators is LMMAX =           8
 
 -----------------------------------------------------------------------------
|                                                                             |
|               ----> ADVICE to this user running VASP <----                  |
|                                                                             |
|     You have a (more or less) 'large supercell' and for larger cells it     |
|     might be more efficient to use real-space projection operators.         |
|     Therefore, try LREAL= Auto in the INCAR file.                           |
|     Mind: For very accurate calculation, you might also keep the            |
|     reciprocal projection scheme (i.e. LREAL=.FALSE.).                      |
|                                                                             |
 -----------------------------------------------------------------------------

 -----------------------------------------------------------------------------
|                                                                             |
|               ----> ADVICE to this user running VASP <----                  |
|                                                                             |
|     You enforced a specific xc type in the INCAR file but a different       |
|     type was found in the POTCAR file.                                      |
|     I HOPE YOU KNOW WHAT YOU ARE DOING!                                     |
|                                                                             |
 -----------------------------------------------------------------------------

  PAW_PBE C_h 06Feb2004                 :
 energy of atom  1       EATOM= -147.1560
 kinetic energy error for atom=    0.0031 (will be added to EATOM!!)
  PAW_PBE O_h 06Feb2004                 :
 energy of atom  2       EATOM= -432.3788
 kinetic energy error for atom=    0.0171 (will be added to EATOM!!)
 
 
 POSCAR:  C  O
  positions in cartesian coordinates
  No initial velocities read in
 exchange correlation table for  LEXCH =       43
   RHO(1)=    0.500       N(1)  =     2000
   RHO(2)=  100.500       N(2)  =     4000
 


--------------------------------------------------------------------------------------------------------


 ion  position               nearest neighbor table
   1  0.972  0.000  0.001-  50 1.42   2 1.42  42 1.42
   2  0.039  0.134  0.000-   5 1.42   7 1.42   1 1.42
   3  0.172  0.000  0.000-  42 1.42  44 1.42   4 1.42
   4  0.239  0.134  0.000-   7 1.42   3 1.42  23 1.42
   5  0.972  0.200  0.000-   6 1.42   2 1.42  34 1.42
   6  0.039  0.334  0.000-   5 1.42  21 1.42  11 1.42
   7  0.172  0.200  0.000-   8 1.42   2 1.42   4 1.42
   8  0.239  0.334  0.000-  13 1.42   7 1.42  21 1.42
   9  0.372  0.000  0.000-  10 1.42  44 1.42  46 1.42
  10  0.439  0.134  0.000-  27 1.42   9 1.42  23 1.42
  11  0.972  0.400  0.001-  12 1.42  36 1.42   6 1.42
  12  0.039  0.534  0.001-  25 1.42  11 1.42  17 1.42
  13  0.372  0.400  0.000-   8 1.42  14 1.42  24 1.42
  14  0.439  0.534  0.000-  13 1.42  29 1.42  19 1.42
  15  0.572  0.000  0.001-  46 1.42  16 1.42  48 1.42
  16  0.639  0.134  0.001-  15 1.42  35 1.42  27 1.42
  17  0.972  0.600  0.001-  38 1.42  18 1.42  12 1.42
  18  0.039  0.734  0.001-  43 1.42  41 1.42  17 1.42
  19  0.572  0.600  0.000-  14 1.42  20 1.42  32 1.42
  20  0.639  0.734  0.001-  49 1.42  19 1.42  47 1.42
  21  0.172  0.400  0.000-  22 1.42   8 1.42   6 1.42
  22  0.239  0.534  0.000-  21 1.42  29 1.42  25 1.42
  23  0.372  0.200  0.000-  10 1.42   4 1.42  24 1.42
  24  0.439  0.334  0.000-  13 1.42  31 1.42  23 1.42
  25  0.172  0.600  0.001-  26 1.42  12 1.42  22 1.42
  26  0.239  0.734  0.001-  25 1.42  45 1.42  43 1.42
  27  0.572  0.200  0.000-  10 1.42  28 1.42  16 1.42
  28  0.639  0.334  0.000-  27 1.42  37 1.42  31 1.42
  29  0.372  0.600  0.000-  22 1.42  14 1.42  30 1.42
  30  0.439  0.734  0.000-  47 1.42  29 1.42  45 1.42
  31  0.572  0.400  0.000-  32 1.42  28 1.42  24 1.42
  32  0.639  0.534  0.000-  31 1.42  39 1.42  19 1.42
  33  0.772  0.000  0.001-  34 1.42  48 1.42  50 1.42
  34  0.839  0.134  0.001-  33 1.42   5 1.42  35 1.42
  35  0.772  0.200  0.001-  36 1.42  16 1.42  34 1.42
  36  0.839  0.334  0.001-  35 1.42  11 1.42  37 1.42
  37  0.772  0.400  0.001-  28 1.42  38 1.42  36 1.42
  38  0.839  0.534  0.001-  17 1.42  37 1.42  39 1.42
  39  0.772  0.600  0.001-  40 1.42  38 1.42  32 1.42
  40  0.839  0.734  0.001-  39 1.42  49 1.42  41 1.42
  41  0.972  0.800  0.001-  18 1.42  42 1.42  40 1.42
  42  0.039  0.934  0.001-   3 1.42  41 1.42   1 1.42
  43  0.172  0.800  0.001-  18 1.42  44 1.42  26 1.42
  44  0.239  0.934  0.001-   9 1.42  43 1.42   3 1.42
  45  0.372  0.800  0.001-  26 1.42  46 1.42  30 1.42
  46  0.439  0.934  0.001-  15 1.42  45 1.42   9 1.42
  47  0.572  0.800  0.001-  30 1.42  48 1.42  20 1.42
  48  0.639  0.934  0.001-  47 1.42  33 1.42  15 1.42
  49  0.772  0.800  0.001-  50 1.42  20 1.42  40 1.42
  50  0.839  0.934  0.001-  49 1.42   1 1.42  33 1.42
  51  0.373  0.251  0.400-  52 1.18  53 1.18
  52  0.421  0.189  0.403-  51 1.18
  53  0.325  0.313  0.398-  51 1.18
 
  LATTYP: Found a hexagonal cell.
 ALAT       =    12.3250000000
 C/A-ratio  =     2.0283975659
  
  Lattice vectors:
  
 A1 = (  12.3250000000,   0.0000000000,   0.0000000000)
 A2 = (  -6.1625000000,  10.6737631016,   0.0000000000)
 A3 = (   0.0000000000,   0.0000000000,  25.0000000000)


Analysis of symmetry for initial positions (statically):
=====================================================================
 Subroutine PRICEL returns:
 Original cell was already a primitive cell.
 

 Routine SETGRP: Setting up the symmetry group for a 
 hexagonal supercell.


 Subroutine GETGRP returns: Found  1 space group operations
 (whereof  1 operations were pure point group operations)
 out of a pool of 24 trial point group operations.


The static configuration has the point symmetry C_1 .


Analysis of symmetry for dynamics (positions and initial velocities):
=====================================================================
 Subroutine PRICEL returns:
 Original cell was already a primitive cell.
 

 Routine SETGRP: Setting up the symmetry group for a 
 hexagonal supercell.


 Subroutine GETGRP returns: Found  1 space group operations
 (whereof  1 operations were pure point group operations)
 out of a pool of 24 trial point group operations.


The dynamic configuration has the point symmetry C_1 .


 Subroutine INISYM returns: Found  1 space group operations
 (whereof  1 operations are pure point group operations),
 and found     1 'primitive' translations


----------------------------------------------------------------------------------------

                                     Primitive cell                                     

  volume of cell :    3288.8533

  direct lattice vectors                    reciprocal lattice vectors
    12.325000000  0.000000000  0.000000000     0.081135903  0.046843835  0.000000000
    -6.162500000 10.673763102  0.000000000     0.000000000  0.093687670  0.000000000
     0.000000000  0.000000000 25.000000000     0.000000000  0.000000000  0.040000000

  length of vectors
    12.325000000 12.325000000 25.000000000     0.093687670  0.093687670  0.040000000

  position of ions in fractional coordinates (direct lattice)
     0.972450841  0.000320818  0.000566711
     0.039118382  0.133659505  0.000440173
     0.172443627  0.000295449  0.000499628
     0.239096278  0.133647917  0.000256468
     0.972452058  0.200322012  0.000485219
     0.039128360  0.333643771  0.000444150
     0.172451764  0.200354552  0.000219167
     0.239124359  0.333665720  0.000072260
     0.372465565  0.000324403  0.000453913
     0.439137473  0.133619939  0.000258338
     0.972449824  0.400309362  0.000547611
     0.039124981  0.533636789  0.000573410
     0.372416176  0.400329481  0.000000000
     0.439099602  0.533638981  0.000232414
     0.572443676  0.000312125  0.000559580
     0.639110207  0.133631751  0.000547275
     0.972452703  0.600305653  0.000640289
     0.039124495  0.733640359  0.000654513
     0.572433471  0.600306242  0.000402895
     0.639111888  0.733641879  0.000527905
     0.172454630  0.400318228  0.000289045
     0.239120185  0.533636548  0.000378509
     0.372459750  0.200295993  0.000088997
     0.439107096  0.333673419  0.000055762
     0.172452155  0.600311506  0.000524340
     0.239123371  0.733638574  0.000575129
     0.572431082  0.200289171  0.000413296
     0.639112773  0.333618630  0.000462376
     0.372439808  0.600308022  0.000362844
     0.439116090  0.733637858  0.000494190
     0.572469358  0.400320504  0.000339918
     0.639119408  0.533650873  0.000459610
     0.772445723  0.000315427  0.000596161
     0.839116277  0.133640203  0.000575306
     0.772440513  0.200307432  0.000581033
     0.839120241  0.333635728  0.000585467
     0.772446320  0.400298367  0.000582978
     0.839118980  0.533633964  0.000621100
     0.772456143  0.600308173  0.000595712
     0.839115033  0.733643180  0.000631512
     0.972455313  0.800305582  0.000652233
     0.039114714  0.933643289  0.000598051
     0.172457971  0.800312211  0.000623372
     0.239134551  0.933647193  0.000544850
     0.372451396  0.800316674  0.000551399
     0.439124489  0.933644769  0.000541430
     0.572441101  0.800310054  0.000534535
     0.639115067  0.933638985  0.000587644
     0.772445098  0.800313187  0.000602062
     0.839116614  0.933644338  0.000606830
     0.373021009  0.251226878  0.400000000
     0.420879805  0.189313152  0.402576874
     0.325156981  0.313167186  0.397621805

  ion indices of the primitive-cell ions
   primitive index   ion index
                 1           1
                 2           2
                 3           3
                 4           4
                 5           5
                 6           6
                 7           7
                 8           8
                 9           9
                10          10
                11          11
                12          12
                13          13
                14          14
                15          15
                16          16
                17          17
                18          18
                19          19
                20          20
                21          21
                22          22
                23          23
                24          24
                25          25
                26          26
                27          27
                28          28
                29          29
                30          30
                31          31
                32          32
                33          33
                34          34
                35          35
                36          36
                37          37
                38          38
                39          39
                40          40
                41          41
                42          42
                43          43
                44          44
                45          45
                46          46
                47          47
                48          48
                49          49
                50          50
                51          51
                52          52
                53          53

----------------------------------------------------------------------------------------

 
 
 KPOINTS: auto                                    

Automatic generation of k-mesh.
 Grid dimensions read from file:
 generate k-points for:    1    1    1

 Generating k-lattice:

  Cartesian coordinates                     Fractional coordinates (reciprocal lattice)
     0.081135903  0.046843835  0.000000000     1.000000000 -0.000000000  0.000000000
     0.000000000  0.093687670  0.000000000     0.000000000  1.000000000  0.000000000
     0.000000000  0.000000000  0.040000000     0.000000000  0.000000000  1.000000000

  Length of vectors
     0.093687670  0.093687670  0.040000000

  Shift w.r.t. Gamma in fractional coordinates (k-lattice)
     0.000000000  0.000000000  0.000000000

 
 Subroutine IBZKPT returns following result:
 ===========================================
 
 Found      1 irreducible k-points:
 
 Following reciprocal coordinates:
            Coordinates               Weight
  0.000000  0.000000  0.000000      1.000000
 
 Following cartesian coordinates:
            Coordinates               Weight
  0.000000  0.000000  0.000000      1.000000
 


--------------------------------------------------------------------------------------------------------




 Dimension of arrays:
   k-points           NKPTS =      1   k-points in BZ     NKDIM =      1   number of bands    NBANDS=    136
   number of dos      NEDOS =    301   number of ions     NIONS =     53
   non local maximal  LDIM  =      4   non local SUM 2l+1 LMDIM =      8
   total plane-waves  NPLWV = ******
   max r-space proj   IRMAX =      1   max aug-charges    IRDMAX=  10008
   dimension x,y,z NGX =   128 NGY =  128 NGZ =  270
   dimension x,y,z NGXF=   256 NGYF=  256 NGZF=  540
   support grid    NGXF=   256 NGYF=  256 NGZF=  540
   ions per type =              51   2
   NGX,Y,Z   is equivalent  to a cutoff of  17.27, 17.27, 17.95 a.u.
   NGXF,Y,Z  is equivalent  to a cutoff of  34.53, 34.53, 35.91 a.u.

 SYSTEM =  unknown system                          
 POSCAR =   C  O                                   

 Startparameter for this run:
   NWRITE =      2    write-flag & timer
   PREC   = accura    normal or accurate (medium, high low for compatibility)
   ISTART =      0    job   : 0-new  1-cont  2-samecut
   ICHARG =      2    charge: 1-file 2-atom 10-const
   ISPIN  =      1    spin polarized calculation?
   LNONCOLLINEAR =      F non collinear calculations
   LSORBIT =      F    spin-orbit coupling
   INIWAV =      1    electr: 0-lowe 1-rand  2-diag
   LASPH  =      T    aspherical Exc in radial PAW
 Electronic Relaxation 1
   ENCUT  = 1000.0 eV  73.50 Ry    8.57 a.u.  31.78 31.78 64.46*2*pi/ulx,y,z
   ENINI  = 1000.0     initial cutoff
   ENAUG  =  946.8 eV  augmentation charge cutoff
   NELM   =     60;   NELMIN=  2; NELMDL= -5     # of ELM steps 
   EDIFF  = 0.1E-06   stopping-criterion for ELM
   LREAL  =      F    real-space projection
   NLSPLINE    = F    spline interpolate recip. space projectors
   LCOMPAT=      F    compatible to vasp.4.4
   GGA_COMPAT  = T    GGA compatible to vasp.4.4-vasp.4.6
   LMAXPAW     = -100 max onsite density
   LMAXMIX     =    2 max onsite mixed and CHGCAR
   VOSKOWN=      0    Vosko Wilk Nusair interpolation
   ROPT   =    0.00000   0.00000
 Ionic relaxation
   EDIFFG = 0.1E-05   stopping-criterion for IOM
   NSW    =      0    number of steps for IOM
   NBLOCK =      1;   KBLOCK =      1    inner block; outer block 
   IBRION =     -1    ionic relax: 0-MD 1-quasi-New 2-CG
   NFREE  =      0    steps in history (QN), initial steepest desc. (CG)
   ISIF   =      0    stress and relaxation
   IWAVPR =     10    prediction:  0-non 1-charg 2-wave 3-comb
   ISYM   =      2    0-nonsym 1-usesym 2-fastsym
   LCORR  =      T    Harris-Foulkes like correction to forces

   POTIM  = 0.5000    time-step for ionic-motion
   TEIN   =    0.0    initial temperature
   TEBEG  =    0.0;   TEEND  =   0.0 temperature during run
   SMASS  =  -3.00    Nose mass-parameter (am)
   estimated Nose-frequenzy (Omega)   =  0.10E-29 period in steps = 0.13E+47 mass=  -0.347E-26a.u.
   SCALEE = 1.0000    scale energy and forces
   NPACO  =    256;   APACO  = 16.0  distance and # of slots for P.C.
   PSTRESS=    0.0 pullay stress

  Mass of Ions in am
   POMASS =  12.01 16.00
  Ionic Valenz
   ZVAL   =   4.00  6.00
  Atomic Wigner-Seitz radii
   RWIGS  =  -1.00 -1.00
  virtual crystal weights 
   VCA    =   1.00  1.00
   NELECT =     216.0000    total number of electrons
   NUPDOWN=      -1.0000    fix difference up-down

 DOS related values:
   EMIN   =  10.00;   EMAX   =-10.00  energy-range for DOS
   EFERMI =   0.00
   ISMEAR =     0;   SIGMA  =   0.01  broadening in eV -4-tet -1-fermi 0-gaus

 Electronic relaxation 2 (details)
   IALGO  =     58    algorithm
   LDIAG  =      T    sub-space diagonalisation (order eigenvalues)
   LSUBROT=      F    optimize rotation matrix (better conditioning)
   TURBO    =      0    0=normal 1=particle mesh
   IRESTART =      0    0=no restart 2=restart with 2 vectors
   NREBOOT  =      0    no. of reboots
   NMIN     =      0    reboot dimension
   EREF     =   0.00    reference energy to select bands
   IMIX   =      4    mixing-type and parameters
     AMIX     =   0.40;   BMIX     =  1.00
     AMIX_MAG =   1.60;   BMIX_MAG =  1.00
     AMIN     =   0.10
     WC   =   100.;   INIMIX=   1;  MIXPRE=   1;  MAXMIX= -45

 Intra band minimization:
   WEIMIN = 0.0000     energy-eigenvalue tresh-hold
   EBREAK =  0.18E-09  absolut break condition
   DEPER  =   0.30     relativ break condition  

   TIME   =   0.40     timestep for ELM

  volume/ion in A,a.u.               =      62.05       418.76
  Fermi-wavevector in a.u.,A,eV,Ry     =   0.660508  1.248179  5.935820  0.436270
  Thomas-Fermi vector in A             =   1.732977
 
 Write flags
   LWAVE        =      T    write WAVECAR
   LDOWNSAMPLE  =      F    k-point downsampling of WAVECAR
   LCHARG       =      T    write CHGCAR
   LVTOT        =      F    write LOCPOT, total local potential
   LVHAR        =      F    write LOCPOT, Hartree potential only
   LELF         =      F    write electronic localiz. function (ELF)
   LORBIT       =      0    0 simple, 1 ext, 2 COOP (PROOUT), +10 PAW based schemes


 Dipole corrections
   LMONO  =      F    monopole corrections only (constant potential shift)
   LDIPOL =      F    correct potential (dipole corrections)
   IDIPOL =      0    1-x, 2-y, 3-z, 4-all directions 
   EPSILON=  1.0000000 bulk dielectric constant

 Exchange correlation treatment:
   GGA     =    MK    GGA type
   LEXCH   =    43    internal setting for exchange type
   VOSKOWN=      0    Vosko Wilk Nusair interpolation
   LHFCALC =     F    Hartree Fock is set to
   LHFONE  =     F    Hartree Fock one center treatment
   AEXX    =    0.0000 exact exchange contribution

 vdW DFT:
   LUSE_VDW   =     T    switch on vdW DFT
   Zab_VDW    =-.8491    correlation parameter
   PARAM1     =0.1234
   PARAM2     =1.0000
   PARAM3     =0.0000
   -- rVV10 --
   BPARAM     = 6.3000
   CPARAM     = 0.0093

 Linear response parameters
   LEPSILON=     F    determine dielectric tensor
   LRPA    =     F    only Hartree local field effects (RPA)
   LNABLA  =     F    use nabla operator in PAW spheres
   LVEL    =     F    velocity operator in full k-point grid
   LINTERFAST=   F  fast interpolation
   KINTER  =     0    interpolate to denser k-point grid
   CSHIFT  =0.1000    complex shift for real part using Kramers Kronig
   OMEGAMAX=  -1.0    maximum frequency
   DEG_THRESHOLD= 0.2000000E-02 threshold for treating states as degnerate
   RTIME   =   -0.100 relaxation time in fs
  (WPLASMAI=    0.000 imaginary part of plasma frequency in eV, 0.658/RTIME)
   DFIELD  = 0.0000000 0.0000000 0.0000000 field for delta impulse in time
 
 Orbital magnetization related:
   ORBITALMAG=     F  switch on orbital magnetization
   LCHIMAG   =     F  perturbation theory with respect to B field
   DQ        =  0.001000  dq finite difference perturbation B field
   LLRAUG    =     F  two centre corrections for induced B field



--------------------------------------------------------------------------------------------------------


 Static calculation
 charge density and potential will be updated during run
 non-spin polarized calculation
 Conjugate gradient for all bands (Freysoldt, et al. PRB 79, 241103 (2009))
 preconditioned conjugated gradient                                        
 perform sub-space diagonalisation
    before iterative eigenvector-optimisation
 modified Broyden-mixing scheme, WC =      100.0
 initial mixing is a Kerker type mixing with AMIX =  0.4000 and BMIX =      1.0000
 Hartree-type preconditioning will be used
 using additional bands           28
 reciprocal scheme for non local part
 use partial core corrections
 no Harris-corrections to forces 
 use gradient corrections 
 use of overlap-Matrix (Vanderbilt PP)
 Gauss-broadening in eV      SIGMA  =   0.01


--------------------------------------------------------------------------------------------------------


  energy-cutoff  :     1000.00
  volume of cell :     3288.85
      direct lattice vectors                 reciprocal lattice vectors
    12.325000000  0.000000000  0.000000000     0.081135903  0.046843835  0.000000000
    -6.162500000 10.673763102  0.000000000     0.000000000  0.093687670  0.000000000
     0.000000000  0.000000000 25.000000000     0.000000000  0.000000000  0.040000000

  length of vectors
    12.325000000 12.325000000 25.000000000     0.093687670  0.093687670  0.040000000


 
 k-points in units of 2pi/SCALE and weight: auto                                    
   0.00000000  0.00000000  0.00000000       1.000
 
 k-points in reciprocal lattice and weights: auto                                    
   0.00000000  0.00000000  0.00000000       1.000
 
 position of ions in fractional coordinates (direct lattice) 
   0.97245084  0.00032082  0.00056671
   0.03911838  0.13365950  0.00044017
   0.17244363  0.00029545  0.00049963
   0.23909628  0.13364792  0.00025647
   0.97245206  0.20032201  0.00048522
   0.03912836  0.33364377  0.00044415
   0.17245176  0.20035455  0.00021917
   0.23912436  0.33366572  0.00007226
   0.37246557  0.00032440  0.00045391
   0.43913747  0.13361994  0.00025834
   0.97244982  0.40030936  0.00054761
   0.03912498  0.53363679  0.00057341
   0.37241618  0.40032948  0.00000000
   0.43909960  0.53363898  0.00023241
   0.57244368  0.00031213  0.00055958
   0.63911021  0.13363175  0.00054727
   0.97245270  0.60030565  0.00064029
   0.03912449  0.73364036  0.00065451
   0.57243347  0.60030624  0.00040289
   0.63911189  0.73364188  0.00052791
   0.17245463  0.40031823  0.00028904
   0.23912018  0.53363655  0.00037851
   0.37245975  0.20029599  0.00008900
   0.43910710  0.33367342  0.00005576
   0.17245216  0.60031151  0.00052434
   0.23912337  0.73363857  0.00057513
   0.57243108  0.20028917  0.00041330
   0.63911277  0.33361863  0.00046238
   0.37243981  0.60030802  0.00036284
   0.43911609  0.73363786  0.00049419
   0.57246936  0.40032050  0.00033992
   0.63911941  0.53365087  0.00045961
   0.77244572  0.00031543  0.00059616
   0.83911628  0.13364020  0.00057531
   0.77244051  0.20030743  0.00058103
   0.83912024  0.33363573  0.00058547
   0.77244632  0.40029837  0.00058298
   0.83911898  0.53363396  0.00062110
   0.77245614  0.60030817  0.00059571
   0.83911503  0.73364318  0.00063151
   0.97245531  0.80030558  0.00065223
   0.03911471  0.93364329  0.00059805
   0.17245797  0.80031221  0.00062337
   0.23913455  0.93364719  0.00054485
   0.37245140  0.80031667  0.00055140
   0.43912449  0.93364477  0.00054143
   0.57244110  0.80031005  0.00053453
   0.63911507  0.93363899  0.00058764
   0.77244510  0.80031319  0.00060206
   0.83911661  0.93364434  0.00060683
   0.37302101  0.25122688  0.40000000
   0.42087980  0.18931315  0.40257687
   0.32515698  0.31316719  0.39762181
 
 position of ions in cartesian coordinates  (Angst):
  11.98347958  0.00342433  0.01416777
  -0.34154264  1.42664989  0.01100432
   2.12354700  0.00315355  0.01249070
   2.12325634  1.42652621  0.00641170
  10.75098721  2.13818970  0.01213047
  -1.57382270  3.56123457  0.01110375
   0.89078307  2.13853702  0.00547917
   0.89099273  3.56146885  0.00180651
   4.58863896  0.00346260  0.01134782
   4.58893648  1.42622757  0.00645846
   9.51853763  4.27280730  0.01369027
  -2.80632132  5.69591267  0.01433526
   2.12299894  4.27302204  0.00000000
   2.12335237  5.69593607  0.00581036
   7.05344483  0.00333155  0.01398950
   7.05352764  1.42635365  0.01368187
   8.28609598  6.40752033  0.01600723
  -4.03884931  7.83070339  0.01636283
   3.35585531  6.40752662  0.01007237
   3.35598594  7.83071962  0.01319763
  -0.34145776  4.27290193  0.00722612
  -0.34137895  5.69591010  0.00946273
   3.35624236  2.13791198  0.00222492
   3.35573251  3.56155103  0.00139405
  -1.57394684  6.40758280  0.01310850
  -1.57385216  7.83068434  0.01437823
   5.82093107  2.13783916  0.01033241
   5.82114012  3.56096622  0.01155939
   0.89092245  6.40754561  0.00907111
   0.89106251  7.83067670  0.01235474
   4.58870974  4.27292622  0.00849795
   4.58852320  5.69606300  0.01149026
   9.51844972  0.00336679  0.01490402
   9.51855036  1.42644387  0.01438264
   8.28593477  2.13803408  0.01452582
   8.28612680  3.56114872  0.01463668
   7.05356221  4.27268994  0.01457444
   7.05362213  5.69588251  0.01552751
   5.82112285  6.40754723  0.01489279
   5.82101669  7.83073350  0.01578780
   7.05362858  8.54227219  0.01630582
  -5.27148792  9.96548729  0.01495127
  -2.80637951  8.54234295  0.01558431
  -2.80626749  9.96552896  0.01362126
  -0.34148805  8.54239058  0.01378498
  -0.34137657  9.96550309  0.01353576
   2.12342586  8.54231992  0.01336337
   2.12354296  9.96544135  0.01469111
   4.58845581  8.54235337  0.01505154
   4.58852904  9.96549848  0.01517076
   3.04929830  2.68153618 10.00000000
   4.02070129  2.02068374 10.06442186
   2.07766701  3.34267235  9.94054513
 


--------------------------------------------------------------------------------------------------------


 k-point   1 :   0.0000 0.0000 0.0000  plane waves:  236157

 maximum and minimum number of plane-waves per node :      8440     8428

 maximum number of plane-waves:    236157
 maximum index in each direction: 
   IXMAX=   31   IYMAX=   31   IZMAX=   64
   IXMIN=  -31   IYMIN=  -31   IZMIN=  -64


 parallel 3D FFT for wavefunctions:
    minimum data exchange during FFTs selected (reduces bandwidth)
 parallel 3D FFT for charge:
    minimum data exchange during FFTs selected (reduces bandwidth)


 total amount of memory used by VASP MPI-rank0   100580. kBytes
=======================================================================

   base      :      30000. kBytes
   nonl-proj :       8229. kBytes
   fftplans  :      18352. kBytes
   grid      :      30208. kBytes
   one-center:          6. kBytes
   wavefun   :      13785. kBytes
 
     INWAV:  cpu time    0.0000: real time    0.0000
 Broyden mixing: mesh for mixing (old mesh)
   NGX = 63   NGY = 63   NGZ =129
  (NGX  =256   NGY  =256   NGZ  =540)
  gives a total of 512001 points

 initial charge density was supplied:
 charge density of overlapping atoms calculated
 number of electron     216.0000000 magnetization 
 keeping initial charge density in first step


--------------------------------------------------------------------------------------------------------


 Maximum index for augmentation-charges          471 (set IRDMAX)


--------------------------------------------------------------------------------------------------------


 First call to EWALD:  gamma=   0.119
 Maximum number of real-space cells 4x 4x 2
 Maximum number of reciprocal cells 2x 2x 4

    FEWALD:  cpu time    0.0026: real time    0.0026


--------------------------------------- Iteration      1(   1)  ---------------------------------------


vdW kernel read from vdw_kernel.bindat
  0.0000  0.2424  0.5071  0.7962  1.1119  1.4567  1.8333  2.2446  2.6937  3.1842
  3.7199  4.3049  4.9438  5.6415  6.4036  7.2358  8.1446  9.1372 10.2212 11.4050
 12.6979 14.1099 15.6519 17.3360 19.1751 21.1837 23.3773 25.7729 28.3892 31.2465
 34.3669 37.7748 41.4965 45.5611 50.0000
 
    POTLOK:  cpu time    4.5474: real time    4.6099
    SETDIJ:  cpu time    0.0563: real time    0.0567
    TRIAL :  cpu time    2.0809: real time    2.1018
    CORREC:  cpu time    0.0004: real time    0.0006
    --------------------------------------------
      LOOP:  cpu time    6.6891: real time    6.7848

 eigenvalue-minimisations  :   288
 total energy-change (2. order) : 0.2745196E+04  (-0.1019234E+05)
 number of electron     216.0000000 magnetization 
 augmentation part      216.0000000 magnetization 

 Free energy of the ion-electron system (eV)
  ---------------------------------------------------
  alpha Z        PSCENC =        47.94900195
  Ewald energy   TEWEN  =     40383.20022222
  -Hartree energ DENC   =    -46452.44530560
  -exchange      EXHF   =         0.00000000
  -V(xc)+E(xc)   XCENC  =       414.11472902
  PAW double counting   =      6552.85433684    -6257.21772958
  entropy T*S    EENTRO =        -0.00000000
  eigenvalues    EBANDS =      -358.29439528
  atomic energy  EATOM  =      8415.03548706
  ---------------------------------------------------
  free energy    TOTEN  =      2745.19634663 eV

  energy without entropy =     2745.19634663  energy(sigma->0) =     2745.19634663


--------------------------------------------------------------------------------------------------------




--------------------------------------- Iteration      1(   2)  ---------------------------------------


    TRIAL :  cpu time    2.8753: real time    2.9011
    CORREC:  cpu time    0.0001: real time    0.0001
    --------------------------------------------
      LOOP:  cpu time    2.9111: real time    2.9524

 eigenvalue-minimisations  :   448
 total energy-change (2. order) :-0.2307321E+04  (-0.2152152E+04)
 number of electron     216.0000000 magnetization 
 augmentation part      216.0000000 magnetization 

 Free energy of the ion-electron system (eV)
  ---------------------------------------------------
  alpha Z        PSCENC =        47.94900195
  Ewald energy   TEWEN  =     40383.20022222
  -Hartree energ DENC   =    -46452.44530560
  -exchange      EXHF   =         0.00000000
  -V(xc)+E(xc)   XCENC  =       414.11472902
  PAW double counting   =      6552.85433684    -6257.21772958
  entropy T*S    EENTRO =        -0.00000000
  eigenvalues    EBANDS =     -2665.61504615
  atomic energy  EATOM  =      8415.03548706
  ---------------------------------------------------
  free energy    TOTEN  =       437.87569576 eV

  energy without entropy =      437.87569576  energy(sigma->0) =      437.87569576


--------------------------------------------------------------------------------------------------------




--------------------------------------- Iteration      1(   3)  ---------------------------------------


    TRIAL :  cpu time    2.3598: real time    2.3795
    CORREC:  cpu time    0.0001: real time    0.0002
    --------------------------------------------
      LOOP:  cpu time    2.3796: real time    2.4333

 eigenvalue-minimisations  :   344
 total energy-change (2. order) :-0.8100407E+03  (-0.7969891E+03)
 number of electron     216.0000000 magnetization 
 augmentation part      216.0000000 magnetization 

 Free energy of the ion-electron system (eV)
  ---------------------------------------------------
  alpha Z        PSCENC =        47.94900195
  Ewald energy   TEWEN  =     40383.20022222
  -Hartree energ DENC   =    -46452.44530560
  -exchange      EXHF   =         0.00000000
  -V(xc)+E(xc)   XCENC  =       414.11472902
  PAW double counting   =      6552.85433684    -6257.21772958
  entropy T*S    EENTRO =        -0.00000000
  eigenvalues    EBANDS =     -3475.65578826
  atomic energy  EATOM  =      8415.03548706
  ---------------------------------------------------
  free energy    TOTEN  =      -372.16504635 eV

  energy without entropy =     -372.16504635  energy(sigma->0) =     -372.16504635


--------------------------------------------------------------------------------------------------------




--------------------------------------- Iteration      1(   4)  ---------------------------------------


    TRIAL :  cpu time    2.3520: real time    2.3719
    CORREC:  cpu time    0.0001: real time    0.0001
    --------------------------------------------
      LOOP:  cpu time    2.3660: real time    2.3902

 eigenvalue-minimisations  :   344
 total energy-change (2. order) :-0.7541277E+02  (-0.7429306E+02)
 number of electron     216.0000000 magnetization 
 augmentation part      216.0000000 magnetization 

 Free energy of the ion-electron system (eV)
  ---------------------------------------------------
  alpha Z        PSCENC =        47.94900195
  Ewald energy   TEWEN  =     40383.20022222
  -Hartree energ DENC   =    -46452.44530560
  -exchange      EXHF   =         0.00000000
  -V(xc)+E(xc)   XCENC  =       414.11472902
  PAW double counting   =      6552.85433684    -6257.21772958
  entropy T*S    EENTRO =        -0.00000000
  eigenvalues    EBANDS =     -3551.06855481
  atomic energy  EATOM  =      8415.03548706
  ---------------------------------------------------
  free energy    TOTEN  =      -447.57781290 eV

  energy without entropy =     -447.57781290  energy(sigma->0) =     -447.57781290


--------------------------------------------------------------------------------------------------------




--------------------------------------- Iteration      1(   5)  ---------------------------------------


    TRIAL :  cpu time    2.4633: real time    2.4843
    CORREC:  cpu time    0.0000: real time    0.0000
    CHARGE:  cpu time    0.1770: real time    0.1791
    --------------------------------------------
      LOOP:  cpu time    2.6778: real time    2.7047

 eigenvalue-minimisations  :   368
 total energy-change (2. order) :-0.2369122E+01  (-0.2349197E+01)
 number of electron     216.0000000 magnetization 
 augmentation part       -0.2540615 magnetization 

 Free energy of the ion-electron system (eV)
  ---------------------------------------------------
  alpha Z        PSCENC =        47.94900195
  Ewald energy   TEWEN  =     40383.20022222
  -Hartree energ DENC   =    -46452.44530560
  -exchange      EXHF   =         0.00000000
  -V(xc)+E(xc)   XCENC  =       414.11472902
  PAW double counting   =      6552.85433684    -6257.21772958
  entropy T*S    EENTRO =        -0.00000000
  eigenvalues    EBANDS =     -3553.43767703
  atomic energy  EATOM  =      8415.03548706
  ---------------------------------------------------
  free energy    TOTEN  =      -449.94693512 eV

  energy without entropy =     -449.94693512  energy(sigma->0) =     -449.94693512


--------------------------------------------------------------------------------------------------------




--------------------------------------- Iteration      1(   6)  ---------------------------------------


    POTLOK:  cpu time    4.2090: real time    4.2383
    SETDIJ:  cpu time    0.0545: real time    0.0546
    TRIAL :  cpu time    1.1686: real time    1.1786
    CORREC:  cpu time    4.7236: real time    4.7591
    CHARGE:  cpu time    0.1790: real time    0.1808
    --------------------------------------------
      LOOP:  cpu time   10.3657: real time   10.4546

 eigenvalue-minimisations  :     0
 total energy-change (2. order) : 0.5112485E+02  (-0.1585411E+02)
 number of electron     216.0000000 magnetization 
 augmentation part       -0.3478869 magnetization 

 Free energy of the ion-electron system (eV)
  ---------------------------------------------------
  alpha Z        PSCENC =        47.94900195
  Ewald energy   TEWEN  =     40383.20022222
  -Hartree energ DENC   =    -47887.18645802
  -exchange      EXHF   =         0.00000000
  -V(xc)+E(xc)   XCENC  =       461.73181177
  PAW double counting   =     86281.26987965   -85990.63622398
  entropy T*S    EENTRO =        -0.00000000
  eigenvalues    EBANDS =     -2110.18580538
  atomic energy  EATOM  =      8415.03548706
  ---------------------------------------------------
  free energy    TOTEN  =      -398.82208471 eV

  energy without entropy =     -398.82208471  energy(sigma->0) =     -398.82208471


--------------------------------------------------------------------------------------------------------




--------------------------------------- Iteration      1(   7)  ---------------------------------------


    POTLOK:  cpu time    4.2262: real time    4.2689
    SETDIJ:  cpu time    0.0541: real time    0.0543
    TRIAL :  cpu time    1.1601: real time    1.1725
    CORREC:  cpu time    4.6821: real time    4.7242
    CHARGE:  cpu time    0.1745: real time    0.1817
    --------------------------------------------
      LOOP:  cpu time   10.3614: real time   10.4705

 eigenvalue-minimisations  :     0
 total energy-change (2. order) :-0.1590463E+02  (-0.1847605E+01)
 number of electron     216.0000000 magnetization 
 augmentation part       -0.3914204 magnetization 

 Free energy of the ion-electron system (eV)
  ---------------------------------------------------
  alpha Z        PSCENC =        47.94900195
  Ewald energy   TEWEN  =     40383.20022222
  -Hartree energ DENC   =    -47372.30248240
  -exchange      EXHF   =         0.00000000
  -V(xc)+E(xc)   XCENC  =       444.64736767
  PAW double counting   =    101265.17354992  -100972.12896991
  entropy T*S    EENTRO =        -0.00000000
  eigenvalues    EBANDS =     -2626.30089506
  atomic energy  EATOM  =      8415.03548706
  ---------------------------------------------------
  free energy    TOTEN  =      -414.72671855 eV

  energy without entropy =     -414.72671855  energy(sigma->0) =     -414.72671855


--------------------------------------------------------------------------------------------------------




--------------------------------------- Iteration      1(   8)  ---------------------------------------


    POTLOK:  cpu time    4.7979: real time    4.8502
    SETDIJ:  cpu time    0.0542: real time    0.0544
    TRIAL :  cpu time    1.4424: real time    1.4538
    CORREC:  cpu time    5.6066: real time    5.6449
    CHARGE:  cpu time    0.1785: real time    0.1804
    --------------------------------------------
      LOOP:  cpu time   12.1396: real time   12.2484

 eigenvalue-minimisations  :     0
 total energy-change (2. order) :-0.1845986E+01  (-0.4998540E+00)
 number of electron     216.0000000 magnetization 
 augmentation part       -0.4081282 magnetization 

 Free energy of the ion-electron system (eV)
  ---------------------------------------------------
  alpha Z        PSCENC =        47.94900195
  Ewald energy   TEWEN  =     40383.20022222
  -Hartree energ DENC   =    -47343.01888288
  -exchange      EXHF   =         0.00000000
  -V(xc)+E(xc)   XCENC  =       444.11241499
  PAW double counting   =    105131.45319323  -104838.13221524
  entropy T*S    EENTRO =        -0.00000000
  eigenvalues    EBANDS =     -2657.17192539
  atomic energy  EATOM  =      8415.03548706
  ---------------------------------------------------
  free energy    TOTEN  =      -416.57270407 eV

  energy without entropy =     -416.57270407  energy(sigma->0) =     -416.57270407


--------------------------------------------------------------------------------------------------------




--------------------------------------- Iteration      1(   9)  ---------------------------------------


    POTLOK:  cpu time    4.1924: real time    4.2223
    SETDIJ:  cpu time    0.0542: real time    0.0544
    TRIAL :  cpu time    1.1620: real time    1.1722
    CORREC:  cpu time    4.7322: real time    4.7700
    CHARGE:  cpu time    0.1793: real time    0.1809
    --------------------------------------------
      LOOP:  cpu time   10.3886: real time   10.4958

 eigenvalue-minimisations  :     0
 total energy-change (2. order) :-0.4997838E+00  (-0.1839711E+00)
 number of electron     216.0000000 magnetization 
 augmentation part       -0.4159455 magnetization 

 Free energy of the ion-electron system (eV)
  ---------------------------------------------------
  alpha Z        PSCENC =        47.94900195
  Ewald energy   TEWEN  =     40383.20022222
  -Hartree energ DENC   =    -47359.59132008
  -exchange      EXHF   =         0.00000000
  -V(xc)+E(xc)   XCENC  =       444.30779372
  PAW double counting   =    107670.52486530  -107377.08648907
  entropy T*S    EENTRO =        -0.00000000
  eigenvalues    EBANDS =     -2641.41204894
  atomic energy  EATOM  =      8415.03548706
  ---------------------------------------------------
  free energy    TOTEN  =      -417.07248784 eV

  energy without entropy =     -417.07248784  energy(sigma->0) =     -417.07248784


--------------------------------------------------------------------------------------------------------




--------------------------------------- Iteration      1(  10)  ---------------------------------------


    POTLOK:  cpu time    4.2218: real time    4.2523
    SETDIJ:  cpu time    0.0543: real time    0.0545
    TRIAL :  cpu time    1.1629: real time    1.1736
    CORREC:  cpu time    4.6992: real time    4.7359
    CHARGE:  cpu time    0.1802: real time    0.1819
    --------------------------------------------
      LOOP:  cpu time   10.3412: real time   10.4585

 eigenvalue-minimisations  :     0
 total energy-change (2. order) :-0.1835517E+00  (-0.8614933E-01)
 number of electron     216.0000000 magnetization 
 augmentation part       -0.4157198 magnetization 

 Free energy of the ion-electron system (eV)
  ---------------------------------------------------
  alpha Z        PSCENC =        47.94900195
  Ewald energy   TEWEN  =     40383.20022222
  -Hartree energ DENC   =    -47358.39780262
  -exchange      EXHF   =         0.00000000
  -V(xc)+E(xc)   XCENC  =       444.17111365
  PAW double counting   =    108124.05383521  -107830.53476030
  entropy T*S    EENTRO =        -0.00000000
  eigenvalues    EBANDS =     -2642.73313668
  atomic energy  EATOM  =      8415.03548706
  ---------------------------------------------------
  free energy    TOTEN  =      -417.25603950 eV

  energy without entropy =     -417.25603950  energy(sigma->0) =     -417.25603950


--------------------------------------------------------------------------------------------------------




--------------------------------------- Iteration      1(  11)  ---------------------------------------


    POTLOK:  cpu time    4.2552: real time    4.2865
    SETDIJ:  cpu time    0.0544: real time    0.0546
    TRIAL :  cpu time    1.1620: real time    1.1726
    CORREC:  cpu time    4.6969: real time    4.7334
    CHARGE:  cpu time    0.1793: real time    0.1810
    --------------------------------------------
      LOOP:  cpu time   10.3742: real time   10.4579

 eigenvalue-minimisations  :     0
 total energy-change (2. order) :-0.8572775E-01  (-0.3605930E-01)
 number of electron     216.0000000 magnetization 
 augmentation part       -0.4149260 magnetization 

 Free energy of the ion-electron system (eV)
  ---------------------------------------------------
  alpha Z        PSCENC =        47.94900195
  Ewald energy   TEWEN  =     40383.20022222
  -Hartree energ DENC   =    -47351.86067618
  -exchange      EXHF   =         0.00000000
  -V(xc)+E(xc)   XCENC  =       444.08458624
  PAW double counting   =    107633.08609165  -107339.57024077
  entropy T*S    EENTRO =        -0.00000000
  eigenvalues    EBANDS =     -2649.26623942
  atomic energy  EATOM  =      8415.03548706
  ---------------------------------------------------
  free energy    TOTEN  =      -417.34176725 eV

  energy without entropy =     -417.34176725  energy(sigma->0) =     -417.34176725


--------------------------------------------------------------------------------------------------------




--------------------------------------- Iteration      1(  12)  ---------------------------------------


    POTLOK:  cpu time    4.2300: real time    4.2610
    SETDIJ:  cpu time    0.0547: real time    0.0549
    TRIAL :  cpu time    1.1625: real time    1.1733
    CORREC:  cpu time    4.7050: real time    4.7458
    CHARGE:  cpu time    0.1813: real time    0.1830
    --------------------------------------------
      LOOP:  cpu time   10.3927: real time   10.4918

 eigenvalue-minimisations  :     0
 total energy-change (2. order) :-0.3593691E-01  (-0.1134939E-01)
 number of electron     216.0000000 magnetization 
 augmentation part       -0.4146516 magnetization 

 Free energy of the ion-electron system (eV)
  ---------------------------------------------------
  alpha Z        PSCENC =        47.94900195
  Ewald energy   TEWEN  =     40383.20022222
  -Hartree energ DENC   =    -47348.54297145
  -exchange      EXHF   =         0.00000000
  -V(xc)+E(xc)   XCENC  =       444.00473530
  PAW double counting   =    107259.44420311  -106965.94514754
  entropy T*S    EENTRO =        -0.00000000
  eigenvalues    EBANDS =     -2652.52323482
  atomic energy  EATOM  =      8415.03548706
  ---------------------------------------------------
  free energy    TOTEN  =      -417.37770416 eV

  energy without entropy =     -417.37770416  energy(sigma->0) =     -417.37770416


--------------------------------------------------------------------------------------------------------




--------------------------------------- Iteration      1(  13)  ---------------------------------------


    POTLOK:  cpu time    4.2543: real time    4.2878
    SETDIJ:  cpu time    0.0543: real time    0.0545
    TRIAL :  cpu time    1.1631: real time    1.1738
    CORREC:  cpu time    4.7045: real time    4.7404
    CHARGE:  cpu time    0.1805: real time    0.1822
    --------------------------------------------
      LOOP:  cpu time   10.3672: real time   10.4925

 eigenvalue-minimisations  :     0
 total energy-change (2. order) :-0.1134211E-01  (-0.3214365E-02)
 number of electron     216.0000000 magnetization 
 augmentation part       -0.4140035 magnetization 

 Free energy of the ion-electron system (eV)
  ---------------------------------------------------
  alpha Z        PSCENC =        47.94900195
  Ewald energy   TEWEN  =     40383.20022222
  -Hartree energ DENC   =    -47348.64565621
  -exchange      EXHF   =         0.00000000
  -V(xc)+E(xc)   XCENC  =       444.00442790
  PAW double counting   =    107120.94282206  -106827.45433451
  entropy T*S    EENTRO =        -0.00000000
  eigenvalues    EBANDS =     -2652.42101674
  atomic energy  EATOM  =      8415.03548706
  ---------------------------------------------------
  free energy    TOTEN  =      -417.38904626 eV

  energy without entropy =     -417.38904626  energy(sigma->0) =     -417.38904626


--------------------------------------------------------------------------------------------------------




--------------------------------------- Iteration      1(  14)  ---------------------------------------


    POTLOK:  cpu time    4.2177: real time    4.2475
    SETDIJ:  cpu time    0.0543: real time    0.0545
    TRIAL :  cpu time    1.1632: real time    1.1738
    CORREC:  cpu time    4.7034: real time    4.7398
    CHARGE:  cpu time    0.1811: real time    0.1828
    --------------------------------------------
      LOOP:  cpu time   10.3707: real time   10.4500

 eigenvalue-minimisations  :     0
 total energy-change (2. order) :-0.3215924E-02  (-0.1118537E-02)
 number of electron     216.0000000 magnetization 
 augmentation part       -0.4136514 magnetization 

 Free energy of the ion-electron system (eV)
  ---------------------------------------------------
  alpha Z        PSCENC =        47.94900195
  Ewald energy   TEWEN  =     40383.20022222
  -Hartree energ DENC   =    -47348.61386780
  -exchange      EXHF   =         0.00000000
  -V(xc)+E(xc)   XCENC  =       444.00286379
  PAW double counting   =    107118.99869680  -106825.51399158
  entropy T*S    EENTRO =        -0.00000000
  eigenvalues    EBANDS =     -2652.45067462
  atomic energy  EATOM  =      8415.03548706
  ---------------------------------------------------
  free energy    TOTEN  =      -417.39226219 eV

  energy without entropy =     -417.39226219  energy(sigma->0) =     -417.39226219


--------------------------------------------------------------------------------------------------------




--------------------------------------- Iteration      1(  15)  ---------------------------------------


    POTLOK:  cpu time    4.1981: real time    4.2324
    SETDIJ:  cpu time    0.0544: real time    0.0546
    TRIAL :  cpu time    1.1788: real time    1.1907
    CORREC:  cpu time    4.7579: real time    4.7965
    CHARGE:  cpu time    0.1804: real time    0.1824
    --------------------------------------------
      LOOP:  cpu time   10.4271: real time   10.5554

 eigenvalue-minimisations  :     0
 total energy-change (2. order) :-0.1120555E-02  (-0.5290059E-03)
 number of electron     216.0000000 magnetization 
 augmentation part       -0.4131959 magnetization 

 Free energy of the ion-electron system (eV)
  ---------------------------------------------------
  alpha Z        PSCENC =        47.94900195
  Ewald energy   TEWEN  =     40383.20022222
  -Hartree energ DENC   =    -47348.26929112
  -exchange      EXHF   =         0.00000000
  -V(xc)+E(xc)   XCENC  =       443.98446945
  PAW double counting   =    107111.67446758  -106818.18844318
  entropy T*S    EENTRO =        -0.00000000
  eigenvalues    EBANDS =     -2652.77929670
  atomic energy  EATOM  =      8415.03548706
  ---------------------------------------------------
  free energy    TOTEN  =      -417.39338274 eV

  energy without entropy =     -417.39338274  energy(sigma->0) =     -417.39338274


--------------------------------------------------------------------------------------------------------




--------------------------------------- Iteration      1(  16)  ---------------------------------------


    POTLOK:  cpu time    4.2162: real time    4.2601
    SETDIJ:  cpu time    0.0542: real time    0.0545
    TRIAL :  cpu time    1.1606: real time    1.1749
    CORREC:  cpu time    4.6780: real time    4.7272
    CHARGE:  cpu time    0.1800: real time    0.1825
    --------------------------------------------
      LOOP:  cpu time   10.3545: real time   10.4654

 eigenvalue-minimisations  :     0
 total energy-change (2. order) :-0.5305027E-03  (-0.2654352E-03)
 number of electron     216.0000000 magnetization 
 augmentation part       -0.4130529 magnetization 

 Free energy of the ion-electron system (eV)
  ---------------------------------------------------
  alpha Z        PSCENC =        47.94900195
  Ewald energy   TEWEN  =     40383.20022222
  -Hartree energ DENC   =    -47348.67818522
  -exchange      EXHF   =         0.00000000
  -V(xc)+E(xc)   XCENC  =       443.99788529
  PAW double counting   =    107054.30763183  -106760.82353926
  entropy T*S    EENTRO =        -0.00000000
  eigenvalues    EBANDS =     -2652.38241712
  atomic energy  EATOM  =      8415.03548706
  ---------------------------------------------------
  free energy    TOTEN  =      -417.39391325 eV

  energy without entropy =     -417.39391325  energy(sigma->0) =     -417.39391325


--------------------------------------------------------------------------------------------------------




--------------------------------------- Iteration      1(  17)  ---------------------------------------


    POTLOK:  cpu time    4.2315: real time    4.2679
    SETDIJ:  cpu time    0.0544: real time    0.0546
    TRIAL :  cpu time    1.1614: real time    1.1747
    CORREC:  cpu time    4.6721: real time    4.7150
    CHARGE:  cpu time    0.1804: real time    0.1824
    --------------------------------------------
      LOOP:  cpu time   10.3546: real time   10.4517

 eigenvalue-minimisations  :     0
 total energy-change (2. order) :-0.2666555E-03  (-0.1097584E-03)
 number of electron     216.0000000 magnetization 
 augmentation part       -0.4131168 magnetization 

 Free energy of the ion-electron system (eV)
  ---------------------------------------------------
  alpha Z        PSCENC =        47.94900195
  Ewald energy   TEWEN  =     40383.20022222
  -Hartree energ DENC   =    -47348.82992622
  -exchange      EXHF   =         0.00000000
  -V(xc)+E(xc)   XCENC  =       443.99925195
  PAW double counting   =    106998.62590466  -106705.14123317
  entropy T*S    EENTRO =        -0.00000000
  eigenvalues    EBANDS =     -2652.23288836
  atomic energy  EATOM  =      8415.03548706
  ---------------------------------------------------
  free energy    TOTEN  =      -417.39417990 eV

  energy without entropy =     -417.39417990  energy(sigma->0) =     -417.39417990


--------------------------------------------------------------------------------------------------------




--------------------------------------- Iteration      1(  18)  ---------------------------------------


    POTLOK:  cpu time    4.2324: real time    4.2702
    SETDIJ:  cpu time    0.0543: real time    0.0546
    TRIAL :  cpu time    1.1616: real time    1.1730
    CORREC:  cpu time    4.7095: real time    4.7465
    CHARGE:  cpu time    0.1788: real time    0.1808
    --------------------------------------------
      LOOP:  cpu time   10.3888: real time   10.4977

 eigenvalue-minimisations  :     0
 total energy-change (2. order) :-0.1098340E-03  (-0.4115648E-04)
 number of electron     216.0000000 magnetization 
 augmentation part       -0.4132968 magnetization 

 Free energy of the ion-electron system (eV)
  ---------------------------------------------------
  alpha Z        PSCENC =        47.94900195
  Ewald energy   TEWEN  =     40383.20022222
  -Hartree energ DENC   =    -47348.88740007
  -exchange      EXHF   =         0.00000000
  -V(xc)+E(xc)   XCENC  =       444.00181256
  PAW double counting   =    106985.67160874  -106692.18656013
  entropy T*S    EENTRO =        -0.00000000
  eigenvalues    EBANDS =     -2652.17846207
  atomic energy  EATOM  =      8415.03548706
  ---------------------------------------------------
  free energy    TOTEN  =      -417.39428974 eV

  energy without entropy =     -417.39428974  energy(sigma->0) =     -417.39428974


--------------------------------------------------------------------------------------------------------




--------------------------------------- Iteration      1(  19)  ---------------------------------------


    POTLOK:  cpu time    4.2003: real time    4.2319
    SETDIJ:  cpu time    0.0543: real time    0.0545
    TRIAL :  cpu time    1.1758: real time    1.1889
    CORREC:  cpu time    4.7023: real time    4.7421
    CHARGE:  cpu time    0.1807: real time    0.1825
    --------------------------------------------
      LOOP:  cpu time   10.3421: real time   10.4493

 eigenvalue-minimisations  :     0
 total energy-change (2. order) :-0.4084644E-04  (-0.1603658E-04)
 number of electron     216.0000000 magnetization 
 augmentation part       -0.4133923 magnetization 

 Free energy of the ion-electron system (eV)
  ---------------------------------------------------
  alpha Z        PSCENC =        47.94900195
  Ewald energy   TEWEN  =     40383.20022222
  -Hartree energ DENC   =    -47348.86703706
  -exchange      EXHF   =         0.00000000
  -V(xc)+E(xc)   XCENC  =       444.00077610
  PAW double counting   =    106996.35702060  -106702.87120889
  entropy T*S    EENTRO =        -0.00000000
  eigenvalues    EBANDS =     -2652.19859256
  atomic energy  EATOM  =      8415.03548706
  ---------------------------------------------------
  free energy    TOTEN  =      -417.39433058 eV

  energy without entropy =     -417.39433058  energy(sigma->0) =     -417.39433058


--------------------------------------------------------------------------------------------------------




--------------------------------------- Iteration      1(  20)  ---------------------------------------


    POTLOK:  cpu time    4.2157: real time    4.2467
    SETDIJ:  cpu time    0.0543: real time    0.0545
    TRIAL :  cpu time    1.1645: real time    1.1750
    CORREC:  cpu time    4.6888: real time    4.7251
    CHARGE:  cpu time    0.1804: real time    0.1821
    --------------------------------------------
      LOOP:  cpu time   10.3550: real time   10.4502

 eigenvalue-minimisations  :     0
 total energy-change (2. order) :-0.1575610E-04  (-0.8381699E-05)
 number of electron     216.0000000 magnetization 
 augmentation part       -0.4134367 magnetization 

 Free energy of the ion-electron system (eV)
  ---------------------------------------------------
  alpha Z        PSCENC =        47.94900195
  Ewald energy   TEWEN  =     40383.20022222
  -Hartree energ DENC   =    -47348.89391451
  -exchange      EXHF   =         0.00000000
  -V(xc)+E(xc)   XCENC  =       444.00171500
  PAW double counting   =    107007.12940670  -106713.64351133
  entropy T*S    EENTRO =        -0.00000000
  eigenvalues    EBANDS =     -2652.17275342
  atomic energy  EATOM  =      8415.03548706
  ---------------------------------------------------
  free energy    TOTEN  =      -417.39434634 eV

  energy without entropy =     -417.39434634  energy(sigma->0) =     -417.39434634


--------------------------------------------------------------------------------------------------------




--------------------------------------- Iteration      1(  21)  ---------------------------------------


    POTLOK:  cpu time    4.2419: real time    4.2716
    SETDIJ:  cpu time    0.0544: real time    0.0547
    TRIAL :  cpu time    1.1675: real time    1.1783
    CORREC:  cpu time    4.7118: real time    4.7483
    CHARGE:  cpu time    0.1811: real time    0.1828
    --------------------------------------------
      LOOP:  cpu time   10.4118: real time   10.4943

 eigenvalue-minimisations  :     0
 total energy-change (2. order) :-0.8286588E-05  (-0.5564752E-05)
 number of electron     216.0000000 magnetization 
 augmentation part       -0.4134382 magnetization 

 Free energy of the ion-electron system (eV)
  ---------------------------------------------------
  alpha Z        PSCENC =        47.94900195
  Ewald energy   TEWEN  =     40383.20022222
  -Hartree energ DENC   =    -47348.88517956
  -exchange      EXHF   =         0.00000000
  -V(xc)+E(xc)   XCENC  =       444.00129360
  PAW double counting   =    107012.89546872  -106719.40955067
  entropy T*S    EENTRO =        -0.00000000
  eigenvalues    EBANDS =     -2652.18109795
  atomic energy  EATOM  =      8415.03548706
  ---------------------------------------------------
  free energy    TOTEN  =      -417.39435463 eV

  energy without entropy =     -417.39435463  energy(sigma->0) =     -417.39435463


--------------------------------------------------------------------------------------------------------




--------------------------------------- Iteration      1(  22)  ---------------------------------------


    POTLOK:  cpu time    4.2527: real time    4.2845
    SETDIJ:  cpu time    0.0545: real time    0.0547
    TRIAL :  cpu time    1.1621: real time    1.1741
    CORREC:  cpu time    4.6971: real time    4.7339
    CHARGE:  cpu time    0.1814: real time    0.1832
    --------------------------------------------
      LOOP:  cpu time   10.4098: real time   10.4935

 eigenvalue-minimisations  :     0
 total energy-change (2. order) :-0.5524620E-05  (-0.2728313E-05)
 number of electron     216.0000000 magnetization 
 augmentation part       -0.4134093 magnetization 

 Free energy of the ion-electron system (eV)
  ---------------------------------------------------
  alpha Z        PSCENC =        47.94900195
  Ewald energy   TEWEN  =     40383.20022222
  -Hartree energ DENC   =    -47348.85772201
  -exchange      EXHF   =         0.00000000
  -V(xc)+E(xc)   XCENC  =       444.00030081
  PAW double counting   =    107013.79361155  -106720.30773703
  entropy T*S    EENTRO =        -0.00000000
  eigenvalues    EBANDS =     -2652.20752469
  atomic energy  EATOM  =      8415.03548706
  ---------------------------------------------------
  free energy    TOTEN  =      -417.39436015 eV

  energy without entropy =     -417.39436015  energy(sigma->0) =     -417.39436015


--------------------------------------------------------------------------------------------------------




--------------------------------------- Iteration      1(  23)  ---------------------------------------


    POTLOK:  cpu time    4.2143: real time    4.2459
    SETDIJ:  cpu time    0.0542: real time    0.0544
    TRIAL :  cpu time    1.1630: real time    1.1737
    CORREC:  cpu time    4.7144: real time    4.7510
    CHARGE:  cpu time    0.1804: real time    0.1821
    --------------------------------------------
      LOOP:  cpu time   10.3842: real time   10.4683

 eigenvalue-minimisations  :     0
 total energy-change (2. order) :-0.2748813E-05  (-0.1099708E-05)
 number of electron     216.0000000 magnetization 
 augmentation part       -0.4134013 magnetization 

 Free energy of the ion-electron system (eV)
  ---------------------------------------------------
  alpha Z        PSCENC =        47.94900195
  Ewald energy   TEWEN  =     40383.20022222
  -Hartree energ DENC   =    -47348.85984297
  -exchange      EXHF   =         0.00000000
  -V(xc)+E(xc)   XCENC  =       444.00063265
  PAW double counting   =    107012.08635478  -106718.60065167
  entropy T*S    EENTRO =        -0.00000000
  eigenvalues    EBANDS =     -2652.20556692
  atomic energy  EATOM  =      8415.03548706
  ---------------------------------------------------
  free energy    TOTEN  =      -417.39436290 eV

  energy without entropy =     -417.39436290  energy(sigma->0) =     -417.39436290


--------------------------------------------------------------------------------------------------------




--------------------------------------- Iteration      1(  24)  ---------------------------------------


    POTLOK:  cpu time    4.2234: real time    4.2538
    SETDIJ:  cpu time    0.0542: real time    0.0543
    TRIAL :  cpu time    1.1620: real time    1.1726
    CORREC:  cpu time    4.6862: real time    4.7229
    CHARGE:  cpu time    0.1803: real time    0.1820
    --------------------------------------------
      LOOP:  cpu time   10.3758: real time   10.4605

 eigenvalue-minimisations  :     0
 total energy-change (2. order) :-0.1114575E-05  (-0.5086429E-06)
 number of electron     216.0000000 magnetization 
 augmentation part       -0.4133967 magnetization 

 Free energy of the ion-electron system (eV)
  ---------------------------------------------------
  alpha Z        PSCENC =        47.94900195
  Ewald energy   TEWEN  =     40383.20022222
  -Hartree energ DENC   =    -47348.85157353
  -exchange      EXHF   =         0.00000000
  -V(xc)+E(xc)   XCENC  =       444.00037552
  PAW double counting   =    107011.17151711  -106717.68577994
  entropy T*S    EENTRO =        -0.00000000
  eigenvalues    EBANDS =     -2652.21361441
  atomic energy  EATOM  =      8415.03548706
  ---------------------------------------------------
  free energy    TOTEN  =      -417.39436401 eV

  energy without entropy =     -417.39436401  energy(sigma->0) =     -417.39436401


--------------------------------------------------------------------------------------------------------




--------------------------------------- Iteration      1(  25)  ---------------------------------------


    POTLOK:  cpu time    4.2091: real time    4.2401
    SETDIJ:  cpu time    0.0543: real time    0.0545
    TRIAL :  cpu time    1.1669: real time    1.1779
    CORREC:  cpu time    4.6930: real time    4.7312
    CHARGE:  cpu time    0.1809: real time    0.1826
    --------------------------------------------
      LOOP:  cpu time   10.3721: real time   10.4586

 eigenvalue-minimisations  :     0
 total energy-change (2. order) :-0.5221082E-06  (-0.2419984E-06)
 number of electron     216.0000000 magnetization 
 augmentation part       -0.4133942 magnetization 

 Free energy of the ion-electron system (eV)
  ---------------------------------------------------
  alpha Z        PSCENC =        47.94900195
  Ewald energy   TEWEN  =     40383.20022222
  -Hartree energ DENC   =    -47348.85160905
  -exchange      EXHF   =         0.00000000
  -V(xc)+E(xc)   XCENC  =       444.00048287
  PAW double counting   =    107011.01979866  -106717.53404836
  entropy T*S    EENTRO =        -0.00000000
  eigenvalues    EBANDS =     -2652.21369988
  atomic energy  EATOM  =      8415.03548706
  ---------------------------------------------------
  free energy    TOTEN  =      -417.39436454 eV

  energy without entropy =     -417.39436454  energy(sigma->0) =     -417.39436454


--------------------------------------------------------------------------------------------------------




--------------------------------------- Iteration      1(  26)  ---------------------------------------


    POTLOK:  cpu time    4.2027: real time    4.2336
    SETDIJ:  cpu time    0.0542: real time    0.0544
    TRIAL :  cpu time    1.1600: real time    1.1726
    CORREC:  cpu time    4.6889: real time    4.7256
    CHARGE:  cpu time    0.1805: real time    0.1822
    --------------------------------------------
      LOOP:  cpu time   10.3684: real time   10.4531

 eigenvalue-minimisations  :     0
 total energy-change (2. order) :-0.2507441E-06  (-0.1205730E-06)
 number of electron     216.0000000 magnetization 
 augmentation part       -0.4133929 magnetization 

 Free energy of the ion-electron system (eV)
  ---------------------------------------------------
  alpha Z        PSCENC =        47.94900195
  Ewald energy   TEWEN  =     40383.20022222
  -Hartree energ DENC   =    -47348.85392716
  -exchange      EXHF   =         0.00000000
  -V(xc)+E(xc)   XCENC  =       444.00057403
  PAW double counting   =    107010.99879598  -106717.51303426
  entropy T*S    EENTRO =        -0.00000000
  eigenvalues    EBANDS =     -2652.21148462
  atomic energy  EATOM  =      8415.03548706
  ---------------------------------------------------
  free energy    TOTEN  =      -417.39436479 eV

  energy without entropy =     -417.39436479  energy(sigma->0) =     -417.39436479


--------------------------------------------------------------------------------------------------------




--------------------------------------- Iteration      1(  27)  ---------------------------------------


    POTLOK:  cpu time    4.2330: real time    4.2637
    SETDIJ:  cpu time    0.0542: real time    0.0543
    TRIAL :  cpu time    1.1628: real time    1.1730
    CORREC:  cpu time    4.6918: real time    4.7277
    CHARGE:  cpu time    0.1807: real time    0.1824
    --------------------------------------------
      LOOP:  cpu time   10.3599: real time   10.4439

 eigenvalue-minimisations  :     0
 total energy-change (2. order) :-0.1244771E-06  (-0.6570291E-07)
 number of electron     216.0000000 magnetization 
 augmentation part       -0.4133897 magnetization 

 Free energy of the ion-electron system (eV)
  ---------------------------------------------------
  alpha Z        PSCENC =        47.94900195
  Ewald energy   TEWEN  =     40383.20022222
  -Hartree energ DENC   =    -47348.85399678
  -exchange      EXHF   =         0.00000000
  -V(xc)+E(xc)   XCENC  =       444.00052952
  PAW double counting   =    107010.92845510  -106717.44268206
  entropy T*S    EENTRO =        -0.00000000
  eigenvalues    EBANDS =     -2652.21138193
  atomic energy  EATOM  =      8415.03548706
  ---------------------------------------------------
  free energy    TOTEN  =      -417.39436491 eV

  energy without entropy =     -417.39436491  energy(sigma->0) =     -417.39436491


--------------------------------------------------------------------------------------------------------




--------------------------------------- Iteration      1(  28)  ---------------------------------------


    POTLOK:  cpu time    4.2118: real time    4.2436
    SETDIJ:  cpu time    0.0542: real time    0.0544
    TRIAL :  cpu time    1.1618: real time    1.1725
    CORREC:  cpu time    4.6791: real time    4.7186
    EDDIAG:  cpu time    0.4404: real time    0.4455
    CHARGE:  cpu time    0.1808: real time    0.1825
[...]
      21 -86.0233      22 -86.0234      23 -86.0248      24 -86.0248      25 -86.0235
      26 -86.0235      27 -86.0236      28 -86.0242      29 -86.0234      30 -86.0235
      31 -86.0242      32 -86.0239      33 -86.0236      34 -86.0236      35 -86.0237
      36 -86.0236      37 -86.0240      38 -86.0241      39 -86.0239      40 -86.0239
      41 -86.0239      42 -86.0239      43 -86.0239      44 -86.0241      45 -86.0235
      46 -86.0235      47 -86.0235      48 -86.0236      49 -86.0241      50 -86.0239
      51 -89.9138      52-120.4311      53-120.4304
 
 
 
 E-fermi :  -4.3663     XC(G=0):  -2.2929     alpha+bet : -1.6890

 Fermi energy:        -4.3663029036

 k-point     1 :       0.0000    0.0000    0.0000
  band No.  band energies     occupation 
      1     -27.6438      2.00000
      2     -26.6501      2.00000
      3     -22.4385      2.00000
      4     -21.5021      2.00000
      5     -21.5007      2.00000
      6     -21.5005      2.00000
      7     -21.5003      2.00000
      8     -21.4999      2.00000
      9     -21.4994      2.00000
     10     -19.6627      2.00000
     11     -19.6626      2.00000
     12     -19.6623      2.00000
     13     -19.6617      2.00000
     14     -19.6612      2.00000
     15     -19.6610      2.00000
     16     -18.7676      2.00000
     17     -18.7674      2.00000
     18     -18.7669      2.00000
     19     -18.7668      2.00000
     20     -18.7660      2.00000
     21     -18.7657      2.00000
     22     -16.6067      2.00000
     23     -16.6063      2.00000
     24     -16.6057      2.00000
     25     -16.6055      2.00000
     26     -16.6049      2.00000
     27     -16.6048      2.00000
     28     -15.6279      2.00000
     29     -15.6279      2.00000
     30     -15.6268      2.00000
     31     -15.6267      2.00000
     32     -15.6263      2.00000
     33     -15.6262      2.00000
     34     -14.2789      2.00000
     35     -14.2788      2.00000
     36     -14.2782      2.00000
     37     -14.2781      2.00000
     38     -14.2780      2.00000
     39     -14.2777      2.00000
     40     -12.4869      2.00000
     41     -11.9029      2.00000
     42     -11.9026      2.00000
     43     -11.9022      2.00000
     44     -11.9021      2.00000
     45     -11.9010      2.00000
     46     -11.9007      2.00000
     47     -11.8100      2.00000
     48     -11.8099      2.00000
     49     -11.8092      2.00000
     50     -11.8092      2.00000
     51     -11.8090      2.00000
     52     -11.8089      2.00000
     53     -11.3290      2.00000
     54     -11.2663      2.00000
     55     -11.2662      2.00000
     56     -10.5955      2.00000
     57     -10.4400      2.00000
     58     -10.4398      2.00000
     59     -10.4382      2.00000
     60     -10.4379      2.00000
     61     -10.4377      2.00000
     62     -10.4376      2.00000
     63      -9.4793      2.00000
     64      -9.4781      2.00000
     65      -9.4780      2.00000
     66      -9.4778      2.00000
     67      -9.4777      2.00000
     68      -9.4772      2.00000
     69      -9.1761      2.00000
     70      -9.1747      2.00000
     71      -9.1744      2.00000
     72      -9.1743      2.00000
     73      -9.1741      2.00000
     74      -9.1737      2.00000
     75      -9.1165      2.00000
     76      -9.1162      2.00000
     77      -9.1153      2.00000
     78      -9.1152      2.00000
     79      -9.1151      2.00000
     80      -9.1143      2.00000
     81      -7.7294      2.00000
     82      -7.7293      2.00000
     83      -7.5265      2.00000
     84      -7.5247      2.00000
     85      -7.5246      2.00000
     86      -7.5243      2.00000
     87      -7.5235      2.00000
     88      -7.5234      2.00000
     89      -7.3484      2.00000
     90      -7.3482      2.00000
     91      -7.3480      2.00000
     92      -7.3475      2.00000
     93      -7.3471      2.00000
     94      -7.3469      2.00000
     95      -6.4510      2.00000
     96      -6.4508      2.00000
     97      -6.4506      2.00000
     98      -6.4506      2.00000
     99      -6.4498      2.00000
    100      -6.4496      2.00000
    101      -6.0468      2.00000
    102      -6.0446      2.00000
    103      -4.4668      2.00000
    104      -4.4663      2.00000
    105      -4.4659      2.00000
    106      -4.4658      2.00000
    107      -4.4653      2.00000
    108      -4.4653      2.00000
    109      -1.6662      0.00000
    110      -1.6661      0.00000
    111      -1.6658      0.00000
    112      -1.6657      0.00000
    113      -1.6650      0.00000
    114      -1.6647      0.00000
    115      -0.1345      0.00000
    116       0.1439      0.00000
    117       0.1949      0.00000
    118       0.1952      0.00000
    119       0.1955      0.00000
    120       0.1955      0.00000
    121       0.1960      0.00000
    122       0.1969      0.00000
    123       0.6502      0.00000
    124       1.1502      0.00000
    125       1.1530      0.00000
    126       1.1538      0.00000
    127       1.1567      0.00000
    128       1.1574      0.00000
    129       1.1582      0.00000
    130       1.3123      0.00000
    131       1.3521      0.00000
    132       1.7268      0.00000
    133       1.8185      0.00000
    134       1.8516      0.00000
    135       1.8858      0.00000
    136       1.9356      0.00000


--------------------------------------------------------------------------------------------------------


 soft charge-density along one line, spin component           1
         0         1         2         3         4         5         6         7         8         9
 total charge-density along one line
 
 pseudopotential strength for first ion, spin component:           1
 12.721  21.408   0.000   0.000   0.000   0.000   0.000   0.000
 21.408  36.024   0.000   0.000   0.000   0.000   0.000   0.000
  0.000   0.000  -3.196  -0.000   0.000  -5.729  -0.000   0.000
  0.000   0.000  -0.000  -3.199  -0.000  -0.000  -5.733  -0.000
  0.000   0.000   0.000  -0.000  -3.196   0.000  -0.000  -5.729
  0.000   0.000  -5.729  -0.000   0.000 -10.246  -0.000   0.000
  0.000   0.000  -0.000  -5.733  -0.000  -0.000 -10.252  -0.000
  0.000   0.000   0.000  -0.000  -5.729   0.000  -0.000 -10.246
 total augmentation occupancy for first ion, spin component:           1
  7.653  -2.660  -0.000  -0.002  -0.000   0.000   0.001   0.000
 -2.660   0.962   0.000   0.001   0.000  -0.000  -0.000  -0.000
 -0.000   0.000   7.069  -0.008   0.000  -2.370   0.003  -0.000
 -0.002   0.001  -0.008   3.114  -0.000   0.003  -0.813   0.000
 -0.000   0.000   0.000  -0.000   7.068  -0.000   0.000  -2.370
  0.000  -0.000  -2.370   0.003  -0.000   0.809  -0.001   0.000
  0.001  -0.000   0.003  -0.813   0.000  -0.001   0.219  -0.000
  0.000  -0.000  -0.000   0.000  -2.370   0.000  -0.000   0.809


------------------------ aborting loop because EDIFF is reached ----------------------------------------


    FORLOC:  cpu time    0.0662: real time    0.0668
    FORNL :  cpu time    0.8420: real time    0.8467
    FORCOR:  cpu time    4.2866: real time    4.3176
    OFIELD:  cpu time    0.0017: real time    0.0018

 VOLUME and BASIS-vectors are now :
 -----------------------------------------------------------------------------
  energy-cutoff  :     1000.00
  volume of cell :     3288.85
      direct lattice vectors                 reciprocal lattice vectors
    12.325000000  0.000000000  0.000000000     0.081135903  0.046843835  0.000000000
    -6.162500000 10.673763102  0.000000000     0.000000000  0.093687670  0.000000000
     0.000000000  0.000000000 25.000000000     0.000000000  0.000000000  0.040000000

  length of vectors
    12.325000000 12.325000000 25.000000000     0.093687670  0.093687670  0.040000000


 FORCES acting on ions:
    Electron-Ion                     Ewald-Force                    Non-Local-Force
 -----------------------------------------------------------------------------------------------
   0.242E+00 0.231E+00 0.814E+01   -.243E+00 -.232E+00 -.815E+01   0.383E-02 -.610E-03 0.567E-02
   0.329E+00 0.238E+00 0.889E+01   -.332E+00 -.235E+00 -.889E+01   0.200E-02 -.282E-02 -.577E-02
   0.128E+00 0.354E+00 0.859E+01   -.130E+00 -.353E+00 -.859E+01   -.145E-04 0.108E-01 -.231E-02
   0.163E+00 0.250E+00 0.104E+02   -.161E+00 -.249E+00 -.104E+02   0.111E-01 0.554E-03 -.171E-01
   0.312E+00 0.985E-01 0.862E+01   -.311E+00 -.996E-01 -.863E+01   -.128E-02 -.487E-02 0.425E-02
   0.321E+00 -.774E-01 0.880E+01   -.323E+00 0.786E-01 -.880E+01   -.662E-02 0.371E-02 -.140E-02
   0.290E+00 0.203E+00 0.106E+02   -.291E+00 -.205E+00 -.106E+02   0.107E-01 -.186E-01 -.763E-02
   0.340E+00 -.673E-01 0.118E+02   -.344E+00 0.692E-01 -.118E+02   -.825E-02 -.456E-02 -.643E-02
   -.134E+00 0.417E+00 0.908E+01   0.137E+00 -.419E+00 -.908E+01   0.926E-03 -.139E-01 -.500E-02
   -.117E+00 0.130E+00 0.108E+02   0.117E+00 -.130E+00 -.108E+02   -.247E-01 0.140E-01 0.718E-03
   0.824E-01 -.747E-01 0.817E+01   -.798E-01 0.742E-01 -.817E+01   0.408E-02 -.271E-02 0.143E-02
   0.985E-01 -.745E-01 0.807E+01   -.993E-01 0.750E-01 -.808E+01   -.604E-02 0.312E-02 0.717E-02
   0.291E-02 -.229E+00 0.125E+02   -.208E-02 0.231E+00 -.125E+02   0.255E-01 -.672E-02 -.402E-02
   0.120E-01 -.444E+00 0.103E+02   -.150E-01 0.446E+00 -.103E+02   0.272E-02 0.764E-02 -.160E-01
   -.310E+00 0.180E+00 0.827E+01   0.312E+00 -.182E+00 -.828E+01   0.767E-02 -.424E-02 0.872E-02
   -.358E+00 0.685E-01 0.827E+01   0.357E+00 -.679E-01 -.827E+01   -.794E-03 0.463E-02 -.372E-02
   -.430E-01 -.242E-01 0.767E+01   0.452E-01 0.227E-01 -.767E+01   0.688E-03 0.108E-04 0.245E-02
   0.307E-01 0.170E+00 0.766E+01   -.307E-01 -.170E+00 -.767E+01   -.231E-02 0.109E-02 0.925E-02
   -.942E-01 -.389E+00 0.914E+01   0.947E-01 0.390E+00 -.914E+01   0.529E-02 -.928E-03 -.774E-04
   -.596E-01 -.248E+00 0.828E+01   0.573E-01 0.248E+00 -.828E+01   -.811E-03 -.352E-03 -.361E-03
   0.404E+00 -.150E+00 0.982E+01   -.403E+00 0.150E+00 -.981E+01   -.261E-02 -.155E-02 -.152E-01
   0.307E+00 -.239E+00 0.921E+01   -.309E+00 0.240E+00 -.921E+01   -.713E-02 0.560E-02 -.468E-03
   -.552E-01 0.801E-01 0.120E+02   0.511E-01 -.778E-01 -.120E+02   -.981E-02 0.101E-01 -.240E-02
   -.113E+00 -.131E+00 0.121E+02   0.115E+00 0.129E+00 -.120E+02   0.117E-01 -.142E-01 -.136E-01
   0.153E+00 -.559E-01 0.827E+01   -.151E+00 0.546E-01 -.826E+01   0.391E-02 -.273E-02 -.155E-02
   0.633E-01 0.122E+00 0.806E+01   -.640E-01 -.121E+00 -.807E+01   -.441E-02 0.288E-02 0.688E-02
   -.419E+00 -.160E-01 0.940E+01   0.422E+00 0.144E-01 -.940E+01   0.131E-01 0.718E-02 -.271E-02
   -.341E+00 -.172E+00 0.887E+01   0.341E+00 0.172E+00 -.888E+01   -.747E-02 0.874E-02 -.187E-03
   0.138E+00 -.338E+00 0.928E+01   -.136E+00 0.337E+00 -.928E+01   0.347E-02 0.272E-02 -.536E-02
   0.217E-01 -.142E+00 0.845E+01   -.237E-01 0.143E+00 -.844E+01   -.509E-02 0.247E-02 -.650E-03
   -.249E+00 -.221E+00 0.961E+01   0.247E+00 0.221E+00 -.961E+01   -.111E-01 -.763E-02 -.147E-01
   -.193E+00 -.387E+00 0.878E+01   0.194E+00 0.386E+00 -.878E+01   0.525E-03 -.246E-03 0.829E-03
   0.214E-03 0.102E+00 0.795E+01   0.474E-03 -.103E+00 -.795E+01   0.433E-02 -.439E-02 0.805E-02
   0.454E-01 0.676E-01 0.802E+01   -.480E-01 -.666E-01 -.802E+01   -.257E-02 0.469E-02 0.168E-03
   -.190E+00 0.388E-01 0.807E+01   0.192E+00 -.397E-01 -.807E+01   0.440E-02 -.256E-02 0.725E-02
   -.158E+00 -.873E-01 0.802E+01   0.157E+00 0.876E-01 -.802E+01   -.308E-02 0.201E-02 0.480E-02
   -.287E+00 -.180E+00 0.804E+01   0.289E+00 0.178E+00 -.804E+01   0.279E-03 0.780E-03 0.341E-02
   -.194E+00 -.165E+00 0.785E+01   0.194E+00 0.166E+00 -.786E+01   -.303E-02 0.118E-02 0.876E-02
   -.189E+00 -.230E+00 0.795E+01   0.188E+00 0.231E+00 -.796E+01   -.238E-02 0.451E-03 0.406E-02
   -.249E-01 -.760E-01 0.778E+01   0.261E-01 0.754E-01 -.779E+01   0.165E-02 0.856E-03 0.685E-02
   0.781E-01 0.177E+00 0.768E+01   -.792E-01 -.177E+00 -.768E+01   -.369E-02 0.120E-02 0.637E-02
   0.229E+00 0.313E+00 0.798E+01   -.228E+00 -.314E+00 -.799E+01   -.122E-02 -.127E-02 0.664E-02
   0.386E-01 0.284E+00 0.778E+01   -.361E-01 -.285E+00 -.778E+01   0.649E-03 -.146E-03 0.266E-02
   0.230E-01 0.397E+00 0.838E+01   -.230E-01 -.398E+00 -.839E+01   -.717E-02 0.838E-03 0.466E-02
   -.619E-01 0.106E+00 0.817E+01   0.635E-01 -.108E+00 -.817E+01   0.431E-02 -.330E-02 0.306E-02
   -.179E+00 0.271E+00 0.833E+01   0.177E+00 -.271E+00 -.833E+01   -.522E-02 -.446E-03 -.531E-04
   -.829E-01 -.132E+00 0.829E+01   0.836E-01 0.131E+00 -.830E+01   0.544E-02 -.979E-03 0.702E-02
   -.123E+00 0.375E-01 0.792E+01   0.122E+00 -.368E-01 -.792E+01   -.389E-02 0.326E-02 -.156E-02
   -.285E-02 -.711E-01 0.791E+01   0.311E-02 0.710E-01 -.791E+01   0.361E-02 -.282E-02 0.566E-02
   0.119E+00 0.921E-01 0.786E+01   -.121E+00 -.907E-01 -.786E+01   -.119E-02 0.194E-02 0.346E-02
   -.552E-02 0.310E-01 -.109E+03   0.120E-02 -.272E-01 0.109E+03   -.288E-02 0.189E-02 -.172E-02
   -.229E+03 0.156E+03 -.177E+03   0.279E+03 -.190E+03 0.180E+03   -.512E+02 0.348E+02 -.343E+01
   0.229E+03 -.156E+03 -.155E+03   -.279E+03 0.190E+03 0.152E+03   0.512E+02 -.348E+02 0.309E+01
 -----------------------------------------------------------------------------------------------
   -.752E-02 0.139E-01 0.342E+00   0.114E-12 -.142E-12 0.284E-13   0.744E-02 -.140E-01 -.343E+00
 
 
 POSITION                                       TOTAL-FORCE (eV/Angst)
 -----------------------------------------------------------------------------------
     11.98348      0.00342      0.01417         0.003318     -0.001709     -0.001005
     -0.34154      1.42665      0.01100        -0.000470     -0.000069     -0.003337
      2.12355      0.00315      0.01249        -0.001791      0.011025     -0.006317
      2.12326      1.42653      0.00641         0.013630      0.001322     -0.008391
     10.75099      2.13819      0.01213         0.000507     -0.005821     -0.000127
     -1.57382      3.56123      0.01110        -0.008988      0.004729     -0.001404
      0.89078      2.13854      0.00548         0.009853     -0.019291      0.002242
      0.89099      3.56147      0.00181        -0.011658     -0.002581      0.011392
      4.58864      0.00346      0.01135         0.003511     -0.015702     -0.003512
      4.58894      1.42623      0.00646        -0.023953      0.013537      0.013465
      9.51854      4.27281      0.01369         0.006564     -0.003098      0.000198
     -2.80632      5.69591      0.01434        -0.006657      0.003442      0.000684
      2.12300      4.27302      0.00000         0.025431     -0.005242      0.019889
      2.12335      5.69594      0.00581        -0.000407      0.008998     -0.002643
      7.05344      0.00333      0.01399         0.009406     -0.005293     -0.000427
      7.05353      1.42635      0.01368        -0.001867      0.005094     -0.003650
      8.28610      6.40752      0.01601         0.002819     -0.001428     -0.000779
     -4.03885      7.83070      0.01636        -0.002297      0.000903     -0.000134
      3.35586      6.40753      0.01007         0.005667      0.000440     -0.001260
      3.35599      7.83072      0.01320        -0.003100     -0.000075     -0.000655
     -0.34146      4.27290      0.00723        -0.001684     -0.001603     -0.004413
     -0.34138      5.69591      0.00946        -0.009195      0.006548     -0.001098
      3.35624      2.13791      0.00222        -0.013787      0.012118      0.015374
      3.35573      3.56155      0.00139         0.013769     -0.016162      0.008047
     -1.57395      6.40758      0.01311         0.005374     -0.003944     -0.000554
     -1.57385      7.83068      0.01438        -0.004967      0.003824     -0.000002
      5.82093      2.13784      0.01033         0.015888      0.005270     -0.003014
      5.82114      3.56097      0.01156        -0.006592      0.008683     -0.003636
      0.89092      6.40755      0.00907         0.004761      0.002239     -0.002211
      0.89106      7.83068      0.01235        -0.006821      0.003908      0.000386
      4.58871      4.27293      0.00850        -0.013191     -0.006591     -0.010753
      4.58852      5.69606      0.01149         0.002009     -0.001335     -0.003959
      9.51845      0.00337      0.01490         0.004884     -0.004734      0.000109
      9.51855      1.42644      0.01438        -0.005121      0.005434     -0.000270
      8.28593      2.13803      0.01453         0.006766     -0.003391      0.000579
      8.28613      3.56115      0.01464        -0.004481      0.002291     -0.000040
      7.05356      4.27269      0.01457         0.002456     -0.001099     -0.000613
      7.05362      5.69588      0.01553        -0.002577      0.001578     -0.000112
      5.82112      6.40755      0.01489        -0.003059      0.001571     -0.000042
      5.82102      7.83073      0.01579         0.002768      0.000217     -0.000335
      7.05363      8.54227      0.01631        -0.004708      0.001362      0.001056
     -5.27149      9.96549      0.01495         0.000258     -0.001972     -0.002167
     -2.80638      8.54234      0.01558         0.003056     -0.001240     -0.001155
     -2.80627      9.96553      0.01362        -0.006973      0.000024     -0.003768
     -0.34149      8.54239      0.01378         0.005798     -0.004921      0.000243
     -0.34138      9.96550      0.01354        -0.006071      0.000035     -0.001181
      2.12343      8.54232      0.01336         0.006005     -0.001578      0.000665
      2.12354      9.96544      0.01469        -0.005135      0.003830     -0.001801
      4.58846      8.54235      0.01505         0.003764     -0.002819      0.000981
      4.58853      9.96550      0.01517        -0.002657      0.003337      0.000122
      3.04930      2.68154     10.00000        -0.007054      0.005647      0.033643
      4.02070      2.02068     10.06442        -0.557895      0.379143     -0.052875
      2.07767      3.34267      9.94055         0.564892     -0.384850      0.018563
 -----------------------------------------------------------------------------------
    total drift:                               -0.000077     -0.000084     -0.001334


--------------------------------------------------------------------------------------------------------



  FREE ENERGIE OF THE ION-ELECTRON SYSTEM (eV)
  ---------------------------------------------------
  free  energy   TOTEN  =      -417.39436498 eV

  energy  without entropy=     -417.39436498  energy(sigma->0) =     -417.39436498
 


--------------------------------------------------------------------------------------------------------


    POTLOK:  cpu time    4.2849: real time    4.3174


--------------------------------------------------------------------------------------------------------


 writing wavefunctions
     LOOP+:  cpu time  296.9916: real time  299.9975
    4ORBIT:  cpu time    0.0000: real time    0.0000

 total amount of memory used by VASP MPI-rank0   100580. kBytes
=======================================================================

   base      :      30000. kBytes
   nonl-proj :       8229. kBytes
   fftplans  :      18352. kBytes
   grid      :      30208. kBytes
   one-center:          6. kBytes
   wavefun   :      13785. kBytes
 
  
  
 General timing and accounting informations for this job:
 ========================================================
  
                  Total CPU time used (sec):      339.739
                            User time (sec):      315.480
                          System time (sec):       24.259
                         Elapsed time (sec):      343.930
  
                   Maximum memory used (kb):      815924.
                   Average memory used (kb):          N/A
  
                          Minor page faults:       428192
                          Major page faults:           90
                 Voluntary context switches:         3944
